<event>
 7    1  0.1422977E-005  0.1712843E+03  0.7546771E-02  0.1187936E+00
          4   -1    0    0  501    0  0.00000000000E+00  0.00000000000E+00  0.47068370537E+02  0.47068370537E+02  0.00000000000E+00 0. -1.
         -4   -1    0    0    0  501 -0.00000000000E+00 -0.00000000000E+00 -0.50082925575E+03  0.50082925575E+03  0.00000000000E+00 0.  1.
         23    2    1    2    0    0 -0.60280653235E+02 -0.76720728856E+02 -0.23746854737E+03  0.27199782266E+03  0.89842513044E+02 0.  0.
          5    1    1    2  502    0 -0.24091442080E+02  0.57984547545E+02 -0.28490140110E+02  0.69111384149E+02  0.47000000000E+01 0. -1.
         -5    1    1    2    0  502  0.84372095316E+02  0.18736181311E+02 -0.18780219773E+03  0.20678841948E+03  0.47000000000E+01 0.  1.
        -11    1    3    3    0    0  0.48747327330E+01 -0.59718038016E+02 -0.15063827238E+03  0.16211692136E+03  0.00000000000E+00 0.  1.
         11    1    3    3    0    0 -0.65155385968E+02 -0.17002690840E+02 -0.86830274990E+02  0.10988090130E+03  0.00000000000E+00 0. -1.
<mgrwt>
<rscale>  0 0.16067604E+03</rscale>
<asrwt>0</asrwt>
<pdfrwt beam="1">  1        4 0.72412878E-02 0.17128434E+03</pdfrwt>
<pdfrwt beam="2">  1       -4 0.77050654E-01 0.17128434E+03</pdfrwt>
<totfact> 0.34925856E+02</totfact>
</mgrwt>
</event>
<event>
 7    1  0.1422977E-005  0.2192039E+03  0.7546771E-02  0.1138213E+00
         -1   -1    0    0    0  501 -0.00000000000E+00  0.00000000000E+00  0.19105961001E+03  0.19105961001E+03  0.00000000000E+00 0.  1.
          1   -1    0    0  501    0  0.00000000000E+00 -0.00000000000E+00 -0.28751734761E+03  0.28751734761E+03  0.00000000000E+00 0. -1.
         23    2    1    2    0    0 -0.16219377449E+03 -0.78221549740E+02  0.60304793287E+02  0.20908699122E+03  0.87494402539E+02 0.  0.
          5    1    1    2  502    0  0.10802756957E+03  0.98939265671E+01 -0.25003731521E+02  0.11142316707E+03  0.47000000000E+01 0. -1.
         -5    1    1    2    0  502  0.54166204922E+02  0.68327623173E+02 -0.13175879937E+03  0.15806679935E+03  0.47000000000E+01 0. -1.
        -11    1    3    3    0    0 -0.41464433327E+02 -0.41380227780E+02  0.58587382591E+02  0.82849887635E+02  0.00000000000E+00 0.  1.
         11    1    3    3    0    0 -0.12072934116E+03 -0.36841321960E+02  0.17174106966E+01  0.12623710358E+03  0.00000000000E+00 0. -1.
<mgrwt>
<rscale>  0 0.21429060E+03</rscale>
<asrwt>0</asrwt>
<pdfrwt beam="2">  1        1 0.44233438E-01 0.21920390E+03</pdfrwt>
<pdfrwt beam="1">  1       -1 0.29393786E-01 0.21920390E+03</pdfrwt>
<totfact> 0.97823420E+02</totfact>
</mgrwt>
</event>
<event>
 7    1  0.1422977E-005  0.1334306E+03  0.7546771E-02  0.1235126E+00
         -2   -1    0    0    0  501 -0.00000000000E+00  0.00000000000E+00  0.12004624408E+02  0.12004624408E+02  0.00000000000E+00 0.  1.
          2   -1    0    0  501    0  0.00000000000E+00 -0.00000000000E+00 -0.25950505477E+04  0.25950505477E+04  0.00000000000E+00 0. -1.
         23    2    1    2    0    0  0.45457272732E+02 -0.10637852177E+02 -0.25078635735E+03  0.27098188476E+03  0.91421317506E+02 0.  0.
          5    1    1    2  502    0 -0.63446931360E+02 -0.29926295451E+02 -0.77720397650E+03  0.78037760562E+03  0.47000000000E+01 0.  1.
         -5    1    1    2    0  502  0.17989658628E+02  0.40564147629E+02 -0.15550555894E+04  0.15556956817E+04  0.47000000000E+01 0.  1.
        -11    1    3    3    0    0  0.44632596367E+02 -0.37934828843E+02 -0.22803217495E+03  0.23543532596E+03  0.00000000000E+00 0. -1.
         11    1    3    3    0    0  0.82467636524E+00  0.27296976666E+02 -0.22754182404E+02  0.35546558808E+02  0.00000000000E+00 0.  1.
<mgrwt>
<rscale>  0 0.12496349E+03</rscale>
<asrwt>0</asrwt>
<pdfrwt beam="2">  1        2 0.39923840E+00 0.13343058E+03</pdfrwt>
<pdfrwt beam="1">  1       -2 0.18468660E-02 0.13343058E+03</pdfrwt>
<totfact> 0.31205121E+03</totfact>
</mgrwt>
</event>
<event>
 7    1  0.1422977E-005  0.1439700E+03  0.7546771E-02  0.1218241E+00
          3   -1    0    0  501    0  0.00000000000E+00  0.00000000000E+00  0.19070828508E+03  0.19070828508E+03  0.00000000000E+00 0. -1.
         -3   -1    0    0    0  501 -0.00000000000E+00 -0.00000000000E+00 -0.13338430075E+03  0.13338430075E+03  0.00000000000E+00 0.  1.
         23    2    1    2    0    0 -0.45505915185E+02  0.55090661005E+02 -0.66898870976E+02  0.13393821306E+03  0.91423283317E+02 0.  0.
          5    1    1    2  502    0 -0.47922371132E+00  0.38822296692E+02  0.38194886192E+02  0.54665708694E+02  0.47000000000E+01 0.  1.
         -5    1    1    2    0  502  0.45985138896E+02 -0.93912957696E+02  0.86027969114E+02  0.13548866407E+03  0.47000000000E+01 0.  1.
        -11    1    3    3    0    0 -0.26446061572E+02 -0.18415427399E+02  0.75559892342E+00  0.32234966553E+02  0.00000000000E+00 0. -1.
         11    1    3    3    0    0 -0.19059853613E+02  0.73506088404E+02 -0.67654469899E+02  0.10170324650E+03  0.00000000000E+00 0.  1.
<mgrwt>
<rscale>  0 0.13641143E+03</rscale>
<asrwt>0</asrwt>
<pdfrwt beam="1">  1        3 0.29339736E-01 0.14397002E+03</pdfrwt>
<pdfrwt beam="2">  1       -3 0.20520662E-01 0.14397002E+03</pdfrwt>
<totfact> 0.56066737E+02</totfact>
</mgrwt>
</event>
<event>
 7    1  0.1422977E-005  0.1762716E+03  0.7546771E-02  0.1177115E+00
          2   -1    0    0  501    0  0.00000000000E+00  0.00000000000E+00  0.73537665007E+03  0.73537665007E+03  0.00000000000E+00 0. -1.
         -2   -1    0    0    0  501 -0.00000000000E+00 -0.00000000000E+00 -0.38255832178E+02  0.38255832178E+02  0.00000000000E+00 0.  1.
         23    2    1    2    0    0  0.46009681830E+02  0.11546400127E+03  0.26627276151E+03  0.30812016167E+03  0.92671592711E+02 0.  0.
          5    1    1    2  502    0 -0.40992443575E+02 -0.14250963490E+03  0.36160080331E+03  0.39085369056E+03  0.47000000000E+01 0. -1.
         -5    1    1    2    0  502 -0.50172382555E+01  0.27045633628E+02  0.69247253072E+02  0.74658630017E+02  0.47000000000E+01 0. -1.
        -11    1    3    3    0    0 -0.21552906905E+02  0.14268128805E+02  0.92076440910E+02  0.95635653740E+02  0.00000000000E+00 0. -1.
         11    1    3    3    0    0  0.67562588736E+02  0.10119587246E+03  0.17419632060E+03  0.21248450793E+03  0.00000000000E+00 0.  1.
<mgrwt>
<rscale>  0 0.17070508E+03</rscale>
<asrwt>0</asrwt>
<pdfrwt beam="1">  1        2 0.11313486E+00 0.17627159E+03</pdfrwt>
<pdfrwt beam="2">  1       -2 0.58855132E-02 0.17627159E+03</pdfrwt>
<totfact> 0.58919947E+03</totfact>
</mgrwt>
</event>
<event>
 7    1  0.1422977E-005  0.2400386E+03  0.7546771E-02  0.1146067E+00
         -2   -1    0    0    0  501 -0.00000000000E+00  0.00000000000E+00  0.14356559655E+03  0.14356559655E+03  0.00000000000E+00 0.  1.
          2   -1    0    0  501    0  0.00000000000E+00 -0.00000000000E+00 -0.23706665373E+03  0.23706665373E+03  0.00000000000E+00 0. -1.
         23    2    1    2    0    0 -0.76332902702E+02 -0.42261229448E+02 -0.10620569525E+02  0.12668793404E+03  0.91237670870E+02 0.  0.
          5    1    1    2  502    0  0.41627449156E+02 -0.50374068155E+02 -0.12901022119E+03  0.14469318725E+03  0.47000000000E+01 0. -1.
         -5    1    1    2    0  502  0.34705453546E+02  0.92635297603E+02  0.46129733536E+02  0.10925112898E+03  0.47000000000E+01 0.  1.
        -11    1    3    3    0    0 -0.11343136868E+02  0.13406486903E+02 -0.33749700718E+02  0.38045274919E+02  0.00000000000E+00 0. -1.
         11    1    3    3    0    0 -0.64989765834E+02 -0.55667716351E+02  0.23129131193E+02  0.88642659125E+02  0.00000000000E+00 0.  1.
<mgrwt>
<rscale>  0 0.20441454E+03</rscale>
<asrwt>0</asrwt>
<pdfrwt beam="2">  1        2 0.36471793E-01 0.24003862E+03</pdfrwt>
<pdfrwt beam="1">  1       -2 0.22087015E-01 0.24003862E+03</pdfrwt>
<totfact> 0.24817115E+03</totfact>
</mgrwt>
</event>
<event>
 7    1  0.1422977E-005  0.1280125E+03  0.7546771E-02  0.1244987E+00
         -2   -1    0    0    0  501 -0.00000000000E+00  0.00000000000E+00  0.12920156695E+02  0.12920156695E+02  0.00000000000E+00 0.  1.
          2   -1    0    0  501    0  0.00000000000E+00 -0.00000000000E+00 -0.10733921636E+04  0.10733921636E+04  0.00000000000E+00 0. -1.
         23    2    1    2    0    0 -0.26193413578E+02 -0.87710323517E+01 -0.28815033683E+03  0.30345348864E+03  0.91051508650E+02 0.  0.
          5    1    1    2  502    0 -0.14758289198E+02 -0.70374234430E+01 -0.11001506481E+02  0.20259703197E+02  0.47000000000E+01 0. -1.
         -5    1    1    2    0  502  0.40951702776E+02  0.15808455795E+02 -0.76132016356E+03  0.76259912843E+03  0.47000000000E+01 0. -1.
        -11    1    3    3    0    0 -0.23190402611E+02  0.38637997023E+02 -0.10538364808E+03  0.11461414778E+03  0.00000000000E+00 0. -1.
         11    1    3    3    0    0 -0.30030109669E+01 -0.47409029375E+02 -0.18276668875E+03  0.18883934086E+03  0.00000000000E+00 0.  1.
<mgrwt>
<rscale>  0 0.11886135E+03</rscale>
<asrwt>0</asrwt>
<pdfrwt beam="2">  1        2 0.16513732E+00 0.12801245E+03</pdfrwt>
<pdfrwt beam="1">  1       -2 0.19877157E-02 0.12801245E+03</pdfrwt>
<totfact> 0.17622925E+04</totfact>
</mgrwt>
</event>
<event>
 7    1  0.1422977E-005  0.4187157E+03  0.7546771E-02  0.1038142E+00
          1   -1    0    0  501    0  0.00000000000E+00  0.00000000000E+00  0.78089308406E+03  0.78089308406E+03  0.00000000000E+00 0. -1.
         -1   -1    0    0    0  501 -0.00000000000E+00 -0.00000000000E+00 -0.22068436646E+03  0.22068436646E+03  0.00000000000E+00 0.  1.
         23    2    1    2    0    0 -0.30288213971E+03 -0.26069189988E+03  0.25558572963E+03  0.48377630904E+03  0.94961017168E+02 0.  0.
          5    1    1    2  502    0  0.27805910931E+03  0.27373711256E+03  0.28616127732E+03  0.48390003276E+03  0.47000000000E+01 0. -1.
         -5    1    1    2    0  502  0.24823030393E+02 -0.13045212678E+02  0.18461710661E+02  0.33901108716E+02  0.47000000000E+01 0. -1.
        -11    1    3    3    0    0 -0.16104080004E+03 -0.13314410318E+03  0.18895627628E+03  0.28171965824E+03  0.00000000000E+00 0.  1.
         11    1    3    3    0    0 -0.14184133966E+03 -0.12754779670E+03  0.66629453345E+02  0.20205665080E+03  0.00000000000E+00 0. -1.
<mgrwt>
<rscale>  0 0.41670989E+03</rscale>
<asrwt>0</asrwt>
<pdfrwt beam="1">  1        1 0.12013740E+00 0.41871572E+03</pdfrwt>
<pdfrwt beam="2">  1       -1 0.33951441E-01 0.41871572E+03</pdfrwt>
<totfact> 0.19573427E+02</totfact>
</mgrwt>
</event>
<event>
 7    1  0.1422977E-005  0.1637531E+03  0.7546771E-02  0.1192166E+00
          1   -1    0    0  501    0  0.00000000000E+00  0.00000000000E+00  0.48199498662E+03  0.48199498662E+03  0.00000000000E+00 0. -1.
         -1   -1    0    0    0  501 -0.00000000000E+00 -0.00000000000E+00 -0.48833588811E+02  0.48833588811E+02  0.00000000000E+00 0.  1.
         23    2    1    2    0    0 -0.65479371782E+02  0.83077902608E+02  0.15205129670E+03  0.20550108217E+03  0.89003437659E+02 0.  0.
          5    1    1    2  502    0 -0.28618811574E+02 -0.61119764820E+01  0.11905812504E+03  0.12269197109E+03  0.47000000000E+01 0. -1.
         -5    1    1    2    0  502  0.94098183356E+02 -0.76965926126E+02  0.16205197606E+03  0.20263552216E+03  0.47000000000E+01 0. -1.
        -11    1    3    3    0    0 -0.28857869806E+02  0.35093224218E+02  0.39919004464E+01  0.45609717220E+02  0.00000000000E+00 0.  1.
         11    1    3    3    0    0 -0.36621501976E+02  0.47984678390E+02  0.14805939625E+03  0.15989136495E+03  0.00000000000E+00 0. -1.
<mgrwt>
<rscale>  0 0.15696503E+03</rscale>
<asrwt>0</asrwt>
<pdfrwt beam="1">  1        1 0.74153071E-01 0.16375313E+03</pdfrwt>
<pdfrwt beam="2">  1       -1 0.75128602E-02 0.16375313E+03</pdfrwt>
<totfact> 0.43846135E+03</totfact>
</mgrwt>
</event>
<event>
 7    1  0.1422977E-005  0.1344098E+03  0.7546771E-02  0.1235325E+00
          1   -1    0    0  501    0  0.00000000000E+00  0.00000000000E+00  0.59936185906E+03  0.59936185906E+03  0.00000000000E+00 0. -1.
         -1   -1    0    0    0  501 -0.00000000000E+00 -0.00000000000E+00 -0.27566738302E+02  0.27566738302E+02  0.00000000000E+00 0.  1.
         23    2    1    2    0    0  0.28382708761E+02 -0.97212184703E+01  0.12351562141E+03  0.15893233260E+03  0.95411201471E+02 0.  0.
          5    1    1    2  502    0  0.92579702187E-02 -0.56652923880E+02  0.13516583301E+03  0.14663371469E+03  0.47000000000E+01 0. -1.
         -5    1    1    2    0  502 -0.28391966731E+02  0.66374142350E+02  0.31311366633E+03  0.32136255008E+03  0.47000000000E+01 0.  1.
        -11    1    3    3    0    0  0.35289024994E+02 -0.46875109574E+02  0.94724416605E+02  0.11142399330E+03  0.00000000000E+00 0.  1.
         11    1    3    3    0    0 -0.69063162327E+01  0.37153891103E+02  0.28791204809E+02  0.47508339293E+02  0.00000000000E+00 0. -1.
<mgrwt>
<rscale>  0 0.12483649E+03</rscale>
<asrwt>0</asrwt>
<pdfrwt beam="1">  1        1 0.92209507E-01 0.13440980E+03</pdfrwt>
<pdfrwt beam="2">  1       -1 0.42410371E-02 0.13440980E+03</pdfrwt>
<totfact> 0.76130318E+03</totfact>
</mgrwt>
</event>
<event>
 7    1  0.1422977E-005  0.1961351E+03  0.7546771E-02  0.1163548E+00
          1   -1    0    0  501    0  0.00000000000E+00  0.00000000000E+00  0.82360951405E+03  0.82360951405E+03  0.00000000000E+00 0. -1.
         -1   -1    0    0    0  501 -0.00000000000E+00 -0.00000000000E+00 -0.57416171317E+02  0.57416171317E+02  0.00000000000E+00 0.  1.
         23    2    1    2    0    0 -0.21677301265E+02  0.12044256778E+03  0.92108181411E+02  0.17898596366E+03  0.92605294558E+02 0.  0.
          5    1    1    2  502    0 -0.65260082379E+02 -0.35644984694E+02  0.26665730764E+03  0.27687118486E+03  0.47000000000E+01 0. -1.
         -5    1    1    2    0  502  0.86937383644E+02 -0.84797583089E+02  0.40742785368E+03  0.42516853685E+03  0.47000000000E+01 0.  1.
        -11    1    3    3    0    0  0.21083464168E+02  0.43735948141E+02 -0.40973672875E+01  0.48725086350E+02  0.00000000000E+00 0.  1.
         11    1    3    3    0    0 -0.42760765432E+02  0.76706619642E+02  0.96205548699E+02  0.13026087731E+03  0.00000000000E+00 0. -1.
<mgrwt>
<rscale>  0 0.18446758E+03</rscale>
<asrwt>0</asrwt>
<pdfrwt beam="1">  1        1 0.12670915E+00 0.19613507E+03</pdfrwt>
<pdfrwt beam="2">  1       -1 0.88332577E-02 0.19613507E+03</pdfrwt>
<totfact> 0.16229001E+03</totfact>
</mgrwt>
</event>
<event>
 7    1  0.1422977E-005  0.1255494E+03  0.7546771E-02  0.1249163E+00
          2   -1    0    0  501    0  0.00000000000E+00  0.00000000000E+00  0.91429384604E+03  0.91429384604E+03  0.00000000000E+00 0. -1.
         -2   -1    0    0    0  501 -0.00000000000E+00 -0.00000000000E+00 -0.13140460956E+02  0.13140460956E+02  0.00000000000E+00 0.  1.
         23    2    1    2    0    0  0.11419033067E+02 -0.29489689667E+01  0.34149005154E+03  0.35386156755E+03  0.91997081226E+02 0.  0.
          5    1    1    2  502    0  0.36529852693E+02 -0.40434977994E+02  0.34578090918E+03  0.35007991193E+03  0.47000000000E+01 0. -1.
         -5    1    1    2    0  502 -0.47948885760E+02  0.43383946961E+02  0.21388242436E+03  0.22349282751E+03  0.47000000000E+01 0. -1.
        -11    1    3    3    0    0 -0.34595119086E+02  0.10060933545E+02  0.76096400304E+02  0.84194458177E+02  0.00000000000E+00 0. -1.
         11    1    3    3    0    0  0.46014152153E+02 -0.13009902511E+02  0.26539365124E+03  0.26966710938E+03  0.00000000000E+00 0.  1.
<mgrwt>
<rscale>  0 0.11639633E+03</rscale>
<asrwt>0</asrwt>
<pdfrwt beam="1">  1        2 0.14066054E+00 0.12554935E+03</pdfrwt>
<pdfrwt beam="2">  1       -2 0.20216101E-02 0.12554935E+03</pdfrwt>
<totfact> 0.21378141E+04</totfact>
</mgrwt>
</event>
<event>
 7    1  0.1422977E-005  0.1504249E+03  0.7546771E-02  0.1207736E+00
          2   -1    0    0  501    0  0.00000000000E+00  0.00000000000E+00  0.38021238673E+03  0.38021238673E+03  0.00000000000E+00 0.  1.
         -2   -1    0    0    0  501 -0.00000000000E+00 -0.00000000000E+00 -0.61627322507E+02  0.61627322507E+02  0.00000000000E+00 0. -1.
         23    2    1    2    0    0  0.69440059021E+02  0.46691426895E+02  0.55421648954E+02  0.13871823786E+03  0.95755831158E+02 0.  0.
          5    1    1    2  502    0  0.24503080568E+02  0.19111868978E+02  0.90311483246E+02  0.95623838551E+02  0.47000000000E+01 0.  1.
         -5    1    1    2    0  502 -0.93943139589E+02 -0.65803295873E+02  0.17285193203E+03  0.20749763283E+03  0.47000000000E+01 0.  1.
        -11    1    3    3    0    0  0.77788149879E+02  0.15634367272E+02  0.67693497427E+02  0.10429688056E+03  0.00000000000E+00 0.  1.
         11    1    3    3    0    0 -0.83480908578E+01  0.31057059622E+02 -0.12271848473E+02  0.34421357299E+02  0.00000000000E+00 0. -1.
<mgrwt>
<rscale>  0 0.14423893E+03</rscale>
<asrwt>0</asrwt>
<pdfrwt beam="1">  1        2 0.58494212E-01 0.15042488E+03</pdfrwt>
<pdfrwt beam="2">  1       -2 0.94811267E-02 0.15042488E+03</pdfrwt>
<totfact> 0.58786194E+03</totfact>
</mgrwt>
</event>
<event>
 7    1  0.1422977E-005  0.2774299E+03  0.7546771E-02  0.1098900E+00
         -4   -1    0    0    0  501 -0.00000000000E+00  0.00000000000E+00  0.10726272824E+04  0.10726272824E+04  0.00000000000E+00 0. -1.
          4   -1    0    0  501    0  0.00000000000E+00 -0.00000000000E+00 -0.74740572212E+02  0.74740572212E+02  0.00000000000E+00 0.  1.
         23    2    1    2    0    0 -0.24746921065E+03  0.10136847452E+02  0.65383956594E+03  0.70539975572E+03  0.93481931376E+02 0.  0.
          5    1    1    2  502    0  0.13259967363E+03 -0.60056555660E+02  0.13706682170E+03  0.19999716732E+03  0.47000000000E+01 0.  1.
         -5    1    1    2    0  502  0.11486953702E+03  0.49919708208E+02  0.20698032256E+03  0.24197093158E+03  0.47000000000E+01 0.  1.
        -11    1    3    3    0    0 -0.13912300651E+03  0.47432968366E+02  0.31254103868E+03  0.34537949895E+03  0.00000000000E+00 0.  1.
         11    1    3    3    0    0 -0.10834620413E+03 -0.37296120915E+02  0.34129852725E+03  0.36002025678E+03  0.00000000000E+00 0. -1.
<mgrwt>
<rscale>  0 0.27419926E+03</rscale>
<asrwt>0</asrwt>
<pdfrwt beam="2">  1        4 0.11498550E-01 0.27742992E+03</pdfrwt>
<pdfrwt beam="1">  1       -4 0.16501957E+00 0.27742992E+03</pdfrwt>
<totfact> 0.27050589E+01</totfact>
</mgrwt>
</event>
<event>
 7    1  0.1422977E-005  0.1410897E+03  0.7546771E-02  0.1221126E+00
         -1   -1    0    0    0  501 -0.00000000000E+00  0.00000000000E+00  0.78082726663E+02  0.78082726663E+02  0.00000000000E+00 0.  1.
          1   -1    0    0  501    0  0.00000000000E+00 -0.00000000000E+00 -0.22325184522E+03  0.22325184522E+03  0.00000000000E+00 0. -1.
         23    2    1    2    0    0 -0.41899476932E+02 -0.50254443075E+02 -0.31726835974E+02  0.12029463807E+03  0.95828662788E+02 0.  0.
          5    1    1    2  502    0  0.57157384334E+02 -0.25990391247E+02 -0.55825745810E+02  0.84149099320E+02  0.47000000000E+01 0. -1.
         -5    1    1    2    0  502 -0.15257907402E+02  0.76244834323E+02 -0.57616536775E+02  0.96890834495E+02  0.47000000000E+01 0. -1.
        -11    1    3    3    0    0 -0.33177744127E+02 -0.67364383933E+02  0.86453405673E+01  0.75587464844E+02  0.00000000000E+00 0.  1.
         11    1    3    3    0    0 -0.87217328048E+01  0.17109940857E+02 -0.40372176541E+02  0.44707173227E+02  0.00000000000E+00 0. -1.
<mgrwt>
<rscale>  0 0.13435972E+03</rscale>
<asrwt>0</asrwt>
<pdfrwt beam="2">  1        1 0.34346437E-01 0.14108971E+03</pdfrwt>
<pdfrwt beam="1">  1       -1 0.12012727E-01 0.14108971E+03</pdfrwt>
<totfact> 0.55809120E+03</totfact>
</mgrwt>
</event>
<event>
 7    1  0.1422977E-005  0.1821324E+03  0.7546771E-02  0.1171721E+00
          2   -1    0    0  501    0  0.00000000000E+00  0.00000000000E+00  0.74013267767E+03  0.74013267767E+03  0.00000000000E+00 0. -1.
         -2   -1    0    0    0  501 -0.00000000000E+00 -0.00000000000E+00 -0.51240154496E+02  0.51240154496E+02  0.00000000000E+00 0.  1.
         23    2    1    2    0    0 -0.11200455696E+03 -0.70730350505E+02  0.13554284075E+03  0.20881977394E+03  0.87670023668E+02 0.  0.
          5    1    1    2  502    0  0.80074817784E+02  0.92869541006E+02  0.50817994568E+03  0.52278645285E+03  0.47000000000E+01 0.  1.
         -5    1    1    2    0  502  0.31929739179E+02 -0.22139190501E+02  0.45169736746E+02  0.59766605372E+02  0.47000000000E+01 0.  1.
        -11    1    3    3    0    0 -0.54766926272E+02  0.11591810694E+02  0.31098906139E+02  0.64038490390E+02  0.00000000000E+00 0.  1.
         11    1    3    3    0    0 -0.57237630690E+02 -0.82322161198E+02  0.10444393461E+03  0.14478128355E+03  0.00000000000E+00 0. -1.
<mgrwt>
<rscale>  0 0.17601036E+03</rscale>
<asrwt>0</asrwt>
<pdfrwt beam="1">  1        2 0.11386656E+00 0.18213235E+03</pdfrwt>
<pdfrwt beam="2">  1       -2 0.78831012E-02 0.18213235E+03</pdfrwt>
<totfact> 0.37335695E+03</totfact>
</mgrwt>
</event>
<event>
 7    1  0.1422977E-005  0.1573457E+03  0.7546771E-02  0.1198753E+00
          1   -1    0    0  501    0  0.00000000000E+00  0.00000000000E+00  0.51054379256E+03  0.51054379256E+03  0.00000000000E+00 0.  1.
         -1   -1    0    0    0  501 -0.00000000000E+00 -0.00000000000E+00 -0.41964532637E+02  0.41964532637E+02  0.00000000000E+00 0. -1.
         23    2    1    2    0    0 -0.94541380527E+02 -0.14138535922E+02  0.20041203612E+03  0.24158820132E+03  0.95194033238E+02 0.  0.
          5    1    1    2  502    0  0.82283631548E+02 -0.45384339408E+02  0.13598784231E+03  0.16536359194E+03  0.47000000000E+01 0. -1.
         -5    1    1    2    0  502  0.12257748979E+02  0.59522875330E+02  0.13217938149E+03  0.14555653194E+03  0.47000000000E+01 0. -1.
        -11    1    3    3    0    0 -0.37677635663E+02  0.36395301261E+02  0.11977753157E+03  0.13073208960E+03  0.00000000000E+00 0.  1.
         11    1    3    3    0    0 -0.56863744864E+02 -0.50533837184E+02  0.80634504553E+02  0.11085611172E+03  0.00000000000E+00 0. -1.
<mgrwt>
<rscale>  0 0.15140830E+03</rscale>
<asrwt>0</asrwt>
<pdfrwt beam="1">  1        1 0.78545194E-01 0.15734568E+03</pdfrwt>
<pdfrwt beam="2">  1       -1 0.64560823E-02 0.15734568E+03</pdfrwt>
<totfact> 0.50991084E+03</totfact>
</mgrwt>
</event>
<event>
 7    1  0.1422977E-005  0.1436356E+03  0.7546771E-02  0.1218893E+00
          2   -1    0    0  501    0  0.00000000000E+00  0.00000000000E+00  0.50720942883E+03  0.50720942883E+03  0.00000000000E+00 0. -1.
         -2   -1    0    0    0  501 -0.00000000000E+00 -0.00000000000E+00 -0.33036942211E+02  0.33036942211E+02  0.00000000000E+00 0.  1.
         23    2    1    2    0    0 -0.70747724017E+02  0.14134628300E+01  0.21286786057E+03  0.24206638635E+03  0.90973463198E+02 0.  0.
          5    1    1    2  502    0 -0.31212752488E+02 -0.18873081919E+02  0.99477072370E+02  0.10605756487E+03  0.47000000000E+01 0.  1.
         -5    1    1    2    0  502  0.10196047650E+03  0.17459619089E+02  0.16182755368E+03  0.19212241982E+03  0.47000000000E+01 0.  1.
        -11    1    3    3    0    0 -0.31829844803E+01 -0.99880243350E+01 -0.64403743367E+01  0.12303269562E+02  0.00000000000E+00 0.  1.
         11    1    3    3    0    0 -0.67564739536E+02  0.11401487165E+02  0.21930823491E+03  0.22976311679E+03  0.00000000000E+00 0. -1.
<mgrwt>
<rscale>  0 0.13594409E+03</rscale>
<asrwt>0</asrwt>
<pdfrwt beam="1">  1        2 0.78032214E-01 0.14363564E+03</pdfrwt>
<pdfrwt beam="2">  1       -2 0.50826068E-02 0.14363564E+03</pdfrwt>
<totfact> 0.11163360E+04</totfact>
</mgrwt>
</event>
<event>
 7    1  0.1422977E-005  0.1328183E+03  0.7546771E-02  0.1235511E+00
          2   -1    0    0  501    0  0.00000000000E+00  0.00000000000E+00  0.20316403390E+03  0.20316403390E+03  0.00000000000E+00 0.  1.
         -2   -1    0    0    0  501 -0.00000000000E+00 -0.00000000000E+00 -0.68858887899E+02  0.68858887899E+02  0.00000000000E+00 0. -1.
         23    2    1    2    0    0 -0.75039816931E+01 -0.44278393150E+02  0.50220011847E+02  0.11482555413E+03  0.92983721429E+02 0.  0.
          5    1    1    2  502    0  0.11165516591E+02  0.21452338582E+02  0.11539459289E+03  0.11799522728E+03  0.47000000000E+01 0.  1.
         -5    1    1    2    0  502 -0.36615348977E+01  0.22826054568E+02 -0.31309458736E+02  0.39202140392E+02  0.47000000000E+01 0.  1.
        -11    1    3    3    0    0 -0.63164794655E+01 -0.29525365643E+02  0.77839491483E+02  0.83490308201E+02  0.00000000000E+00 0.  1.
         11    1    3    3    0    0 -0.11875022277E+01 -0.14753027507E+02 -0.27619479636E+02  0.31335245931E+02  0.00000000000E+00 0. -1.
<mgrwt>
<rscale>  0 0.12471758E+03</rscale>
<asrwt>0</asrwt>
<pdfrwt beam="1">  1        2 0.31256005E-01 0.13281831E+03</pdfrwt>
<pdfrwt beam="2">  1       -2 0.10593675E-01 0.13281831E+03</pdfrwt>
<totfact> 0.95528086E+03</totfact>
</mgrwt>
</event>
<event>
 7    1  0.1422977E-005  0.1646700E+03  0.7546771E-02  0.1191349E+00
         -1   -1    0    0    0  501 -0.00000000000E+00  0.00000000000E+00  0.38932082734E+03  0.38932082734E+03  0.00000000000E+00 0.  1.
          1   -1    0    0  501    0  0.00000000000E+00 -0.00000000000E+00 -0.71417942146E+02  0.71417942146E+02  0.00000000000E+00 0. -1.
         23    2    1    2    0    0  0.66074616623E+02  0.84411435575E+02  0.24338843812E+03  0.27999412799E+03  0.87565029990E+02 0.  0.
          5    1    1    2  502    0 -0.71725666029E+01 -0.84020407574E+02  0.86013311353E+02  0.12054565247E+03  0.47000000000E+01 0. -1.
         -5    1    1    2    0  502 -0.58902050021E+02 -0.39102800112E+00 -0.11498864285E+02  0.60198989023E+02  0.47000000000E+01 0. -1.
        -11    1    3    3    0    0  0.34227183824E+02 -0.12103127424E+02  0.74702772456E+02  0.83057149111E+02  0.00000000000E+00 0.  1.
         11    1    3    3    0    0  0.31847432799E+02  0.96514562999E+02  0.16868566567E+03  0.19693697887E+03  0.00000000000E+00 0. -1.
<mgrwt>
<rscale>  0 0.15767285E+03</rscale>
<asrwt>0</asrwt>
<pdfrwt beam="2">  1        1 0.10987376E-01 0.16467004E+03</pdfrwt>
<pdfrwt beam="1">  1       -1 0.59895511E-01 0.16467004E+03</pdfrwt>
<totfact> 0.16201022E+03</totfact>
</mgrwt>
</event>
<event>
 7    1  0.1422977E-005  0.1468425E+03  0.7546771E-02  0.1214467E+00
          1   -1    0    0  501    0  0.00000000000E+00  0.00000000000E+00  0.56760305332E+03  0.56760305332E+03  0.00000000000E+00 0. -1.
         -1   -1    0    0    0  501 -0.00000000000E+00 -0.00000000000E+00 -0.31394993738E+02  0.31394993738E+02  0.00000000000E+00 0.  1.
         23    2    1    2    0    0 -0.56954046834E+02  0.51896271352E+02  0.20613222503E+03  0.23773253402E+03  0.89940408631E+02 0.  0.
          5    1    1    2  502    0  0.74239763286E+02 -0.32563066354E+02  0.32426258649E+03  0.33427565084E+03  0.47000000000E+01 0.  1.
         -5    1    1    2    0  502 -0.17285716453E+02 -0.19333204998E+02  0.58132480606E+01  0.26989862204E+02  0.47000000000E+01 0.  1.
        -11    1    3    3    0    0 -0.66384451501E+02  0.10313799734E+02  0.16640674847E+03  0.17945605535E+03  0.00000000000E+00 0. -1.
         11    1    3    3    0    0  0.94304046677E+01  0.41582471618E+02  0.39725476561E+02  0.58276478669E+02  0.00000000000E+00 0.  1.
<mgrwt>
<rscale>  0 0.13915747E+03</rscale>
<asrwt>0</asrwt>
<pdfrwt beam="1">  1        1 0.87323539E-01 0.14684248E+03</pdfrwt>
<pdfrwt beam="2">  1       -1 0.48299994E-02 0.14684248E+03</pdfrwt>
<totfact> 0.67988203E+03</totfact>
</mgrwt>
</event>
<event>
 7    1  0.1422977E-005  0.1872501E+03  0.7546771E-02  0.1166089E+00
         -4   -1    0    0    0  501 -0.00000000000E+00  0.00000000000E+00  0.80154018140E+03  0.80154018140E+03  0.00000000000E+00 0.  1.
          4   -1    0    0  501    0  0.00000000000E+00 -0.00000000000E+00 -0.53921920806E+02  0.53921920806E+02  0.00000000000E+00 0. -1.
         23    2    1    2    0    0 -0.76551938299E+02 -0.11652024558E+03  0.58259948603E+03  0.60587487964E+03  0.90692016010E+02 0.  0.
          5    1    1    2  502    0  0.27361881415E+02  0.12027415554E+03  0.68698263104E+02  0.14126601290E+03  0.47000000000E+01 0. -1.
         -5    1    1    2    0  502  0.49190056884E+02 -0.37539099614E+01  0.96320511461E+02  0.10832120967E+03  0.47000000000E+01 0. -1.
        -11    1    3    3    0    0 -0.67139147752E+02 -0.11216751085E+03  0.58082406663E+03  0.59535351853E+03  0.00000000000E+00 0.  1.
         11    1    3    3    0    0 -0.94127905472E+01 -0.43527347304E+01  0.17754194001E+01  0.10521361108E+02  0.00000000000E+00 0. -1.
<mgrwt>
<rscale>  0 0.18178261E+03</rscale>
<asrwt>0</asrwt>
<pdfrwt beam="2">  1        4 0.82956807E-02 0.18725006E+03</pdfrwt>
<pdfrwt beam="1">  1       -4 0.12331387E+00 0.18725006E+03</pdfrwt>
<totfact> 0.95034505E+01</totfact>
</mgrwt>
</event>
<event>
 7    1  0.1422977E-005  0.1403162E+03  0.7546771E-02  0.1223339E+00
          1   -1    0    0  501    0  0.00000000000E+00  0.00000000000E+00  0.95684663076E+02  0.95684663076E+02  0.00000000000E+00 0. -1.
         -1   -1    0    0    0  501 -0.00000000000E+00 -0.00000000000E+00 -0.17058735588E+03  0.17058735588E+03  0.00000000000E+00 0.  1.
         23    2    1    2    0    0  0.90130982172E+01 -0.63089712676E+02 -0.52175422933E+02  0.12412716515E+03  0.92864043552E+02 0.  0.
          5    1    1    2  502    0  0.40094419599E+02  0.21352059386E+02 -0.53694263368E+02  0.70488558232E+02  0.47000000000E+01 0.  1.
         -5    1    1    2    0  502 -0.49107517816E+02  0.41737653290E+02  0.30966993501E+02  0.71656295569E+02  0.47000000000E+01 0.  1.
        -11    1    3    3    0    0  0.26382824344E+02 -0.27170307823E+02 -0.70648679997E+02  0.80159310332E+02  0.00000000000E+00 0.  1.
         11    1    3    3    0    0 -0.17369726127E+02 -0.35919404853E+02  0.18473257064E+02  0.43967854818E+02  0.00000000000E+00 0. -1.
<mgrwt>
<rscale>  0 0.13281384E+03</rscale>
<asrwt>0</asrwt>
<pdfrwt beam="1">  1        1 0.14720717E-01 0.14031618E+03</pdfrwt>
<pdfrwt beam="2">  1       -1 0.26244208E-01 0.14031618E+03</pdfrwt>
<totfact> 0.46935779E+03</totfact>
</mgrwt>
</event>
<event>
 7    1  0.1422977E-005  0.1270948E+03  0.7546771E-02  0.1249230E+00
         -1   -1    0    0    0  501 -0.00000000000E+00  0.00000000000E+00  0.60062558615E+02  0.60062558615E+02  0.00000000000E+00 0.  1.
          1   -1    0    0  501    0  0.00000000000E+00 -0.00000000000E+00 -0.21714824848E+03  0.21714824848E+03  0.00000000000E+00 0. -1.
         23    2    1    2    0    0  0.18093664970E+02 -0.15326972304E+02 -0.22460198829E+02  0.92070033140E+02  0.86082133332E+02 0.  0.
          5    1    1    2  502    0  0.12114790977E+02 -0.47187977270E+02 -0.24159701498E+02  0.54582547904E+02  0.47000000000E+01 0. -1.
         -5    1    1    2    0  502 -0.30208455947E+02  0.62514949573E+02 -0.11046578953E+03  0.13055822605E+03  0.47000000000E+01 0. -1.
        -11    1    3    3    0    0  0.26607265304E+02 -0.48152840225E+02 -0.17895174311E+02  0.57852224264E+02  0.00000000000E+00 0. -1.
         11    1    3    3    0    0 -0.85136003337E+01  0.32825867921E+02 -0.45650245175E+01  0.34217808876E+02  0.00000000000E+00 0.  1.
<mgrwt>
<rscale>  0 0.11635757E+03</rscale>
<asrwt>0</asrwt>
<pdfrwt beam="2">  1        1 0.33407423E-01 0.12709478E+03</pdfrwt>
<pdfrwt beam="1">  1       -1 0.92403935E-02 0.12709478E+03</pdfrwt>
<totfact> 0.85686268E+03</totfact>
</mgrwt>
</event>
<event>
 7    1  0.1422977E-005  0.1752517E+03  0.7546771E-02  0.1178373E+00
          1   -1    0    0  501    0  0.00000000000E+00  0.00000000000E+00  0.74894433097E+02  0.74894433097E+02  0.00000000000E+00 0. -1.
         -1   -1    0    0    0  501 -0.00000000000E+00 -0.00000000000E+00 -0.37557377071E+03  0.37557377071E+03  0.00000000000E+00 0.  1.
         23    2    1    2    0    0  0.12265663050E+03  0.67436631493E+01 -0.18585976290E+03  0.24095280651E+03  0.91783862957E+02 0.  0.
          5    1    1    2  502    0 -0.13060969002E+03  0.31562682943E+02 -0.77211830738E+02  0.15504467385E+03  0.47000000000E+01 0.  1.
         -5    1    1    2    0  502  0.79530595237E+01 -0.38306346092E+02 -0.37607743968E+02  0.54470723449E+02  0.47000000000E+01 0.  1.
        -11    1    3    3    0    0  0.81078338895E+02 -0.12579115631E+02 -0.17581328071E+03  0.19401608403E+03  0.00000000000E+00 0.  1.
         11    1    3    3    0    0  0.41578291603E+02  0.19322778781E+02 -0.10046482193E+02  0.46936722477E+02  0.00000000000E+00 0. -1.
<mgrwt>
<rscale>  0 0.16949757E+03</rscale>
<asrwt>0</asrwt>
<pdfrwt beam="1">  1        1 0.11522220E-01 0.17525172E+03</pdfrwt>
<pdfrwt beam="2">  1       -1 0.57780581E-01 0.17525172E+03</pdfrwt>
<totfact> 0.16320817E+03</totfact>
</mgrwt>
</event>
<event>
 7    1  0.1422977E-005  0.1387104E+03  0.7546771E-02  0.1226599E+00
         -2   -1    0    0    0  501 -0.00000000000E+00  0.00000000000E+00  0.74306397960E+03  0.74306397960E+03  0.00000000000E+00 0. -1.
          2   -1    0    0  501    0  0.00000000000E+00 -0.00000000000E+00 -0.31114536850E+02  0.31114536850E+02  0.00000000000E+00 0.  1.
         23    2    1    2    0    0  0.44901985405E+02 -0.39984994546E+02  0.55117413107E+03  0.56183613714E+03  0.90840157197E+02 0.  0.
          5    1    1    2  502    0  0.39334796990E+02  0.35580132080E+02  0.74691647920E+02  0.91728427012E+02  0.47000000000E+01 0. -1.
         -5    1    1    2    0  502 -0.84236782396E+02  0.44048624661E+01  0.86083663767E+02  0.12061395230E+03  0.47000000000E+01 0. -1.
        -11    1    3    3    0    0  0.33889530018E+01  0.27381343901E+02  0.98196744696E+02  0.10199913561E+03  0.00000000000E+00 0.  1.
         11    1    3    3    0    0  0.41513032404E+02 -0.67366338447E+02  0.45297738637E+03  0.45983700153E+03  0.00000000000E+00 0. -1.
<mgrwt>
<rscale>  0 0.13057923E+03</rscale>
<asrwt>0</asrwt>
<pdfrwt beam="2">  1        2 0.47868524E-02 0.13871044E+03</pdfrwt>
<pdfrwt beam="1">  1       -2 0.11431752E+00 0.13871044E+03</pdfrwt>
<totfact> 0.10102827E+03</totfact>
</mgrwt>
</event>
<event>
 7    1  0.1422977E-005  0.2059995E+03  0.7546771E-02  0.1148789E+00
         -1   -1    0    0    0  501 -0.00000000000E+00  0.00000000000E+00  0.71317749049E+02  0.71317749049E+02  0.00000000000E+00 0.  1.
          1   -1    0    0  501    0  0.00000000000E+00 -0.00000000000E+00 -0.56775856445E+03  0.56775856445E+03  0.00000000000E+00 0. -1.
         23    2    1    2    0    0  0.44006076776E+02 -0.15772186024E+03 -0.16886324252E+03  0.25211009919E+03  0.90730300612E+02 0.  0.
          5    1    1    2  502    0  0.31032647083E+02  0.70645937903E+02 -0.20386012588E+03  0.21802503217E+03  0.47000000000E+01 0. -1.
         -5    1    1    2    0  502 -0.75038723859E+02  0.87075922342E+02 -0.12371744700E+03  0.16894118214E+03  0.47000000000E+01 0. -1.
        -11    1    3    3    0    0  0.68434303814E+02 -0.13153360766E+03 -0.15262432417E+03  0.21278751893E+03  0.00000000000E+00 0. -1.
         11    1    3    3    0    0 -0.24428227038E+02 -0.26188252582E+02 -0.16238918348E+02  0.39322580264E+02  0.00000000000E+00 0.  1.
<mgrwt>
<rscale>  0 0.20113025E+03</rscale>
<asrwt>0</asrwt>
<pdfrwt beam="2">  1        1 0.87347471E-01 0.20599948E+03</pdfrwt>
<pdfrwt beam="1">  1       -1 0.10971961E-01 0.20599948E+03</pdfrwt>
<totfact> 0.19898680E+03</totfact>
</mgrwt>
</event>
<event>
 7    1  0.1422977E-005  0.1441894E+03  0.7546771E-02  0.1218528E+00
         -2   -1    0    0    0  501 -0.00000000000E+00  0.00000000000E+00  0.14233382923E+03  0.14233382923E+03  0.00000000000E+00 0.  1.
          2   -1    0    0  501    0  0.00000000000E+00 -0.00000000000E+00 -0.12316664220E+03  0.12316664220E+03  0.00000000000E+00 0. -1.
         23    2    1    2    0    0  0.41234944665E+02 -0.58864891286E+02 -0.18937966744E+02  0.11636102842E+03  0.89531258578E+02 0.  0.
          5    1    1    2  502    0  0.30719880527E+02 -0.13994392693E+02  0.31512949295E+02  0.46418854571E+02  0.47000000000E+01 0. -1.
         -5    1    1    2    0  502 -0.71954825192E+02  0.72859283980E+02  0.65922044813E+01  0.10272058844E+03  0.47000000000E+01 0. -1.
        -11    1    3    3    0    0  0.62944664845E+02 -0.66271885849E+02 -0.10866503246E+02  0.92043873122E+02  0.00000000000E+00 0.  1.
         11    1    3    3    0    0 -0.21709720180E+02  0.74069945630E+01 -0.80714634975E+01  0.24317155297E+02  0.00000000000E+00 0. -1.
<mgrwt>
<rscale>  0 0.13620544E+03</rscale>
<asrwt>0</asrwt>
<pdfrwt beam="2">  1        2 0.18948714E-01 0.14418936E+03</pdfrwt>
<pdfrwt beam="1">  1       -2 0.21897512E-01 0.14418936E+03</pdfrwt>
<totfact> 0.50815756E+03</totfact>
</mgrwt>
</event>
<event>
 7    1  0.1422977E-005  0.1345304E+03  0.7546771E-02  0.1223997E+00
          1   -1    0    0  501    0  0.00000000000E+00  0.00000000000E+00  0.65225496019E+03  0.65225496019E+03  0.00000000000E+00 0. -1.
         -1   -1    0    0    0  501 -0.00000000000E+00 -0.00000000000E+00 -0.28376137228E+02  0.28376137228E+02  0.00000000000E+00 0.  1.
         23    2    1    2    0    0 -0.49626928321E+02  0.31075567074E+01  0.20474581090E+03  0.24043692940E+03  0.11582996597E+03 0.  0.
          5    1    1    2  502    0 -0.39222508300E+02 -0.17307433423E+02  0.16573487641E+03  0.17125446467E+03  0.47000000000E+01 0.  1.
         -5    1    1    2    0  502  0.88849436621E+02  0.14199876716E+02  0.25339813565E+03  0.26893970335E+03  0.47000000000E+01 0.  1.
        -11    1    3    3    0    0 -0.60241940034E+02 -0.26765097684E+02  0.19709164697E+03  0.20782343251E+03  0.00000000000E+00 0. -1.
         11    1    3    3    0    0  0.10615011712E+02  0.29872654392E+02  0.76541639232E+01  0.32613496891E+02  0.00000000000E+00 0.  1.
<mgrwt>
<rscale>  0 0.13235873E+03</rscale>
<asrwt>0</asrwt>
<pdfrwt beam="1">  1        1 0.10034691E+00 0.13453038E+03</pdfrwt>
<pdfrwt beam="2">  1       -1 0.43655601E-02 0.13453038E+03</pdfrwt>
<totfact> 0.64939069E+03</totfact>
</mgrwt>
</event>
<event>
 7    1  0.1422977E-005  0.1391540E+03  0.7546771E-02  0.1225198E+00
          1   -1    0    0  501    0  0.00000000000E+00  0.00000000000E+00  0.45882133757E+03  0.45882133757E+03  0.00000000000E+00 0. -1.
         -1   -1    0    0    0  501 -0.00000000000E+00 -0.00000000000E+00 -0.39521641982E+02  0.39521641982E+02  0.00000000000E+00 0.  1.
         23    2    1    2    0    0  0.18673025574E+02  0.58237109908E+02  0.97728166934E+02  0.14795449760E+03  0.92733466947E+02 0.  0.
          5    1    1    2  502    0 -0.56962537497E+02 -0.25512903765E+02  0.27361468574E+03  0.28068260578E+03  0.47000000000E+01 0. -1.
         -5    1    1    2    0  502  0.38289511924E+02 -0.32724206144E+02  0.47956842921E+02  0.69705876180E+02  0.47000000000E+01 0. -1.
        -11    1    3    3    0    0 -0.26401401129E+02  0.46699936368E+02  0.83594705236E+02  0.99327704000E+02  0.00000000000E+00 0. -1.
         11    1    3    3    0    0  0.45074426703E+02  0.11537173540E+02  0.14133461698E+02  0.48626793596E+02  0.00000000000E+00 0.  1.
<mgrwt>
<rscale>  0 0.13153310E+03</rscale>
<asrwt>0</asrwt>
<pdfrwt beam="1">  1        1 0.70587894E-01 0.13915402E+03</pdfrwt>
<pdfrwt beam="2">  1       -1 0.60802529E-02 0.13915402E+03</pdfrwt>
<totfact> 0.63662491E+03</totfact>
</mgrwt>
</event>
<event>
 7    1  0.1422977E-005  0.1532484E+03  0.7546771E-02  0.1203320E+00
         -2   -1    0    0    0  501 -0.00000000000E+00  0.00000000000E+00  0.25037630017E+03  0.25037630017E+03  0.00000000000E+00 0.  1.
          2   -1    0    0  501    0  0.00000000000E+00 -0.00000000000E+00 -0.82268932647E+02  0.82268932647E+02  0.00000000000E+00 0. -1.
         23    2    1    2    0    0  0.42123776981E+02 -0.78045678561E+02  0.95096498584E+02  0.16289343913E+03  0.98109061446E+02 0.  0.
          5    1    1    2  502    0 -0.49941967305E+02  0.68671627069E+02 -0.10080676718E+02  0.85637039333E+02  0.47000000000E+01 0.  1.
         -5    1    1    2    0  502  0.78181903238E+01  0.93740514924E+01  0.83091545656E+02  0.84114754358E+02  0.47000000000E+01 0.  1.
        -11    1    3    3    0    0  0.82100416929E+01 -0.22876417236E+02  0.95076496670E+02  0.98133966950E+02  0.00000000000E+00 0.  1.
         11    1    3    3    0    0  0.33913735288E+02 -0.55169261325E+02  0.20001913933E-01  0.64759472175E+02  0.00000000000E+00 0. -1.
<mgrwt>
<rscale>  0 0.14770618E+03</rscale>
<asrwt>0</asrwt>
<pdfrwt beam="2">  1        2 0.12656759E-01 0.15324844E+03</pdfrwt>
<pdfrwt beam="1">  1       -2 0.38519430E-01 0.15324844E+03</pdfrwt>
<totfact> 0.29674160E+03</totfact>
</mgrwt>
</event>
<event>
 7    1  0.1422977E-005  0.1973430E+03  0.7546771E-02  0.1156662E+00
          3   -1    0    0  501    0  0.00000000000E+00  0.00000000000E+00  0.30148404435E+03  0.30148404435E+03  0.00000000000E+00 0. -1.
         -3   -1    0    0    0  501 -0.00000000000E+00 -0.00000000000E+00 -0.11762119911E+03  0.11762119911E+03  0.00000000000E+00 0.  1.
         23    2    1    2    0    0  0.15111903590E+03 -0.15386838106E+01  0.63273082280E+02  0.18783449305E+03  0.91863938936E+02 0.  0.
          5    1    1    2  502    0 -0.91886151319E+02  0.29028844158E+02  0.13332822029E+03  0.16457291066E+03  0.47000000000E+01 0. -1.
         -5    1    1    2    0  502 -0.59232884584E+02 -0.27490160347E+02 -0.12738457327E+02  0.66697839749E+02  0.47000000000E+01 0.  1.
        -11    1    3    3    0    0  0.10442393362E+03 -0.72181127569E+01 -0.51525284580E+01  0.10479984549E+03  0.00000000000E+00 0.  1.
         11    1    3    3    0    0  0.46695102280E+02  0.56794289462E+01  0.68425610738E+02  0.83034647557E+02  0.00000000000E+00 0. -1.
<mgrwt>
<rscale>  0 0.19200907E+03</rscale>
<asrwt>0</asrwt>
<pdfrwt beam="1">  1        3 0.46382160E-01 0.19734302E+03</pdfrwt>
<pdfrwt beam="2">  1       -3 0.18095569E-01 0.19734302E+03</pdfrwt>
<totfact> 0.30329400E+02</totfact>
</mgrwt>
</event>
<event>
 7    1  0.1422977E-005  0.2641441E+03  0.7546771E-02  0.1104679E+00
          1   -1    0    0  501    0  0.00000000000E+00  0.00000000000E+00  0.32528446401E+03  0.32528446401E+03  0.00000000000E+00 0. -1.
         -1   -1    0    0    0  501 -0.00000000000E+00 -0.00000000000E+00 -0.53623918811E+02  0.53623918811E+02  0.00000000000E+00 0.  1.
         23    2    1    2    0    0 -0.63335469834E+02 -0.20909255401E+02  0.72893922374E+02  0.13481149425E+03  0.91717154138E+02 0.  0.
          5    1    1    2  502    0  0.29426593500E+02  0.77287749759E+01 -0.98164759659E+01  0.32312715269E+02  0.47000000000E+01 0.  1.
         -5    1    1    2    0  502  0.33908876334E+02  0.13180480425E+02  0.20858309879E+03  0.21178417329E+03  0.47000000000E+01 0.  1.
        -11    1    3    3    0    0 -0.47794604875E+02  0.27291095537E+02  0.13331385420E+02  0.56629091358E+02  0.00000000000E+00 0.  1.
         11    1    3    3    0    0 -0.15540864959E+02 -0.48200350937E+02  0.59562536954E+02  0.78182402896E+02  0.00000000000E+00 0. -1.
<mgrwt>
<rscale>  0 0.26414411E+03</rscale>
<asrwt>0</asrwt>
<pdfrwt beam="1">  1        1 0.50043762E-01 0.26414411E+03</pdfrwt>
<pdfrwt beam="2">  1       -1 0.82498339E-02 0.26414411E+03</pdfrwt>
<totfact> 0.64336167E+03</totfact>
</mgrwt>
</event>
<event>
 7    1  0.1422977E-005  0.1278974E+03  0.7546771E-02  0.1246516E+00
          2   -1    0    0  501    0  0.00000000000E+00  0.00000000000E+00  0.24917902518E+03  0.24917902518E+03  0.00000000000E+00 0. -1.
         -2   -1    0    0    0  501 -0.00000000000E+00 -0.00000000000E+00 -0.52456677345E+02  0.52456677345E+02  0.00000000000E+00 0.  1.
         23    2    1    2    0    0  0.37304321054E+00  0.27061364614E+02  0.44041362759E+02  0.10246437003E+03  0.88469479914E+02 0.  0.
          5    1    1    2  502    0 -0.92064613828E+01  0.46293787882E+02  0.91755938660E+02  0.10329141304E+03  0.47000000000E+01 0.  1.
         -5    1    1    2    0  502  0.88334181722E+01 -0.73355152497E+02  0.60925046420E+02  0.95879919461E+02  0.47000000000E+01 0.  1.
        -11    1    3    3    0    0  0.32932898408E+01  0.55612270519E+02  0.78274453666E+01  0.56256904387E+02  0.00000000000E+00 0.  1.
         11    1    3    3    0    0 -0.29202466303E+01 -0.28550905905E+02  0.36213917393E+02  0.46207465644E+02  0.00000000000E+00 0. -1.
<mgrwt>
<rscale>  0 0.11795083E+03</rscale>
<asrwt>0</asrwt>
<pdfrwt beam="1">  1        2 0.38335234E-01 0.12789737E+03</pdfrwt>
<pdfrwt beam="2">  1       -2 0.80702582E-02 0.12789737E+03</pdfrwt>
<totfact> 0.11700067E+04</totfact>
</mgrwt>
</event>
<event>
 7    1  0.1422977E-005  0.2266145E+03  0.7546771E-02  0.1132101E+00
         -1   -1    0    0    0  501 -0.00000000000E+00  0.00000000000E+00  0.39181948276E+02  0.39181948276E+02  0.00000000000E+00 0.  1.
          1   -1    0    0  501    0  0.00000000000E+00 -0.00000000000E+00 -0.12350350063E+04  0.12350350063E+04  0.00000000000E+00 0. -1.
         23    2    1    2    0    0  0.18012954716E+03 -0.57297089448E+02 -0.50041424013E+03  0.54278734202E+03  0.92054748488E+02 0.  0.
          5    1    1    2  502    0 -0.17986029825E+03  0.82917847537E+02 -0.57392419104E+03  0.60715415125E+03  0.47000000000E+01 0. -1.
         -5    1    1    2    0  502 -0.26924891058E+00 -0.25620758089E+02 -0.12151462688E+03  0.12427546132E+03  0.47000000000E+01 0. -1.
        -11    1    3    3    0    0  0.93475393519E+02  0.85012597583E+01 -0.16102552255E+03  0.18638438648E+03  0.00000000000E+00 0.  1.
         11    1    3    3    0    0  0.86654153643E+02 -0.65798349206E+02 -0.33938871757E+03  0.35640295554E+03  0.00000000000E+00 0. -1.
<mgrwt>
<rscale>  0 0.22240681E+03</rscale>
<asrwt>0</asrwt>
<pdfrwt beam="2">  1        1 0.19000544E+00 0.22661449E+03</pdfrwt>
<pdfrwt beam="1">  1       -1 0.60279904E-02 0.22661449E+03</pdfrwt>
<totfact> 0.14374047E+03</totfact>
</mgrwt>
</event>
<event>
 7    1  0.1422977E-005  0.1448790E+03  0.7546771E-02  0.1215408E+00
          2   -1    0    0  501    0  0.00000000000E+00  0.00000000000E+00  0.18479005090E+03  0.18479005090E+03  0.00000000000E+00 0.  1.
         -2   -1    0    0    0  501 -0.00000000000E+00 -0.00000000000E+00 -0.95569594995E+02  0.95569594995E+02  0.00000000000E+00 0. -1.
         23    2    1    2    0    0 -0.51833105515E+01 -0.73055056253E+02  0.38693111257E+02  0.12692259401E+03  0.96167978347E+02 0.  0.
          5    1    1    2  502    0 -0.25093459900E+02  0.87724409502E+02 -0.14127192296E+01  0.91374720398E+02  0.47000000000E+01 0. -1.
         -5    1    1    2    0  502  0.30276770452E+02 -0.14669353250E+02  0.51940063874E+02  0.62062331482E+02  0.47000000000E+01 0. -1.
        -11    1    3    3    0    0  0.44906088521E+02 -0.30118648525E+02  0.10038682444E+02  0.54995135426E+02  0.00000000000E+00 0.  1.
         11    1    3    3    0    0 -0.50089399073E+02 -0.42936407728E+02  0.28654428813E+02  0.71927458586E+02  0.00000000000E+00 0. -1.
<mgrwt>
<rscale>  0 0.13846609E+03</rscale>
<asrwt>0</asrwt>
<pdfrwt beam="1">  1        2 0.28429239E-01 0.14487897E+03</pdfrwt>
<pdfrwt beam="2">  1       -2 0.14703015E-01 0.14487897E+03</pdfrwt>
<totfact> 0.62956506E+03</totfact>
</mgrwt>
</event>
<event>
 7    1  0.1422977E-005  0.1277799E+03  0.7546771E-02  0.1244661E+00
          2   -1    0    0  501    0  0.00000000000E+00  0.00000000000E+00  0.22540599168E+03  0.22540599168E+03  0.00000000000E+00 0. -1.
         -2   -1    0    0    0  501 -0.00000000000E+00 -0.00000000000E+00 -0.59696299771E+02  0.59696299771E+02  0.00000000000E+00 0.  1.
         23    2    1    2    0    0 -0.25595701794E+02  0.69797246688E+01  0.35411068872E+02  0.10260455494E+03  0.92573724069E+02 0.  0.
          5    1    1    2  502    0 -0.14578839133E+01  0.57472991913E+02  0.61070294422E+02  0.84005601514E+02  0.47000000000E+01 0. -1.
         -5    1    1    2    0  502  0.27053585707E+02 -0.64452716581E+02  0.69228328618E+02  0.98492135004E+02  0.47000000000E+01 0. -1.
        -11    1    3    3    0    0 -0.17984335930E+02  0.49724283121E+02  0.18841220307E+02  0.56133165360E+02  0.00000000000E+00 0.  1.
         11    1    3    3    0    0 -0.76113658641E+01 -0.42744558452E+02  0.16569848565E+02  0.46471389575E+02  0.00000000000E+00 0. -1.
<mgrwt>
<rscale>  0 0.11905667E+03</rscale>
<asrwt>0</asrwt>
<pdfrwt beam="1">  1        2 0.34677844E-01 0.12777986E+03</pdfrwt>
<pdfrwt beam="2">  1       -2 0.91840462E-02 0.12777986E+03</pdfrwt>
<totfact> 0.10655190E+04</totfact>
</mgrwt>
</event>
<event>
 7    1  0.1422977E-005  0.1938110E+03  0.7546771E-02  0.1178169E+00
         -2   -1    0    0    0  501 -0.00000000000E+00  0.00000000000E+00  0.53004890487E+02  0.53004890487E+02  0.00000000000E+00 0.  1.
          2   -1    0    0  501    0  0.00000000000E+00 -0.00000000000E+00 -0.62193963089E+03  0.62193963089E+03  0.00000000000E+00 0. -1.
         23    2    1    2    0    0 -0.13952251746E+02 -0.66412684232E+02 -0.56616629697E+02  0.12719224213E+03  0.91471928723E+02 0.  0.
          5    1    1    2  502    0 -0.82804339297E+02  0.45899927081E+02 -0.24983145068E+03  0.26721004035E+03  0.47000000000E+01 0. -1.
         -5    1    1    2    0  502  0.96756591043E+02  0.20512757151E+02 -0.26248666003E+03  0.28054223890E+03  0.47000000000E+01 0.  1.
        -11    1    3    3    0    0 -0.31973475326E+02 -0.81852112026E+01 -0.57425569596E+02  0.66234408356E+02  0.00000000000E+00 0. -1.
         11    1    3    3    0    0  0.18021223581E+02 -0.58227473029E+02  0.80893989892E+00  0.60957833774E+02  0.00000000000E+00 0.  1.
<mgrwt>
<rscale>  0 0.16969205E+03</rscale>
<asrwt>0</asrwt>
<pdfrwt beam="2">  1        2 0.95683025E-01 0.19381102E+03</pdfrwt>
<pdfrwt beam="1">  1       -2 0.81545982E-02 0.19381102E+03</pdfrwt>
<totfact> 0.43679851E+03</totfact>
</mgrwt>
</event>
<event>
 7    1  0.1422977E-005  0.1992056E+03  0.7546771E-02  0.1154729E+00
         -2   -1    0    0    0  501 -0.00000000000E+00  0.00000000000E+00  0.31800206618E+02  0.31800206618E+02  0.00000000000E+00 0.  1.
          2   -1    0    0  501    0  0.00000000000E+00 -0.00000000000E+00 -0.12877921688E+04  0.12877921688E+04  0.00000000000E+00 0. -1.
         23    2    1    2    0    0  0.15240136510E+03  0.28832210661E+02 -0.36923692706E+03  0.41073740382E+03  0.91169260900E+02 0.  0.
          5    1    1    2  502    0 -0.13110876315E+03 -0.60442258917E+02 -0.81268504471E+03  0.82542222307E+03  0.47000000000E+01 0.  1.
         -5    1    1    2    0  502 -0.21292601952E+02  0.31610048255E+02 -0.74069990413E+02  0.83432748536E+02  0.47000000000E+01 0.  1.
        -11    1    3    3    0    0  0.10952799197E+03 -0.22392372163E+02 -0.25451386621E+03  0.27798400574E+03  0.00000000000E+00 0.  1.
         11    1    3    3    0    0  0.42873373131E+02  0.51224582824E+02 -0.11472306085E+03  0.13275339808E+03  0.00000000000E+00 0. -1.
<mgrwt>
<rscale>  0 0.19419713E+03</rscale>
<asrwt>0</asrwt>
<pdfrwt beam="2">  1        2 0.19812184E+00 0.19920559E+03</pdfrwt>
<pdfrwt beam="1">  1       -2 0.48923403E-02 0.19920559E+03</pdfrwt>
<totfact> 0.35903350E+03</totfact>
</mgrwt>
</event>
<event>
 7    1  0.1422977E-005  0.1473202E+03  0.7546771E-02  0.1210557E+00
         -1   -1    0    0    0  501 -0.00000000000E+00  0.00000000000E+00  0.19068606208E+02  0.19068606208E+02  0.00000000000E+00 0.  1.
          1   -1    0    0  501    0  0.00000000000E+00 -0.00000000000E+00 -0.10746240662E+04  0.10746240662E+04  0.00000000000E+00 0. -1.
         23    2    1    2    0    0 -0.56276198731E+01 -0.77760827978E+02 -0.33939408266E+03  0.36253580055E+03  0.10082384073E+03 0.  0.
          5    1    1    2  502    0 -0.41084552145E+02  0.22408097603E+02 -0.51783280015E+03  0.51996438548E+03  0.47000000000E+01 0. -1.
         -5    1    1    2    0  502  0.46712172018E+02  0.55352730375E+02 -0.19832857717E+03  0.21119248637E+03  0.47000000000E+01 0. -1.
        -11    1    3    3    0    0  0.43455805550E+02 -0.61310831900E+02 -0.21701577015E+03  0.22965902908E+03  0.00000000000E+00 0. -1.
         11    1    3    3    0    0 -0.49083425423E+02 -0.16449996078E+02 -0.12237831251E+03  0.13287677146E+03  0.00000000000E+00 0.  1.
<mgrwt>
<rscale>  0 0.14208001E+03</rscale>
<asrwt>0</asrwt>
<pdfrwt beam="2">  1        1 0.16532681E+00 0.14732024E+03</pdfrwt>
<pdfrwt beam="1">  1       -1 0.29336312E-02 0.14732024E+03</pdfrwt>
<totfact> 0.53762964E+03</totfact>
</mgrwt>
</event>
<event>
 7    1  0.1422977E-005  0.1299272E+03  0.7546771E-02  0.1238803E+00
          3   -1    0    0  501    0  0.00000000000E+00  0.00000000000E+00  0.99878442898E+03  0.99878442898E+03  0.00000000000E+00 0. -1.
         -3   -1    0    0    0  501 -0.00000000000E+00 -0.00000000000E+00 -0.23352172004E+02  0.23352172004E+02  0.00000000000E+00 0.  1.
         23    2    1    2    0    0 -0.23641680881E+02 -0.38886796705E+02  0.12603534670E+03  0.16286005581E+03  0.92560127099E+02 0.  0.
          5    1    1    2  502    0 -0.81275507279E+01  0.76135646429E+02  0.40809206001E+03  0.41523958527E+03  0.47000000000E+01 0. -1.
         -5    1    1    2    0  502  0.31769231609E+02 -0.37248849723E+02  0.44130485027E+03  0.44403695990E+03  0.47000000000E+01 0.  1.
        -11    1    3    3    0    0  0.28916128915E+01 -0.21382488630E+02 -0.95517027308E+01  0.23596763977E+02  0.00000000000E+00 0.  1.
         11    1    3    3    0    0 -0.26533293773E+02 -0.17504308075E+02  0.13558704943E+03  0.13926329183E+03  0.00000000000E+00 0. -1.
<mgrwt>
<rscale>  0 0.12264080E+03</rscale>
<asrwt>0</asrwt>
<pdfrwt beam="1">  1        3 0.15365911E+00 0.12992717E+03</pdfrwt>
<pdfrwt beam="2">  1       -3 0.35926426E-02 0.12992717E+03</pdfrwt>
<totfact> 0.28897998E+02</totfact>
</mgrwt>
</event>
<event>
 7    1  0.1422977E-005  0.1807647E+03  0.7546771E-02  0.1170352E+00
         -2   -1    0    0    0  501 -0.00000000000E+00  0.00000000000E+00  0.86227978336E+02  0.86227978336E+02  0.00000000000E+00 0.  1.
          2   -1    0    0  501    0  0.00000000000E+00 -0.00000000000E+00 -0.36089236675E+03  0.36089236675E+03  0.00000000000E+00 0. -1.
         23    2    1    2    0    0 -0.12046715661E+03 -0.72042524102E+02 -0.97106934533E+02  0.19373814868E+03  0.91663801016E+02 0.  0.
          5    1    1    2  502    0  0.18654665836E+02 -0.13560799143E+02  0.81450770087E+01  0.24906306637E+02  0.47000000000E+01 0. -1.
         -5    1    1    2    0  502  0.10181249078E+03  0.85603323245E+02 -0.18570253089E+03  0.22847588978E+03  0.47000000000E+01 0.  1.
        -11    1    3    3    0    0 -0.56069205107E+02 -0.23494579053E+02  0.79343505744E+01  0.61308277788E+02  0.00000000000E+00 0.  1.
         11    1    3    3    0    0 -0.64397951506E+02 -0.48547945049E+02 -0.10504128511E+03  0.13242987089E+03  0.00000000000E+00 0. -1.
<mgrwt>
<rscale>  0 0.17739144E+03</rscale>
<asrwt>0</asrwt>
<pdfrwt beam="2">  1        2 0.55521903E-01 0.18076473E+03</pdfrwt>
<pdfrwt beam="1">  1       -2 0.13265843E-01 0.18076473E+03</pdfrwt>
<totfact> 0.36716804E+03</totfact>
</mgrwt>
</event>
<event>
 7    1  0.1422977E-005  0.1217409E+03  0.7546771E-02  0.1252085E+00
         -1   -1    0    0    0  501 -0.00000000000E+00  0.00000000000E+00  0.16331893521E+03  0.16331893521E+03  0.00000000000E+00 0.  1.
          1   -1    0    0  501    0  0.00000000000E+00 -0.00000000000E+00 -0.72792003810E+02  0.72792003810E+02  0.00000000000E+00 0. -1.
         23    2    1    2    0    0  0.39046458863E+02  0.20974803446E+02  0.46638910837E+02  0.10670070579E+03  0.85119235682E+02 0.  0.
          5    1    1    2  502    0  0.24337575623E+02 -0.39501814255E+02 -0.52985690907E+01  0.46934803196E+02  0.47000000000E+01 0. -1.
         -5    1    1    2    0  502 -0.63384034486E+02  0.18527010809E+02  0.49186589655E+02  0.82475430033E+02  0.47000000000E+01 0.  1.
        -11    1    3    3    0    0  0.59102636106E+02  0.24080424001E+02  0.55479725766E+02  0.84563516873E+02  0.00000000000E+00 0. -1.
         11    1    3    3    0    0 -0.20056177243E+02 -0.31056205558E+01 -0.88408149290E+01  0.22137188919E+02  0.00000000000E+00 0.  1.
<mgrwt>
<rscale>  0 0.11471204E+03</rscale>
<asrwt>0</asrwt>
<pdfrwt beam="2">  1        1 0.11198770E-01 0.12174091E+03</pdfrwt>
<pdfrwt beam="1">  1       -1 0.25125990E-01 0.12174091E+03</pdfrwt>
<totfact> 0.71344484E+03</totfact>
</mgrwt>
</event>
<event>
 7    1  0.1422977E-005  0.2411194E+03  0.7546771E-02  0.1150361E+00
         -2   -1    0    0    0  501 -0.00000000000E+00  0.00000000000E+00  0.39919562012E+03  0.39919562012E+03  0.00000000000E+00 0.  1.
          2   -1    0    0  501    0  0.00000000000E+00 -0.00000000000E+00 -0.10339178213E+03  0.10339178213E+03  0.00000000000E+00 0. -1.
         23    2    1    2    0    0  0.21416072685E+02 -0.62117514205E+02  0.22458205393E+03  0.25116920976E+03  0.91277813534E+02 0.  0.
          5    1    1    2  502    0 -0.80107287990E+02 -0.25450919165E+02 -0.44156719831E+02  0.95062257398E+02  0.47000000000E+01 0. -1.
         -5    1    1    2    0  502  0.58691215305E+02  0.87568433370E+02  0.11537850389E+03  0.15635593509E+03  0.47000000000E+01 0.  1.
        -11    1    3    3    0    0  0.99787596093E+01 -0.82390944609E+02  0.13379033910E+03  0.15744109449E+03  0.00000000000E+00 0. -1.
         11    1    3    3    0    0  0.11437313076E+02  0.20273430403E+02  0.90791714832E+02  0.93728115274E+02  0.00000000000E+00 0.  1.
<mgrwt>
<rscale>  0 0.19926480E+03</rscale>
<asrwt>0</asrwt>
<pdfrwt beam="2">  1        2 0.15906428E-01 0.24111940E+03</pdfrwt>
<pdfrwt beam="1">  1       -2 0.61414710E-01 0.24111940E+03</pdfrwt>
<totfact> 0.91281682E+02</totfact>
</mgrwt>
</event>
<event>
 7    1  0.1422977E-005  0.1439208E+03  0.7546771E-02  0.1220584E+00
          2   -1    0    0  501    0  0.00000000000E+00  0.00000000000E+00  0.40170838208E+03  0.40170838208E+03  0.00000000000E+00 0.  1.
         -2   -1    0    0    0  501 -0.00000000000E+00 -0.00000000000E+00 -0.40372587568E+02  0.40372587568E+02  0.00000000000E+00 0. -1.
         23    2    1    2    0    0  0.79581018019E+01  0.70881968338E+02  0.14817088979E+03  0.18487972937E+03  0.84488560929E+02 0.  0.
          5    1    1    2  502    0  0.15491547276E+02  0.29724372797E+02  0.23591174818E+02  0.41257240631E+02  0.47000000000E+01 0. -1.
         -5    1    1    2    0  502 -0.23449649077E+02 -0.10060634113E+03  0.18957372990E+03  0.21594399966E+03  0.47000000000E+01 0. -1.
        -11    1    3    3    0    0 -0.12021873177E+02  0.77436152147E+02  0.14325116278E+03  0.16328434932E+03  0.00000000000E+00 0.  1.
         11    1    3    3    0    0  0.19979974979E+02 -0.65541838086E+01  0.49197270159E+01  0.21595380049E+02  0.00000000000E+00 0. -1.
<mgrwt>
<rscale>  0 0.13474195E+03</rscale>
<asrwt>0</asrwt>
<pdfrwt beam="1">  1        2 0.61801287E-01 0.14392082E+03</pdfrwt>
<pdfrwt beam="2">  1       -2 0.62111676E-02 0.14392082E+03</pdfrwt>
<totfact> 0.10617559E+04</totfact>
</mgrwt>
</event>
<event>
 7    1  0.1422977E-005  0.1253045E+03  0.7546771E-02  0.1248651E+00
          2   -1    0    0  501    0  0.00000000000E+00  0.00000000000E+00  0.25739556353E+03  0.25739556353E+03  0.00000000000E+00 0.  1.
         -2   -1    0    0    0  501 -0.00000000000E+00 -0.00000000000E+00 -0.57777372969E+02  0.57777372969E+02  0.00000000000E+00 0. -1.
         23    2    1    2    0    0  0.18118407472E+01  0.85384005525E+01  0.20308039594E+02  0.96418874364E+02  0.93850923334E+02 0.  0.
          5    1    1    2  502    0  0.38482074821E+02 -0.50514424587E+02  0.11808756768E+03  0.13416162199E+03  0.47000000000E+01 0.  1.
         -5    1    1    2    0  502 -0.40293915568E+02  0.41976024034E+02  0.61222583289E+02  0.84592440147E+02  0.47000000000E+01 0.  1.
        -11    1    3    3    0    0 -0.38176568169E+02 -0.18298114845E+02 -0.39065619320E+01  0.42515086618E+02  0.00000000000E+00 0. -1.
         11    1    3    3    0    0  0.39988408916E+02  0.26836515398E+02  0.24214601525E+02  0.53903787746E+02  0.00000000000E+00 0.  1.
<mgrwt>
<rscale>  0 0.11669496E+03</rscale>
<asrwt>0</asrwt>
<pdfrwt beam="1">  1        2 0.39599317E-01 0.12530447E+03</pdfrwt>
<pdfrwt beam="2">  1       -2 0.88888267E-02 0.12530447E+03</pdfrwt>
<totfact> 0.97175057E+03</totfact>
</mgrwt>
</event>
<event>
 7    1  0.1422977E-005  0.1277749E+03  0.7546771E-02  0.1248223E+00
          2   -1    0    0  501    0  0.00000000000E+00  0.00000000000E+00  0.30008713208E+03  0.30008713208E+03  0.00000000000E+00 0. -1.
         -2   -1    0    0    0  501 -0.00000000000E+00 -0.00000000000E+00 -0.46198880856E+02  0.46198880856E+02  0.00000000000E+00 0.  1.
         23    2    1    2    0    0 -0.34410572896E+01 -0.26241465453E+02  0.42364017482E+02  0.99164740936E+02  0.85664931467E+02 0.  0.
          5    1    1    2  502    0 -0.47938728443E+02 -0.17042991199E+02  0.47311646986E+02  0.69635243765E+02  0.47000000000E+01 0.  1.
         -5    1    1    2    0  502  0.51379785732E+02  0.43284456652E+02  0.16421258675E+03  0.17748602823E+03  0.47000000000E+01 0.  1.
        -11    1    3    3    0    0 -0.27438661875E+02  0.90407280615E+01  0.48102031277E+02  0.56110786328E+02  0.00000000000E+00 0. -1.
         11    1    3    3    0    0  0.23997604585E+02 -0.35282193515E+02 -0.57380137950E+01  0.43053954608E+02  0.00000000000E+00 0.  1.
<mgrwt>
<rscale>  0 0.11694562E+03</rscale>
<asrwt>0</asrwt>
<pdfrwt beam="1">  1        2 0.46167250E-01 0.12777489E+03</pdfrwt>
<pdfrwt beam="2">  1       -2 0.71075203E-02 0.12777489E+03</pdfrwt>
<totfact> 0.11678634E+04</totfact>
</mgrwt>
</event>
<event>
 7    1  0.1422977E-005  0.1488937E+03  0.7546771E-02  0.1211311E+00
          2   -1    0    0  501    0  0.00000000000E+00  0.00000000000E+00  0.15029087702E+04  0.15029087702E+04  0.00000000000E+00 0. -1.
         -2   -1    0    0    0  501 -0.00000000000E+00 -0.00000000000E+00 -0.16060784204E+02  0.16060784204E+02  0.00000000000E+00 0.  1.
         23    2    1    2    0    0  0.13748775218E+02  0.79727608501E+02  0.31354950749E+03  0.33626136768E+03  0.90625015153E+02 0.  0.
          5    1    1    2  502    0 -0.14455397868E+02 -0.90358156926E+02  0.44592090155E+03  0.45523740563E+03  0.47000000000E+01 0. -1.
         -5    1    1    2    0  502  0.70662265059E+00  0.10630548425E+02  0.72737757695E+03  0.72747078108E+03  0.47000000000E+01 0. -1.
        -11    1    3    3    0    0 -0.35569627933E+02  0.24140116268E+02  0.16001130563E+03  0.16568512780E+03  0.00000000000E+00 0. -1.
         11    1    3    3    0    0  0.49318403151E+02  0.55587492233E+02  0.15353820186E+03  0.17057623988E+03  0.00000000000E+00 0.  1.
<mgrwt>
<rscale>  0 0.14151003E+03</rscale>
<asrwt>0</asrwt>
<pdfrwt beam="1">  1        2 0.23121662E+00 0.14889370E+03</pdfrwt>
<pdfrwt beam="2">  1       -2 0.24708911E-02 0.14889370E+03</pdfrwt>
<totfact> 0.75536738E+03</totfact>
</mgrwt>
</event>
<event>
 7    1  0.1422977E-005  0.1926996E+03  0.7546771E-02  0.1184670E+00
          2   -1    0    0  501    0  0.00000000000E+00  0.00000000000E+00  0.92587675483E+03  0.92587675483E+03  0.00000000000E+00 0. -1.
         -2   -1    0    0    0  501 -0.00000000000E+00 -0.00000000000E+00 -0.26738951819E+02  0.26738951819E+02  0.00000000000E+00 0.  1.
         23    2    1    2    0    0 -0.11096207442E+02 -0.39335878293E+02  0.15994136497E+03  0.18871485830E+03  0.91441896168E+02 0.  0.
          5    1    1    2  502    0  0.75445655847E+02 -0.39741521882E+02  0.25040139472E+03  0.26456451770E+03  0.47000000000E+01 0. -1.
         -5    1    1    2    0  502 -0.64349448405E+02  0.79077400175E+02  0.48879504332E+03  0.49933633065E+03  0.47000000000E+01 0.  1.
        -11    1    3    3    0    0 -0.26573452083E+02  0.22118156377E+02  0.76377521135E+02  0.83838457356E+02  0.00000000000E+00 0. -1.
         11    1    3    3    0    0  0.15477244640E+02 -0.61454034670E+02  0.83563843832E+02  0.10487640094E+03  0.00000000000E+00 0.  1.
<mgrwt>
<rscale>  0 0.16361923E+03</rscale>
<asrwt>0</asrwt>
<pdfrwt beam="1">  1        2 0.14244255E+00 0.19269959E+03</pdfrwt>
<pdfrwt beam="2">  1       -2 0.41136856E-02 0.19269959E+03</pdfrwt>
<totfact> 0.75742972E+03</totfact>
</mgrwt>
</event>
<event>
 7    1  0.1422977E-005  0.1345541E+03  0.7546771E-02  0.1234627E+00
          1   -1    0    0  501    0  0.00000000000E+00  0.00000000000E+00  0.63748638625E+03  0.63748638625E+03  0.00000000000E+00 0. -1.
         -1   -1    0    0    0  501 -0.00000000000E+00 -0.00000000000E+00 -0.29546612475E+02  0.29546612475E+02  0.00000000000E+00 0.  1.
         23    2    1    2    0    0 -0.48457688027E+02 -0.11458595850E+02  0.10251015077E+03  0.14399962913E+03  0.88023378887E+02 0.  0.
          5    1    1    2  502    0  0.43106743647E+01  0.64207472026E+02  0.27760359940E+03  0.28500356099E+03  0.47000000000E+01 0. -1.
         -5    1    1    2    0  502  0.44147013662E+02 -0.52748876176E+02  0.22782602361E+03  0.23802980861E+03  0.47000000000E+01 0. -1.
        -11    1    3    3    0    0 -0.14163475377E+02  0.68614635129E+01 -0.14067772209E+02  0.21108906443E+02  0.00000000000E+00 0.  1.
         11    1    3    3    0    0 -0.34294212650E+02 -0.18320059363E+02  0.11657792298E+03  0.12289072268E+03  0.00000000000E+00 0. -1.
<mgrwt>
<rscale>  0 0.12528359E+03</rscale>
<asrwt>0</asrwt>
<pdfrwt beam="1">  1        1 0.98074818E-01 0.13455409E+03</pdfrwt>
<pdfrwt beam="2">  1       -1 0.45456332E-02 0.13455409E+03</pdfrwt>
<totfact> 0.63164890E+03</totfact>
</mgrwt>
</event>
<event>
 7    1  0.1422977E-005  0.3364853E+03  0.7546771E-02  0.1112389E+00
         -2   -1    0    0    0  501 -0.00000000000E+00  0.00000000000E+00  0.58085921432E+02  0.58085921432E+02  0.00000000000E+00 0.  1.
          2   -1    0    0  501    0  0.00000000000E+00 -0.00000000000E+00 -0.94919716049E+03  0.94919716049E+03  0.00000000000E+00 0. -1.
         23    2    1    2    0    0  0.44271975350E+02  0.24014079756E+02 -0.89533868206E+02  0.13794503267E+03  0.92064296309E+02 0.  0.
          5    1    1    2  502    0 -0.56854537528E+02 -0.16573732359E+03 -0.29506679931E+03  0.34320227990E+03  0.47000000000E+01 0. -1.
         -5    1    1    2    0  502  0.12582562179E+02  0.14172324383E+03 -0.50651057153E+03  0.52613576935E+03  0.47000000000E+01 0.  1.
        -11    1    3    3    0    0  0.53827863815E+02  0.19257441966E+02 -0.10476363960E+03  0.11934700740E+03  0.00000000000E+00 0.  1.
         11    1    3    3    0    0 -0.95558884660E+01  0.47566377905E+01  0.15229771389E+02  0.18598025272E+02  0.00000000000E+00 0. -1.
<mgrwt>
<rscale>  0 0.25145508E+03</rscale>
<asrwt>0</asrwt>
<pdfrwt beam="2">  1        2 0.14603035E+00 0.33648531E+03</pdfrwt>
<pdfrwt beam="1">  1       -2 0.89362948E-02 0.33648531E+03</pdfrwt>
<totfact> 0.22436733E+03</totfact>
</mgrwt>
</event>
<event>
 7    1  0.1422977E-005  0.1583937E+03  0.7546771E-02  0.1198051E+00
         -2   -1    0    0    0  501 -0.00000000000E+00  0.00000000000E+00  0.17767483346E+02  0.17767483346E+02  0.00000000000E+00 0. -1.
          2   -1    0    0  501    0  0.00000000000E+00 -0.00000000000E+00 -0.16562769564E+04  0.16562769564E+04  0.00000000000E+00 0.  1.
         23    2    1    2    0    0 -0.80385131730E+02 -0.54699370068E+02 -0.33446588170E+03  0.36041654615E+03  0.92622190806E+02 0.  0.
          5    1    1    2  502    0  0.29279429255E+02  0.82912301764E+02 -0.52025287015E+03  0.52765222795E+03  0.47000000000E+01 0. -1.
         -5    1    1    2    0  502  0.51105702475E+02 -0.28212931695E+02 -0.78379072125E+03  0.78597566569E+03  0.47000000000E+01 0. -1.
        -11    1    3    3    0    0 -0.39495404811E+02 -0.22599069824E+02 -0.37585713227E+02  0.59019410340E+02  0.00000000000E+00 0. -1.
         11    1    3    3    0    0 -0.40889726919E+02 -0.32100300245E+02 -0.29688016847E+03  0.30139713581E+03  0.00000000000E+00 0.  1.
<mgrwt>
<rscale>  0 0.15198854E+03</rscale>
<asrwt>0</asrwt>
<pdfrwt beam="2">  1        2 0.25481196E+00 0.15839367E+03</pdfrwt>
<pdfrwt beam="1">  1       -2 0.27334577E-02 0.15839367E+03</pdfrwt>
<totfact> 0.54306554E+03</totfact>
</mgrwt>
</event>
<event>
 7    1  0.1422977E-005  0.1494136E+03  0.7546771E-02  0.1210535E+00
         -4   -1    0    0    0  501 -0.00000000000E+00  0.00000000000E+00  0.19900836840E+03  0.19900836840E+03  0.00000000000E+00 0.  1.
          4   -1    0    0  501    0  0.00000000000E+00 -0.00000000000E+00 -0.93761863277E+02  0.93761863277E+02  0.00000000000E+00 0. -1.
         23    2    1    2    0    0  0.52962481199E+02 -0.62408225337E+02  0.31880550317E+02  0.12631609439E+03  0.90772105893E+02 0.  0.
          5    1    1    2  502    0  0.11405474614E+02  0.59568831575E+02 -0.93001741375E+01  0.61539530266E+02  0.47000000000E+01 0. -1.
         -5    1    1    2    0  502 -0.64367955813E+02  0.28393937620E+01  0.82666128938E+02  0.10491460702E+03  0.47000000000E+01 0. -1.
        -11    1    3    3    0    0 -0.10916850291E+01 -0.40332401061E+02 -0.22781030834E+02  0.46334325477E+02  0.00000000000E+00 0. -1.
         11    1    3    3    0    0  0.54054166228E+02 -0.22075824275E+02  0.54661581151E+02  0.79981768910E+02  0.00000000000E+00 0.  1.
<mgrwt>
<rscale>  0 0.14209675E+03</rscale>
<asrwt>0</asrwt>
<pdfrwt beam="2">  1        4 0.14424902E-01 0.14941358E+03</pdfrwt>
<pdfrwt beam="1">  1       -4 0.30616672E-01 0.14941358E+03</pdfrwt>
<totfact> 0.69648153E+02</totfact>
</mgrwt>
</event>
<event>
 7    1  0.1422977E-005  0.2247249E+03  0.7546771E-02  0.1130409E+00
          2   -1    0    0  501    0  0.00000000000E+00  0.00000000000E+00  0.86051184452E+03  0.86051184452E+03  0.00000000000E+00 0. -1.
         -2   -1    0    0    0  501 -0.00000000000E+00 -0.00000000000E+00 -0.14671874820E+02  0.14671874820E+02  0.00000000000E+00 0.  1.
         23    2    1    2    0    0  0.29180535140E+02  0.25978770288E+01  0.31314918046E+03  0.32723918216E+03  0.90359396392E+02 0.  0.
          5    1    1    2  502    0 -0.70408524575E+02  0.51403258000E+01  0.44539096709E+03  0.45097559451E+03  0.47000000000E+01 0.  1.
         -5    1    1    2    0  502  0.41227989435E+02 -0.77382028287E+01  0.87299822149E+02  0.96968942673E+02  0.47000000000E+01 0.  1.
        -11    1    3    3    0    0  0.55230583515E+02  0.13387111339E+02  0.26837939499E+03  0.27433033328E+03  0.00000000000E+00 0. -1.
         11    1    3    3    0    0 -0.26050048375E+02 -0.10789234311E+02  0.44769785476E+02  0.52908848871E+02  0.00000000000E+00 0.  1.
<mgrwt>
<rscale>  0 0.22472492E+03</rscale>
<asrwt>0</asrwt>
<pdfrwt beam="1">  1        2 0.13238640E+00 0.22472492E+03</pdfrwt>
<pdfrwt beam="2">  1       -2 0.22572122E-02 0.22472492E+03</pdfrwt>
<totfact> 0.20536215E+04</totfact>
</mgrwt>
</event>
<event>
 7    1  0.1422977E-005  0.1312599E+03  0.7546771E-02  0.1243605E+00
         -2   -1    0    0    0  501 -0.00000000000E+00  0.00000000000E+00  0.10543994121E+03  0.10543994121E+03  0.00000000000E+00 0.  1.
          2   -1    0    0  501    0  0.00000000000E+00 -0.00000000000E+00 -0.28582768039E+03  0.28582768039E+03  0.00000000000E+00 0. -1.
         23    2    1    2    0    0 -0.19479367136E+02  0.35003763467E+02  0.65918600802E+02  0.11216909777E+03  0.81436695429E+02 0.  0.
          5    1    1    2  502    0  0.56456938503E+02 -0.37008717146E+02 -0.22739975684E+03  0.23725465319E+03  0.47000000000E+01 0. -1.
         -5    1    1    2    0  502 -0.36977571367E+02  0.20049536787E+01 -0.18906583145E+02  0.41843870634E+02  0.47000000000E+01 0. -1.
        -11    1    3    3    0    0  0.23089701350E+02 -0.11016869028E+02  0.79623533670E+01  0.26793745217E+02  0.00000000000E+00 0. -1.
         11    1    3    3    0    0 -0.42569068487E+02  0.46020632495E+02  0.57956247435E+02  0.85375352554E+02  0.00000000000E+00 0.  1.
<mgrwt>
<rscale>  0 0.11969278E+03</rscale>
<asrwt>0</asrwt>
<pdfrwt beam="2">  1        2 0.43973489E-01 0.13125994E+03</pdfrwt>
<pdfrwt beam="1">  1       -2 0.16221530E-01 0.13125994E+03</pdfrwt>
<totfact> 0.33385675E+03</totfact>
</mgrwt>
</event>
<event>
 7    1  0.1422977E-005  0.1524756E+03  0.7546771E-02  0.1206641E+00
         -2   -1    0    0    0  501 -0.00000000000E+00  0.00000000000E+00  0.59344496546E+02  0.59344496546E+02  0.00000000000E+00 0.  1.
          2   -1    0    0  501    0  0.00000000000E+00 -0.00000000000E+00 -0.39107881210E+03  0.39107881210E+03  0.00000000000E+00 0. -1.
         23    2    1    2    0    0  0.80968846488E+02 -0.32663185641E+02 -0.59606552089E+02  0.13849010389E+03  0.89463568145E+02 0.  0.
          5    1    1    2  502    0  0.11027515300E+02  0.47843258704E+02 -0.15194656587E+03  0.15975115767E+03  0.47000000000E+01 0. -1.
         -5    1    1    2    0  502 -0.91996361788E+02 -0.15180073064E+02 -0.12018119759E+03  0.15218204708E+03  0.47000000000E+01 0. -1.
        -11    1    3    3    0    0  0.77698088266E+02 -0.58429002136E+02 -0.36873812756E+02  0.10397412793E+03  0.00000000000E+00 0. -1.
         11    1    3    3    0    0  0.32707582220E+01  0.25765816495E+02 -0.22732739333E+02  0.34515975962E+02  0.00000000000E+00 0.  1.
<mgrwt>
<rscale>  0 0.14508856E+03</rscale>
<asrwt>0</asrwt>
<pdfrwt beam="2">  1        2 0.60165972E-01 0.15247559E+03</pdfrwt>
<pdfrwt beam="1">  1       -2 0.91299223E-02 0.15247559E+03</pdfrwt>
<totfact> 0.60561317E+03</totfact>
</mgrwt>
</event>
<event>
 7    1  0.1422977E-005  0.1371954E+03  0.7546771E-02  0.1229799E+00
         -2   -1    0    0    0  501 -0.00000000000E+00  0.00000000000E+00  0.45872459343E+03  0.45872459343E+03  0.00000000000E+00 0.  1.
          2   -1    0    0  501    0  0.00000000000E+00 -0.00000000000E+00 -0.35186743560E+02  0.35186743560E+02  0.00000000000E+00 0. -1.
         23    2    1    2    0    0  0.45808048123E+02  0.33153663452E+02  0.25943059197E+03  0.28001001212E+03  0.88903499153E+02 0.  0.
          5    1    1    2  502    0 -0.40548134795E+02  0.50298068293E+01  0.16975225579E+03  0.17466358676E+03  0.47000000000E+01 0.  1.
         -5    1    1    2    0  502 -0.52599133277E+01 -0.38183470281E+02 -0.56449978984E+01  0.39237738113E+02  0.47000000000E+01 0.  1.
        -11    1    3    3    0    0 -0.15184622939E+02 -0.18880132855E+02  0.77464513426E+02  0.81165158971E+02  0.00000000000E+00 0.  1.
         11    1    3    3    0    0  0.60992671062E+02  0.52033796307E+02  0.18196607855E+03  0.19884485315E+03  0.00000000000E+00 0. -1.
<mgrwt>
<rscale>  0 0.12843306E+03</rscale>
<asrwt>0</asrwt>
<pdfrwt beam="2">  1        2 0.54133455E-02 0.13719543E+03</pdfrwt>
<pdfrwt beam="1">  1       -2 0.70573011E-01 0.13719543E+03</pdfrwt>
<totfact> 0.25432026E+03</totfact>
</mgrwt>
</event>
<event>
 7    1  0.1422977E-005  0.1301857E+03  0.7546771E-02  0.1241637E+00
         -1   -1    0    0    0  501 -0.00000000000E+00  0.00000000000E+00  0.76188487352E+02  0.76188487352E+02  0.00000000000E+00 0.  1.
          1   -1    0    0  501    0  0.00000000000E+00 -0.00000000000E+00 -0.16906777398E+03  0.16906777398E+03  0.00000000000E+00 0. -1.
         23    2    1    2    0    0 -0.20962597209E+02  0.29727702413E+02 -0.38656065217E+02  0.10422974284E+03  0.89701622848E+02 0.  0.
          5    1    1    2  502    0 -0.26635857912E+02 -0.47569350542E+02  0.13361412195E+02  0.56328761513E+02  0.47000000000E+01 0. -1.
         -5    1    1    2    0  502  0.47598455121E+02  0.17841648129E+02 -0.67584633605E+02  0.84697756980E+02  0.47000000000E+01 0. -1.
        -11    1    3    3    0    0 -0.19167943778E+02  0.18486483522E+01  0.26834753325E+02  0.33029253025E+02  0.00000000000E+00 0.  1.
         11    1    3    3    0    0 -0.17946534310E+01  0.27879054061E+02 -0.65490818542E+02  0.71200489813E+02  0.00000000000E+00 0. -1.
<mgrwt>
<rscale>  0 0.12088915E+03</rscale>
<asrwt>0</asrwt>
<pdfrwt beam="2">  1        1 0.26010427E-01 0.13018572E+03</pdfrwt>
<pdfrwt beam="1">  1       -1 0.11721306E-01 0.13018572E+03</pdfrwt>
<totfact> 0.81478014E+03</totfact>
</mgrwt>
</event>
<event>
 7    1  0.1422977E-005  0.2137279E+03  0.7546771E-02  0.1142561E+00
          1   -1    0    0  501    0  0.00000000000E+00  0.00000000000E+00  0.22195743700E+04  0.22195743700E+04  0.00000000000E+00 0. -1.
         -1   -1    0    0    0  501 -0.00000000000E+00 -0.00000000000E+00 -0.21312041497E+02  0.21312041497E+02  0.00000000000E+00 0.  1.
         23    2    1    2    0    0  0.85327470523E+02  0.14923375875E+03  0.66696220889E+03  0.69474292530E+03  0.90981603555E+02 0.  0.
          5    1    1    2  502    0 -0.81945151341E+01  0.21869397475E+02  0.25473122895E+03  0.25584274394E+03  0.47000000000E+01 0. -1.
         -5    1    1    2    0  502 -0.77132955389E+02 -0.17110315622E+03  0.12765688907E+04  0.12903007423E+04  0.47000000000E+01 0.  1.
        -11    1    3    3    0    0  0.99921328356E+02  0.95250678918E+02  0.49712310723E+03  0.51593444103E+03  0.00000000000E+00 0.  1.
         11    1    3    3    0    0 -0.14593857833E+02  0.53983079827E+02  0.16983910166E+03  0.17880848427E+03  0.00000000000E+00 0. -1.
<mgrwt>
<rscale>  0 0.20874893E+03</rscale>
<asrwt>0</asrwt>
<pdfrwt beam="1">  1        1 0.34147280E+00 0.21372792E+03</pdfrwt>
<pdfrwt beam="2">  1       -1 0.32787774E-02 0.21372792E+03</pdfrwt>
<totfact> 0.80804940E+02</totfact>
</mgrwt>
</event>
<event>
 7    1  0.1422977E-005  0.1427232E+03  0.7546771E-02  0.1220040E+00
          1   -1    0    0  501    0  0.00000000000E+00  0.00000000000E+00  0.71081554384E+02  0.71081554384E+02  0.00000000000E+00 0. -1.
         -1   -1    0    0    0  501 -0.00000000000E+00 -0.00000000000E+00 -0.26548287543E+03  0.26548287543E+03  0.00000000000E+00 0.  1.
         23    2    1    2    0    0  0.66695256009E+02  0.17229285506E+02 -0.14643505719E+03  0.18599657445E+03  0.91686390932E+02 0.  0.
          5    1    1    2  502    0  0.27572600919E+02  0.17925389017E+02 -0.36248566692E+02  0.49169263571E+02  0.47000000000E+01 0.  1.
         -5    1    1    2    0  502 -0.94267856929E+02 -0.35154674523E+02 -0.11717697171E+02  0.10139859179E+03  0.47000000000E+01 0.  1.
        -11    1    3    3    0    0  0.57064652880E+02  0.26149972797E+02 -0.15704016222E+03  0.16912069133E+03  0.00000000000E+00 0.  1.
         11    1    3    3    0    0  0.96306031292E+01 -0.89206872917E+01  0.10605105035E+02  0.16875883123E+02  0.00000000000E+00 0. -1.
<mgrwt>
<rscale>  0 0.13512723E+03</rscale>
<asrwt>0</asrwt>
<pdfrwt beam="1">  1        1 0.10935624E-01 0.14272322E+03</pdfrwt>
<pdfrwt beam="2">  1       -1 0.40843519E-01 0.14272322E+03</pdfrwt>
<totfact> 0.32638905E+03</totfact>
</mgrwt>
</event>
<event>
 7    1  0.1422977E-005  0.2402753E+03  0.7546771E-02  0.1122039E+00
          3   -1    0    0  501    0  0.00000000000E+00  0.00000000000E+00  0.27874450905E+03  0.27874450905E+03  0.00000000000E+00 0. -1.
         -3   -1    0    0    0  501 -0.00000000000E+00 -0.00000000000E+00 -0.23429738755E+03  0.23429738755E+03  0.00000000000E+00 0.  1.
         23    2    1    2    0    0  0.20122483743E+03 -0.40217456587E+02 -0.83215267287E+02  0.24095753212E+03  0.95009855076E+02 0.  0.
          5    1    1    2  502    0 -0.83669162705E+02  0.50293640295E+02  0.11856437129E+03  0.15365408938E+03  0.47000000000E+01 0. -1.
         -5    1    1    2    0  502 -0.11755567473E+03 -0.10076183707E+02  0.90980174853E+01  0.11843027510E+03  0.47000000000E+01 0. -1.
        -11    1    3    3    0    0  0.32511652362E+02 -0.34333921507E+02  0.96878103606E+01  0.48266752273E+02  0.00000000000E+00 0. -1.
         11    1    3    3    0    0  0.16871318507E+03 -0.58835350799E+01 -0.92903077648E+02  0.19269077985E+03  0.00000000000E+00 0.  1.
<mgrwt>
<rscale>  0 0.23665867E+03</rscale>
<asrwt>0</asrwt>
<pdfrwt beam="1">  1        3 0.42883771E-01 0.24027529E+03</pdfrwt>
<pdfrwt beam="2">  1       -3 0.36045752E-01 0.24027529E+03</pdfrwt>
<totfact> 0.10211716E+02</totfact>
</mgrwt>
</event>
<event>
 7    1  0.1422977E-005  0.1262864E+03  0.7546771E-02  0.1248099E+00
         -1   -1    0    0    0  501 -0.00000000000E+00  0.00000000000E+00  0.21479679116E+02  0.21479679116E+02  0.00000000000E+00 0.  1.
          1   -1    0    0  501    0  0.00000000000E+00 -0.00000000000E+00 -0.71161467517E+03  0.71161467517E+03  0.00000000000E+00 0. -1.
         23    2    1    2    0    0 -0.17267432023E+02 -0.49067217396E+01 -0.13641331647E+03  0.16515426094E+03  0.91351501735E+02 0.  0.
          5    1    1    2  502    0 -0.13633966100E+02  0.49109579776E+02 -0.42810770528E+03  0.43115650659E+03  0.47000000000E+01 0. -1.
         -5    1    1    2    0  502  0.30901398123E+02 -0.44202858036E+02 -0.12561397432E+03  0.13678358677E+03  0.47000000000E+01 0. -1.
        -11    1    3    3    0    0  0.34783376546E+02 -0.18043603631E+02 -0.63349542145E+02  0.74489055612E+02  0.00000000000E+00 0. -1.
         11    1    3    3    0    0 -0.52050808569E+02  0.13136881891E+02 -0.73063774320E+02  0.90665205324E+02  0.00000000000E+00 0.  1.
<mgrwt>
<rscale>  0 0.11701812E+03</rscale>
<asrwt>0</asrwt>
<pdfrwt beam="2">  1        1 0.10947918E+00 0.12628639E+03</pdfrwt>
<pdfrwt beam="1">  1       -1 0.33045661E-02 0.12628639E+03</pdfrwt>
<totfact> 0.85995878E+03</totfact>
</mgrwt>
</event>
<event>
 7    1  0.1422977E-005  0.1453679E+03  0.7546771E-02  0.1216847E+00
         -2   -1    0    0    0  501 -0.00000000000E+00  0.00000000000E+00  0.23887197786E+02  0.23887197786E+02  0.00000000000E+00 0. -1.
          2   -1    0    0  501    0  0.00000000000E+00 -0.00000000000E+00 -0.78222504289E+03  0.78222504289E+03  0.00000000000E+00 0.  1.
         23    2    1    2    0    0  0.73932741482E+01  0.73839036227E+02 -0.22318948544E+03  0.25157134278E+03  0.89262143850E+02 0.  0.
          5    1    1    2  502    0  0.23847669542E+02  0.18562807297E+02 -0.42816744933E+02  0.52617989358E+02  0.47000000000E+01 0. -1.
         -5    1    1    2    0  502 -0.31240943690E+02 -0.92401843525E+02 -0.49233161473E+03  0.50192290854E+03  0.47000000000E+01 0. -1.
        -11    1    3    3    0    0  0.11346220749E+02  0.92663044454E+02 -0.20426891427E+03  0.22459066291E+03  0.00000000000E+00 0.  1.
         11    1    3    3    0    0 -0.39529466010E+01 -0.18824008227E+02 -0.18920571170E+02  0.26980679865E+02  0.00000000000E+00 0. -1.
<mgrwt>
<rscale>  0 0.13741716E+03</rscale>
<asrwt>0</asrwt>
<pdfrwt beam="2">  1        2 0.12034230E+00 0.14536795E+03</pdfrwt>
<pdfrwt beam="1">  1       -2 0.36749540E-02 0.14536795E+03</pdfrwt>
<totfact> 0.10972704E+04</totfact>
</mgrwt>
</event>
<event>
 7    1  0.1422977E-005  0.1875987E+03  0.7546771E-02  0.1165494E+00
          2   -1    0    0  501    0  0.00000000000E+00  0.00000000000E+00  0.10848313181E+03  0.10848313181E+03  0.00000000000E+00 0. -1.
         -2   -1    0    0    0  501 -0.00000000000E+00 -0.00000000000E+00 -0.40032649491E+03  0.40032649491E+03  0.00000000000E+00 0.  1.
         23    2    1    2    0    0 -0.13955404447E+03 -0.96089920795E+01 -0.27284808575E+03  0.32025170464E+03  0.92452216680E+02 0.  0.
          5    1    1    2  502    0  0.12712264325E+02 -0.46178452985E+02 -0.12669647243E+02  0.49766064196E+02  0.47000000000E+01 0. -1.
         -5    1    1    2    0  502  0.12684178014E+03  0.55787445064E+02 -0.63256300975E+01  0.13879185788E+03  0.47000000000E+01 0. -1.
        -11    1    3    3    0    0 -0.10429470974E+03  0.11958140699E+02 -0.25397224717E+03  0.27481318371E+03  0.00000000000E+00 0.  1.
         11    1    3    3    0    0 -0.35259334733E+02 -0.21567132778E+02 -0.18875838582E+02  0.45438520929E+02  0.00000000000E+00 0. -1.
<mgrwt>
<rscale>  0 0.18240627E+03</rscale>
<asrwt>0</asrwt>
<pdfrwt beam="1">  1        2 0.16689712E-01 0.18759869E+03</pdfrwt>
<pdfrwt beam="2">  1       -2 0.61588693E-01 0.18759869E+03</pdfrwt>
<totfact> 0.85271868E+02</totfact>
</mgrwt>
</event>
<event>
 7    1  0.1422977E-005  0.1266399E+03  0.7546771E-02  0.1246467E+00
          2   -1    0    0  501    0  0.00000000000E+00  0.00000000000E+00  0.26025416924E+03  0.26025416924E+03  0.00000000000E+00 0.  1.
         -2   -1    0    0    0  501 -0.00000000000E+00 -0.00000000000E+00 -0.57976838903E+02  0.57976838903E+02  0.00000000000E+00 0. -1.
         23    2    1    2    0    0  0.48892788820E+01  0.19731345980E+02  0.21966067494E+02  0.97890764396E+02  0.93203339912E+02 0.  0.
          5    1    1    2  502    0 -0.38025088673E+02 -0.70598211049E+01  0.25830047615E+01  0.39044978630E+02  0.47000000000E+01 0. -1.
         -5    1    1    2    0  502  0.33135809791E+02 -0.12671524875E+02  0.17772825808E+03  0.18129526512E+03  0.47000000000E+01 0. -1.
        -11    1    3    3    0    0 -0.27564089172E+01  0.49972539461E+02 -0.12315985992E+02  0.51541594865E+02  0.00000000000E+00 0. -1.
         11    1    3    3    0    0  0.76456877992E+01 -0.30241193481E+02  0.34282053486E+02  0.46349169532E+02  0.00000000000E+00 0.  1.
<mgrwt>
<rscale>  0 0.11798009E+03</rscale>
<asrwt>0</asrwt>
<pdfrwt beam="1">  1        2 0.40039102E-01 0.12663993E+03</pdfrwt>
<pdfrwt beam="2">  1       -2 0.89195138E-02 0.12663993E+03</pdfrwt>
<totfact> 0.95610087E+03</totfact>
</mgrwt>
</event>
<event>
 7    1  0.1422977E-005  0.1434158E+03  0.7546771E-02  0.1220149E+00
          2   -1    0    0  501    0  0.00000000000E+00  0.00000000000E+00  0.31442761127E+02  0.31442761127E+02  0.00000000000E+00 0. -1.
         -2   -1    0    0    0  501 -0.00000000000E+00 -0.00000000000E+00 -0.53667256241E+03  0.53667256241E+03  0.00000000000E+00 0.  1.
         23    2    1    2    0    0  0.21717039967E+02 -0.66869008552E+02 -0.27015078340E+03  0.29274241964E+03  0.88167932689E+02 0.  0.
          5    1    1    2  502    0 -0.49282949586E+02 -0.16278071417E+02 -0.59475749726E+02  0.79077427465E+02  0.47000000000E+01 0.  1.
         -5    1    1    2    0  502  0.27565909619E+02  0.83147079969E+02 -0.17560326815E+03  0.19629547643E+03  0.47000000000E+01 0.  1.
        -11    1    3    3    0    0 -0.71942232002E+00 -0.84191906069E+02 -0.19376271756E+03  0.21126472808E+03  0.00000000000E+00 0. -1.
         11    1    3    3    0    0  0.22436462287E+02  0.17322897517E+02 -0.76388065843E+02  0.81477691558E+02  0.00000000000E+00 0.  1.
<mgrwt>
<rscale>  0 0.13504996E+03</rscale>
<asrwt>0</asrwt>
<pdfrwt beam="1">  1        2 0.48373481E-02 0.14341580E+03</pdfrwt>
<pdfrwt beam="2">  1       -2 0.82565005E-01 0.14341580E+03</pdfrwt>
<totfact> 0.21020387E+03</totfact>
</mgrwt>
</event>
<event>
 7    1  0.1422977E-005  0.1504039E+03  0.7546771E-02  0.1208808E+00
         -1   -1    0    0    0  501 -0.00000000000E+00  0.00000000000E+00  0.19294405829E+03  0.19294405829E+03  0.00000000000E+00 0.  1.
          1   -1    0    0  501    0  0.00000000000E+00 -0.00000000000E+00 -0.98666629534E+02  0.98666629534E+02  0.00000000000E+00 0. -1.
         23    2    1    2    0    0  0.81468385180E+02 -0.18975044855E+02  0.56307678219E+02  0.13648800759E+03  0.91985169881E+02 0.  0.
          5    1    1    2  502    0  0.32155494312E+02  0.14072529974E+02  0.94537612057E+00  0.35425917776E+02  0.47000000000E+01 0.  1.
         -5    1    1    2    0  502 -0.11362387949E+03  0.49025148810E+01  0.37024374421E+02  0.11969676246E+03  0.47000000000E+01 0.  1.
        -11    1    3    3    0    0  0.36386831522E+02  0.63829408444E+00  0.75419379815E+02  0.83740622038E+02  0.00000000000E+00 0. -1.
         11    1    3    3    0    0  0.45081553658E+02 -0.19613338939E+02 -0.19111701596E+02  0.52747385551E+02  0.00000000000E+00 0.  1.
<mgrwt>
<rscale>  0 0.14341350E+03</rscale>
<asrwt>0</asrwt>
<pdfrwt beam="2">  1        1 0.15179482E-01 0.15040394E+03</pdfrwt>
<pdfrwt beam="1">  1       -1 0.29683701E-01 0.15040394E+03</pdfrwt>
<totfact> 0.36878383E+03</totfact>
</mgrwt>
</event>
<event>
 7    1  0.1422977E-005  0.1433339E+03  0.7546771E-02  0.1218935E+00
          2   -1    0    0  501    0  0.00000000000E+00  0.00000000000E+00  0.31233119983E+03  0.31233119983E+03  0.00000000000E+00 0. -1.
         -2   -1    0    0    0  501 -0.00000000000E+00 -0.00000000000E+00 -0.55084069137E+02  0.55084069137E+02  0.00000000000E+00 0.  1.
         23    2    1    2    0    0 -0.65865156702E+02  0.24085597096E+02  0.87242875955E+02  0.14505056426E+03  0.92249725925E+02 0.  0.
          5    1    1    2  502    0  0.86248501970E+02  0.23102793626E+02  0.87903042227E+02  0.12538571688E+03  0.47000000000E+01 0.  1.
         -5    1    1    2    0  502 -0.20383345268E+02 -0.47188390723E+02  0.82101212515E+02  0.96978987826E+02  0.47000000000E+01 0.  1.
        -11    1    3    3    0    0 -0.45413731690E+02  0.51172446482E+02  0.22625988809E+02  0.72062206978E+02  0.00000000000E+00 0.  1.
         11    1    3    3    0    0 -0.20451425012E+02 -0.27086849385E+02  0.64616887147E+02  0.72988357285E+02  0.00000000000E+00 0. -1.
<mgrwt>
<rscale>  0 0.13591412E+03</rscale>
<asrwt>0</asrwt>
<pdfrwt beam="1">  1        2 0.48050953E-01 0.14333393E+03</pdfrwt>
<pdfrwt beam="2">  1       -2 0.84744723E-02 0.14333393E+03</pdfrwt>
<totfact> 0.86095115E+03</totfact>
</mgrwt>
</event>
<event>
 7    1  0.1422977E-005  0.1574020E+03  0.7546771E-02  0.1199191E+00
         -1   -1    0    0    0  501 -0.00000000000E+00  0.00000000000E+00  0.12866021783E+02  0.12866021783E+02  0.00000000000E+00 0.  1.
          1   -1    0    0  501    0  0.00000000000E+00 -0.00000000000E+00 -0.19466627849E+04  0.19466627849E+04  0.00000000000E+00 0. -1.
         23    2    1    2    0    0  0.95572669828E+02 -0.42596450797E+01 -0.51461677343E+03  0.53164672812E+03  0.93088883478E+02 0.  0.
          5    1    1    2  502    0 -0.75198976189E+01 -0.35829280185E+02 -0.82774991804E+03  0.82857244885E+03  0.47000000000E+01 0.  1.
         -5    1    1    2    0  502 -0.88052772209E+02  0.40088925264E+02 -0.59143007164E+03  0.59930962971E+03  0.47000000000E+01 0.  1.
        -11    1    3    3    0    0  0.55908939023E+02  0.38931698982E+02 -0.19164122008E+03  0.20339086479E+03  0.00000000000E+00 0.  1.
         11    1    3    3    0    0  0.39663730805E+02 -0.43191344061E+02 -0.32297555335E+03  0.32825586332E+03  0.00000000000E+00 0. -1.
<mgrwt>
<rscale>  0 0.15104783E+03</rscale>
<asrwt>0</asrwt>
<pdfrwt beam="2">  1        1 0.29948675E+00 0.15740199E+03</pdfrwt>
<pdfrwt beam="1">  1       -1 0.19793868E-02 0.15740199E+03</pdfrwt>
<totfact> 0.25417993E+03</totfact>
</mgrwt>
</event>
<event>
 7    1  0.1422977E-005  0.1619293E+03  0.7546771E-02  0.1193887E+00
          1   -1    0    0  501    0  0.00000000000E+00  0.00000000000E+00  0.35170221834E+03  0.35170221834E+03  0.00000000000E+00 0. -1.
         -1   -1    0    0    0  501 -0.00000000000E+00 -0.00000000000E+00 -0.67182640231E+02  0.67182640231E+02  0.00000000000E+00 0.  1.
         23    2    1    2    0    0  0.79540347102E+02  0.65324148272E+02  0.84469544411E+02  0.16151139337E+03  0.91416164281E+02 0.  0.
          5    1    1    2  502    0 -0.32461650618E+02 -0.60797298930E+02  0.19810590024E+03  0.20980492851E+03  0.47000000000E+01 0. -1.
         -5    1    1    2    0  502 -0.47078696484E+02 -0.45268493417E+01  0.19441334585E+01  0.47568536687E+02  0.47000000000E+01 0. -1.
        -11    1    3    3    0    0  0.48815888162E+02  0.35575183410E+02  0.99314953836E+02  0.11624132083E+03  0.00000000000E+00 0. -1.
         11    1    3    3    0    0  0.30724458940E+02  0.29748964862E+02 -0.14845409425E+02  0.45270072548E+02  0.00000000000E+00 0.  1.
<mgrwt>
<rscale>  0 0.15548823E+03</rscale>
<asrwt>0</asrwt>
<pdfrwt beam="1">  1        1 0.54108033E-01 0.16192926E+03</pdfrwt>
<pdfrwt beam="2">  1       -1 0.10335791E-01 0.16192926E+03</pdfrwt>
<totfact> 0.40291624E+03</totfact>
</mgrwt>
</event>
<event>
 7    1  0.1422977E-005  0.2679863E+03  0.7546771E-02  0.1104467E+00
         -1   -1    0    0    0  501 -0.00000000000E+00  0.00000000000E+00  0.48044620018E+03  0.48044620018E+03  0.00000000000E+00 0. -1.
          1   -1    0    0  501    0  0.00000000000E+00 -0.00000000000E+00 -0.21951521722E+03  0.21951521722E+03  0.00000000000E+00 0.  1.
         23    2    1    2    0    0 -0.41718618090E+02 -0.23334972868E+03  0.33624227611E+03  0.42159398573E+03  0.92141638752E+02 0.  0.
          5    1    1    2  502    0 -0.31804185767E+01  0.31023668181E+02 -0.63296025527E+02  0.70718172327E+02  0.47000000000E+01 0.  1.
         -5    1    1    2    0  502  0.44899036666E+02  0.20232606050E+03 -0.12015267625E+02  0.20764925934E+03  0.47000000000E+01 0.  1.
        -11    1    3    3    0    0  0.29709025781E+02 -0.66978380225E+02  0.96905052225E+02  0.12148793676E+03  0.00000000000E+00 0.  1.
         11    1    3    3    0    0 -0.71427643870E+02 -0.16637134845E+03  0.23933722389E+03  0.30010604898E+03  0.00000000000E+00 0. -1.
<mgrwt>
<rscale>  0 0.26450437E+03</rscale>
<asrwt>0</asrwt>
<pdfrwt beam="2">  1        1 0.33771572E-01 0.26798626E+03</pdfrwt>
<pdfrwt beam="1">  1       -1 0.73914800E-01 0.26798626E+03</pdfrwt>
<totfact> 0.25182420E+02</totfact>
</mgrwt>
</event>
<event>
 7    1  0.1422977E-005  0.1274196E+03  0.7546771E-02  0.1242013E+00
          4   -1    0    0  501    0  0.00000000000E+00  0.00000000000E+00  0.60042702572E+02  0.60042702572E+02  0.00000000000E+00 0.  1.
         -4   -1    0    0    0  501 -0.00000000000E+00 -0.00000000000E+00 -0.22274284738E+03  0.22274284738E+03  0.00000000000E+00 0. -1.
         23    2    1    2    0    0 -0.16254006259E+02 -0.18637880889E+02 -0.88162861544E+02  0.13516588235E+03  0.99426164934E+02 0.  0.
          5    1    1    2  502    0 -0.46324554442E+01 -0.17510491236E+02  0.29773776916E+02  0.35165959941E+02  0.47000000000E+01 0. -1.
         -5    1    1    2    0  502  0.20886461703E+02  0.36148372125E+02 -0.10431106018E+03  0.11245370766E+03  0.47000000000E+01 0. -1.
        -11    1    3    3    0    0 -0.30702045257E+02  0.32029104415E+02 -0.19108705879E+02  0.48307574488E+02  0.00000000000E+00 0. -1.
         11    1    3    3    0    0  0.14448038998E+02 -0.50666985304E+02 -0.69054155665E+02  0.86858307866E+02  0.00000000000E+00 0.  1.
<mgrwt>
<rscale>  0 0.12065936E+03</rscale>
<asrwt>0</asrwt>
<pdfrwt beam="1">  1        4 0.92373385E-02 0.12741962E+03</pdfrwt>
<pdfrwt beam="2">  1       -4 0.34268132E-01 0.12741962E+03</pdfrwt>
<totfact> 0.11627424E+03</totfact>
</mgrwt>
</event>
<event>
 7    1  0.1422977E-005  0.1584833E+03  0.7546771E-02  0.1198473E+00
          1   -1    0    0  501    0  0.00000000000E+00  0.00000000000E+00  0.48014193032E+03  0.48014193032E+03  0.00000000000E+00 0. -1.
         -1   -1    0    0    0  501 -0.00000000000E+00 -0.00000000000E+00 -0.46112320159E+02  0.46112320159E+02  0.00000000000E+00 0.  1.
         23    2    1    2    0    0  0.52341747676E+02  0.82171387017E+02  0.14513814115E+03  0.19674670309E+03  0.90290585161E+02 0.  0.
          5    1    1    2  502    0 -0.20197773976E+02 -0.10921018016E+03  0.24241228906E+03  0.26668449788E+03  0.47000000000E+01 0.  1.
         -5    1    1    2    0  502 -0.32143973700E+02  0.27038793138E+02  0.46479179947E+02  0.62823049497E+02  0.47000000000E+01 0.  1.
        -11    1    3    3    0    0 -0.15761569502E+02  0.14525893723E+02 -0.14979433128E+01  0.21486565472E+02  0.00000000000E+00 0.  1.
         11    1    3    3    0    0  0.68103317178E+02  0.67645493294E+02  0.14663608446E+03  0.17526013762E+03  0.00000000000E+00 0. -1.
<mgrwt>
<rscale>  0 0.15163964E+03</rscale>
<asrwt>0</asrwt>
<pdfrwt beam="1">  1        1 0.73867986E-01 0.15848326E+03</pdfrwt>
<pdfrwt beam="2">  1       -1 0.70942034E-02 0.15848326E+03</pdfrwt>
<totfact> 0.47975738E+03</totfact>
</mgrwt>
</event>
<event>
 7    1  0.1422977E-005  0.1544284E+03  0.7546771E-02  0.1203448E+00
         -1   -1    0    0    0  501 -0.00000000000E+00  0.00000000000E+00  0.31229951402E+02  0.31229951402E+02  0.00000000000E+00 0.  1.
          1   -1    0    0  501    0  0.00000000000E+00 -0.00000000000E+00 -0.64670816007E+03  0.64670816007E+03  0.00000000000E+00 0. -1.
         23    2    1    2    0    0 -0.16107532292E+02 -0.89233955734E+02 -0.30719080481E+03  0.33313492042E+03  0.91599853637E+02 0.  0.
          5    1    1    2  502    0  0.61499348512E+02  0.10133970657E+02 -0.11054360580E+03  0.12699151945E+03  0.47000000000E+01 0. -1.
         -5    1    1    2    0  502 -0.45391816220E+02  0.79099985077E+02 -0.19774379805E+03  0.21781167161E+03  0.47000000000E+01 0. -1.
        -11    1    3    3    0    0 -0.20965494096E+02  0.12370064537E+02 -0.91158111360E+02  0.94352380500E+02  0.00000000000E+00 0. -1.
         11    1    3    3    0    0  0.48579618035E+01 -0.10160402027E+03 -0.21603269345E+03  0.23878253992E+03  0.00000000000E+00 0.  1.
<mgrwt>
<rscale>  0 0.14760473E+03</rscale>
<asrwt>0</asrwt>
<pdfrwt beam="2">  1        1 0.99493568E-01 0.15442836E+03</pdfrwt>
<pdfrwt beam="1">  1       -1 0.48046077E-02 0.15442836E+03</pdfrwt>
<totfact> 0.57453329E+03</totfact>
</mgrwt>
</event>
<event>
 7    1  0.1422977E-005  0.2125708E+03  0.7546771E-02  0.1143211E+00
         -2   -1    0    0    0  501 -0.00000000000E+00  0.00000000000E+00  0.60819106601E+02  0.60819106601E+02  0.00000000000E+00 0.  1.
          2   -1    0    0  501    0  0.00000000000E+00 -0.00000000000E+00 -0.68666065771E+03  0.68666065771E+03  0.00000000000E+00 0. -1.
         23    2    1    2    0    0  0.16804724072E+03  0.36351283644E+02 -0.33138027357E+03  0.38430793323E+03  0.91205322727E+02 0.  0.
          5    1    1    2  502    0 -0.11669503512E+03  0.35810389530E+02 -0.14744613066E+03  0.19147471548E+03  0.47000000000E+01 0. -1.
         -5    1    1    2    0  502 -0.51352205600E+02 -0.72161673174E+02 -0.14701514688E+03  0.17169711561E+03  0.47000000000E+01 0. -1.
        -11    1    3    3    0    0  0.86285477660E+02 -0.21534994664E+02 -0.20173401871E+03  0.22046667312E+03  0.00000000000E+00 0. -1.
         11    1    3    3    0    0  0.81761763063E+02  0.57886278308E+02 -0.12964625485E+03  0.16384126011E+03  0.00000000000E+00 0.  1.
<mgrwt>
<rscale>  0 0.20793543E+03</rscale>
<asrwt>0</asrwt>
<pdfrwt beam="2">  1        2 0.10564010E+00 0.21257078E+03</pdfrwt>
<pdfrwt beam="1">  1       -2 0.93567858E-02 0.21257078E+03</pdfrwt>
<totfact> 0.31404748E+03</totfact>
</mgrwt>
</event>
<event>
 7    1  0.1422977E-005  0.1883936E+03  0.7546771E-02  0.1164900E+00
         -2   -1    0    0    0  501 -0.00000000000E+00  0.00000000000E+00  0.25591682791E+02  0.25591682791E+02  0.00000000000E+00 0. -1.
          2   -1    0    0  501    0  0.00000000000E+00 -0.00000000000E+00 -0.13689273247E+04  0.13689273247E+04  0.00000000000E+00 0.  1.
         23    2    1    2    0    0 -0.14083793804E+03  0.59024834692E+01 -0.42269452618E+03  0.45479978960E+03  0.91115432563E+02 0.  0.
          5    1    1    2  502    0  0.17900702618E+02  0.10224120688E+02 -0.51712226767E+03  0.51755434258E+03  0.47000000000E+01 0.  1.
         -5    1    1    2    0  502  0.12293723542E+03 -0.16126604158E+02 -0.40351884801E+03  0.42216487527E+03  0.47000000000E+01 0.  1.
        -11    1    3    3    0    0 -0.13570218258E+03  0.31488945816E+02 -0.38035555884E+03  0.40506417665E+03  0.00000000000E+00 0.  1.
         11    1    3    3    0    0 -0.51357554579E+01 -0.25586462347E+02 -0.42338967348E+02  0.49735612951E+02  0.00000000000E+00 0. -1.
<mgrwt>
<rscale>  0 0.18303206E+03</rscale>
<asrwt>0</asrwt>
<pdfrwt beam="2">  1        2 0.21060423E+00 0.18839359E+03</pdfrwt>
<pdfrwt beam="1">  1       -2 0.39371815E-02 0.18839359E+03</pdfrwt>
<totfact> 0.44930733E+03</totfact>
</mgrwt>
</event>
<event>
 7    1  0.1422977E-005  0.2290972E+03  0.7546771E-02  0.1127277E+00
          1   -1    0    0  501    0  0.00000000000E+00  0.00000000000E+00  0.77024772009E+02  0.77024772009E+02  0.00000000000E+00 0. -1.
         -1   -1    0    0    0  501 -0.00000000000E+00 -0.00000000000E+00 -0.17035268032E+03  0.17035268032E+03  0.00000000000E+00 0.  1.
         23    2    1    2    0    0 -0.28374689666E+02 -0.12854123466E+02 -0.38271824155E+02  0.10727833530E+03  0.95255221358E+02 0.  0.
          5    1    1    2  502    0  0.56899078122E+02  0.53450657178E+02 -0.41068166207E+02  0.88335508826E+02  0.47000000000E+01 0.  1.
         -5    1    1    2    0  502 -0.28524388456E+02 -0.40596533712E+02 -0.13987917951E+02  0.51763608209E+02  0.47000000000E+01 0.  1.
        -11    1    3    3    0    0 -0.29445982803E+02 -0.42806338895E+00 -0.68508776069E+02  0.74570111573E+02  0.00000000000E+00 0.  1.
         11    1    3    3    0    0  0.10712931372E+01 -0.12426060077E+02  0.30236951914E+02  0.32708223723E+02  0.00000000000E+00 0. -1.
<mgrwt>
<rscale>  0 0.22909715E+03</rscale>
<asrwt>0</asrwt>
<pdfrwt beam="1">  1        1 0.11849965E-01 0.22909715E+03</pdfrwt>
<pdfrwt beam="2">  1       -1 0.26208104E-01 0.22909715E+03</pdfrwt>
<totfact> 0.64446446E+03</totfact>
</mgrwt>
</event>
<event>
 7    1  0.1422977E-005  0.1412696E+03  0.7546771E-02  0.1220872E+00
          1   -1    0    0  501    0  0.00000000000E+00  0.00000000000E+00  0.10539965168E+04  0.10539965168E+04  0.00000000000E+00 0. -1.
         -1   -1    0    0    0  501 -0.00000000000E+00 -0.00000000000E+00 -0.28594165882E+02  0.28594165882E+02  0.00000000000E+00 0.  1.
         23    2    1    2    0    0  0.65825244652E+02  0.67127753178E+00  0.12307062950E+03  0.16926728823E+03  0.95768583438E+02 0.  0.
          5    1    1    2  502    0 -0.51080759017E+02  0.54754355261E+02  0.34704310202E+03  0.35506096381E+03  0.47000000000E+01 0.  1.
         -5    1    1    2    0  502 -0.14744485635E+02 -0.55425632793E+02  0.55528861944E+03  0.55826243068E+03  0.47000000000E+01 0.  1.
        -11    1    3    3    0    0  0.58048068393E+02  0.31712657426E+02  0.12012350403E+03  0.13713105813E+03  0.00000000000E+00 0. -1.
         11    1    3    3    0    0  0.77771762585E+01 -0.31041379894E+02  0.29471254671E+01  0.32136230096E+02  0.00000000000E+00 0.  1.
<mgrwt>
<rscale>  0 0.13453906E+03</rscale>
<asrwt>0</asrwt>
<pdfrwt beam="1">  1        1 0.16215328E+00 0.14126956E+03</pdfrwt>
<pdfrwt beam="2">  1       -1 0.43991033E-02 0.14126956E+03</pdfrwt>
<totfact> 0.30669657E+03</totfact>
</mgrwt>
</event>
<event>
 7    1  0.1422977E-005  0.1269446E+03  0.7546771E-02  0.1246661E+00
         -3   -1    0    0    0  501 -0.00000000000E+00  0.00000000000E+00  0.15685657388E+03  0.15685657388E+03  0.00000000000E+00 0.  1.
          3   -1    0    0  501    0  0.00000000000E+00 -0.00000000000E+00 -0.79234006562E+02  0.79234006562E+02  0.00000000000E+00 0. -1.
         23    2    1    2    0    0  0.21584317755E+02  0.26516840332E+01  0.47488879270E+02  0.10561842831E+03  0.91799480080E+02 0.  0.
          5    1    1    2  502    0 -0.32725172301E+02  0.56533917514E+02  0.24012578496E+02  0.69754674808E+02  0.47000000000E+01 0. -1.
         -5    1    1    2    0  502  0.11140854546E+02 -0.59185601547E+02  0.61211095505E+01  0.60717477324E+02  0.47000000000E+01 0. -1.
        -11    1    3    3    0    0 -0.60001546553E+01  0.38511973032E+02  0.46081038091E+02  0.60354254152E+02  0.00000000000E+00 0.  1.
         11    1    3    3    0    0  0.27584472410E+02 -0.35860288999E+02  0.14078411786E+01  0.45264174156E+02  0.00000000000E+00 0. -1.
<mgrwt>
<rscale>  0 0.11786501E+03</rscale>
<asrwt>0</asrwt>
<pdfrwt beam="2">  1        3 0.12189847E-01 0.12694465E+03</pdfrwt>
<pdfrwt beam="1">  1       -3 0.24131780E-01 0.12694465E+03</pdfrwt>
<totfact> 0.19209066E+03</totfact>
</mgrwt>
</event>
<event>
 7    1  0.1422977E-005  0.1818735E+03  0.7546771E-02  0.1171843E+00
         -2   -1    0    0    0  501 -0.00000000000E+00  0.00000000000E+00  0.52707159715E+02  0.52707159715E+02  0.00000000000E+00 0.  1.
          2   -1    0    0  501    0  0.00000000000E+00 -0.00000000000E+00 -0.77405116285E+03  0.77405116285E+03  0.00000000000E+00 0. -1.
         23    2    1    2    0    0 -0.12531872804E+03  0.41792373825E+02 -0.12216073670E+03  0.20058057455E+03  0.88644995298E+02 0.  0.
          5    1    1    2  502    0  0.11109109556E+03 -0.59840890466E+02 -0.58562553357E+03  0.59908390001E+03  0.47000000000E+01 0. -1.
         -5    1    1    2    0  502  0.14227632481E+02  0.18048516641E+02 -0.13557732874E+02  0.27093848004E+02  0.47000000000E+01 0. -1.
        -11    1    3    3    0    0 -0.11800472929E+03  0.16115737139E+02 -0.12626004746E+03  0.17356967679E+03  0.00000000000E+00 0. -1.
         11    1    3    3    0    0 -0.73139987467E+01  0.25676636686E+02  0.40993107590E+01  0.27010897761E+02  0.00000000000E+00 0.  1.
<mgrwt>
<rscale>  0 0.17588840E+03</rscale>
<asrwt>0</asrwt>
<pdfrwt beam="2">  1        2 0.11908478E+00 0.18187354E+03</pdfrwt>
<pdfrwt beam="1">  1       -2 0.81087945E-02 0.18187354E+03</pdfrwt>
<totfact> 0.33809641E+03</totfact>
</mgrwt>
</event>
<event>
 7    1  0.1422977E-005  0.1361195E+03  0.7546771E-02  0.1230017E+00
         -1   -1    0    0    0  501 -0.00000000000E+00  0.00000000000E+00  0.13836309815E+02  0.13836309815E+02  0.00000000000E+00 0.  1.
          1   -1    0    0  501    0  0.00000000000E+00 -0.00000000000E+00 -0.11942265644E+04  0.11942265644E+04  0.00000000000E+00 0. -1.
         23    2    1    2    0    0 -0.37430732143E+02  0.42001716734E+02 -0.33528974069E+03  0.35207023217E+03  0.91482425907E+02 0.  0.
          5    1    1    2  502    0  0.63614437186E+02 -0.21484878776E+02 -0.77844616758E+03  0.78135070388E+03  0.47000000000E+01 0. -1.
         -5    1    1    2    0  502 -0.26183705043E+02 -0.20516837958E+02 -0.66654346262E+02  0.74641938113E+02  0.47000000000E+01 0.  1.
        -11    1    3    3    0    0 -0.10727485196E+02  0.62138878537E+02 -0.13492231899E+03  0.14893069303E+03  0.00000000000E+00 0.  1.
         11    1    3    3    0    0 -0.26703246947E+02 -0.20137161802E+02 -0.20036742171E+03  0.20313953915E+03  0.00000000000E+00 0. -1.
<mgrwt>
<rscale>  0 0.12828886E+03</rscale>
<asrwt>0</asrwt>
<pdfrwt beam="2">  1        1 0.18372710E+00 0.13611952E+03</pdfrwt>
<pdfrwt beam="1">  1       -1 0.21286638E-02 0.13611952E+03</pdfrwt>
<totfact> 0.70420370E+03</totfact>
</mgrwt>
</event>
<event>
 7    1  0.1422977E-005  0.2563797E+03  0.7546771E-02  0.1111621E+00
          2   -1    0    0  501    0  0.00000000000E+00  0.00000000000E+00  0.76906289218E+03  0.76906289218E+03  0.00000000000E+00 0. -1.
         -2   -1    0    0    0  501 -0.00000000000E+00 -0.00000000000E+00 -0.94407102187E+02  0.94407102187E+02  0.00000000000E+00 0.  1.
         23    2    1    2    0    0  0.22366999898E+03 -0.87087638037E+01  0.16458434592E+03  0.29259045377E+03  0.91744513226E+02 0.  0.
          5    1    1    2  502    0 -0.20553325144E+03  0.25616632271E+01  0.32375769502E+03  0.38352524643E+03  0.47000000000E+01 0.  1.
         -5    1    1    2    0  502 -0.18136747541E+02  0.61471005766E+01  0.18631374905E+03  0.18735429417E+03  0.47000000000E+01 0.  1.
        -11    1    3    3    0    0  0.10193287681E+03 -0.43524588412E+02  0.10491706774E+03  0.15261812564E+03  0.00000000000E+00 0. -1.
         11    1    3    3    0    0  0.12173712217E+03  0.34815824609E+02  0.59667278181E+02  0.13997232813E+03  0.00000000000E+00 0.  1.
<mgrwt>
<rscale>  0 0.25268351E+03</rscale>
<asrwt>0</asrwt>
<pdfrwt beam="1">  1        2 0.11831736E+00 0.25637974E+03</pdfrwt>
<pdfrwt beam="2">  1       -2 0.14524170E-01 0.25637974E+03</pdfrwt>
<totfact> 0.13478719E+03</totfact>
</mgrwt>
</event>
<event>
 7    1  0.1422977E-005  0.2923203E+03  0.7546771E-02  0.1126487E+00
          2   -1    0    0  501    0  0.00000000000E+00  0.00000000000E+00  0.26917239174E+04  0.26917239174E+04  0.00000000000E+00 0. -1.
         -2   -1    0    0    0  501 -0.00000000000E+00 -0.00000000000E+00 -0.17611578878E+02  0.17611578878E+02  0.00000000000E+00 0.  1.
         23    2    1    2    0    0 -0.64533550296E+02  0.14555124767E+02  0.36879113944E+03  0.38555473849E+03  0.90934707740E+02 0.  0.
          5    1    1    2  502    0 -0.19432685708E+02 -0.13927778441E+03  0.12190846145E+04  0.12271777857E+04  0.47000000000E+01 0. -1.
         -5    1    1    2    0  502  0.83966236005E+02  0.12472265965E+03  0.10862365846E+04  0.10966029720E+04  0.47000000000E+01 0.  1.
        -11    1    3    3    0    0  0.19504980897E+01  0.37563099972E+02  0.18442487092E+03  0.18822147576E+03  0.00000000000E+00 0. -1.
         11    1    3    3    0    0 -0.66484048386E+02 -0.23007975205E+02  0.18436626851E+03  0.19733326273E+03  0.00000000000E+00 0.  1.
<mgrwt>
<rscale>  0 0.23021653E+03</rscale>
<asrwt>0</asrwt>
<pdfrwt beam="1">  1        2 0.41411104E+00 0.29232034E+03</pdfrwt>
<pdfrwt beam="2">  1       -2 0.27094758E-02 0.29232034E+03</pdfrwt>
<totfact> 0.15424958E+03</totfact>
</mgrwt>
</event>
<event>
 7    1  0.1422977E-005  0.1127020E+03  0.7546771E-02  0.1265300E+00
          1   -1    0    0  501    0  0.00000000000E+00  0.00000000000E+00  0.15632646705E+03  0.15632646705E+03  0.00000000000E+00 0. -1.
         -1   -1    0    0    0  501 -0.00000000000E+00 -0.00000000000E+00 -0.72696705450E+02  0.72696705450E+02  0.00000000000E+00 0.  1.
         23    2    1    2    0    0 -0.13682976745E+02 -0.12399337914E+02  0.86064586781E+01  0.93634007700E+02  0.91390857496E+02 0.  0.
          5    1    1    2  502    0  0.31261360107E+01  0.19964221800E+02  0.10253084380E+03  0.10460882758E+03  0.47000000000E+01 0. -1.
         -5    1    1    2    0  502  0.10556840734E+02 -0.75648838862E+01 -0.27507540872E+02  0.30780337219E+02  0.47000000000E+01 0.  1.
        -11    1    3    3    0    0  0.28738028601E+02  0.15603807657E+02  0.23955710401E+02  0.40536763093E+02  0.00000000000E+00 0. -1.
         11    1    3    3    0    0 -0.42421005346E+02 -0.28003145571E+02 -0.15349251723E+02  0.53097244607E+02  0.00000000000E+00 0.  1.
<mgrwt>
<rscale>  0 0.10748464E+03</rscale>
<asrwt>0</asrwt>
<pdfrwt beam="1">  1        1 0.24050226E-01 0.11270195E+03</pdfrwt>
<pdfrwt beam="2">  1       -1 0.11184109E-01 0.11270195E+03</pdfrwt>
<totfact> 0.95475808E+03</totfact>
</mgrwt>
</event>
<event>
 7    1  0.1422977E-005  0.1371436E+03  0.7546771E-02  0.1229748E+00
          4   -1    0    0  501    0  0.00000000000E+00  0.00000000000E+00  0.14922168538E+03  0.14922168538E+03  0.00000000000E+00 0.  1.
         -4   -1    0    0    0  501 -0.00000000000E+00 -0.00000000000E+00 -0.11188931702E+03  0.11188931702E+03  0.00000000000E+00 0. -1.
         23    2    1    2    0    0  0.54510432581E+02 -0.14563069154E+02 -0.27935656935E+02  0.10922853099E+03  0.89258057404E+02 0.  0.
          5    1    1    2  502    0 -0.12221618445E+02 -0.53179823808E+02  0.12893462763E+02  0.56265380117E+02  0.47000000000E+01 0. -1.
         -5    1    1    2    0  502 -0.42288814136E+02  0.67742892962E+02  0.52374562531E+02  0.95617091298E+02  0.47000000000E+01 0. -1.
        -11    1    3    3    0    0  0.29755600638E+02 -0.39998386175E+02  0.16358937719E+02  0.52467909327E+02  0.00000000000E+00 0.  1.
         11    1    3    3    0    0  0.24754831944E+02  0.25435317020E+02 -0.44294594654E+02  0.56760621667E+02  0.00000000000E+00 0. -1.
<mgrwt>
<rscale>  0 0.12846752E+03</rscale>
<asrwt>0</asrwt>
<pdfrwt beam="1">  1        4 0.22957182E-01 0.13714361E+03</pdfrwt>
<pdfrwt beam="2">  1       -4 0.17213741E-01 0.13714361E+03</pdfrwt>
<totfact> 0.85811217E+02</totfact>
</mgrwt>
</event>
<event>
 7    1  0.1422977E-005  0.1289477E+03  0.7546771E-02  0.1241542E+00
          1   -1    0    0  501    0  0.00000000000E+00  0.00000000000E+00  0.10008709195E+03  0.10008709195E+03  0.00000000000E+00 0. -1.
         -1   -1    0    0    0  501 -0.00000000000E+00 -0.00000000000E+00 -0.28006068534E+03  0.28006068534E+03  0.00000000000E+00 0.  1.
         23    2    1    2    0    0 -0.14839922122E+02  0.27933729102E+02 -0.22291538841E+03  0.24423787841E+03  0.94659148256E+02 0.  0.
          5    1    1    2  502    0  0.68666890338E+02 -0.73330607005E+01  0.11748008565E+02  0.70206989063E+02  0.47000000000E+01 0.  1.
         -5    1    1    2    0  502 -0.53826968217E+02 -0.20600668402E+02  0.31193786455E+02  0.65702909824E+02  0.47000000000E+01 0.  1.
        -11    1    3    3    0    0 -0.12275761317E+01 -0.33663455089E+02 -0.51065366316E+02  0.61175213843E+02  0.00000000000E+00 0.  1.
         11    1    3    3    0    0 -0.13612345990E+02  0.61597184192E+02 -0.17185002209E+03  0.18306266457E+03  0.00000000000E+00 0. -1.
<mgrwt>
<rscale>  0 0.12094761E+03</rscale>
<asrwt>0</asrwt>
<pdfrwt beam="1">  1        1 0.15398014E-01 0.12894767E+03</pdfrwt>
<pdfrwt beam="2">  1       -1 0.43086259E-01 0.12894767E+03</pdfrwt>
<totfact> 0.18905310E+03</totfact>
</mgrwt>
</event>
<event>
 7    1  0.1422977E-005  0.1251451E+03  0.7546771E-02  0.1251356E+00
         -3   -1    0    0    0  501 -0.00000000000E+00  0.00000000000E+00  0.27238273635E+03  0.27238273635E+03  0.00000000000E+00 0.  1.
          3   -1    0    0  501    0  0.00000000000E+00 -0.00000000000E+00 -0.42907328050E+02  0.42907328050E+02  0.00000000000E+00 0. -1.
         23    2    1    2    0    0  0.50357276686E+01  0.37191702946E+01  0.78163468855E+02  0.11893170547E+03  0.89420534118E+02 0.  0.
          5    1    1    2  502    0 -0.56744360022E+02  0.18287786152E+02  0.11401522921E+03  0.12874753593E+03  0.47000000000E+01 0. -1.
         -5    1    1    2    0  502  0.51708632354E+02 -0.22006956446E+02  0.37296710232E+02  0.67610822995E+02  0.47000000000E+01 0. -1.
        -11    1    3    3    0    0  0.30232513957E+02 -0.24057336485E+02  0.81197707363E+01  0.39480261090E+02  0.00000000000E+00 0.  1.
         11    1    3    3    0    0 -0.25196786289E+02  0.27776506779E+02  0.70043698119E+02  0.79451444382E+02  0.00000000000E+00 0. -1.
<mgrwt>
<rscale>  0 0.11512912E+03</rscale>
<asrwt>0</asrwt>
<pdfrwt beam="2">  1        3 0.66011276E-02 0.12514512E+03</pdfrwt>
<pdfrwt beam="1">  1       -3 0.41905035E-01 0.12514512E+03</pdfrwt>
<totfact> 0.18717379E+03</totfact>
</mgrwt>
</event>
<event>
 7    1  0.1422977E-005  0.1695641E+03  0.7546771E-02  0.1184918E+00
         -2   -1    0    0    0  501 -0.00000000000E+00  0.00000000000E+00  0.42957422477E+02  0.42957422477E+02  0.00000000000E+00 0.  1.
          2   -1    0    0  501    0  0.00000000000E+00 -0.00000000000E+00 -0.90949786898E+03  0.90949786898E+03  0.00000000000E+00 0. -1.
         23    2    1    2    0    0 -0.11036005630E+03  0.30775462292E+02 -0.12677991218E+03  0.19351020346E+03  0.90810691040E+02 0.  0.
          5    1    1    2  502    0  0.41975309154E+02 -0.13773634019E+02 -0.55695207740E+02  0.71243847017E+02  0.47000000000E+01 0.  1.
         -5    1    1    2    0  502  0.68384747144E+02 -0.17001828273E+02 -0.68406532659E+03  0.68770124098E+03  0.47000000000E+01 0.  1.
        -11    1    3    3    0    0 -0.35702035055E+01 -0.18915550138E+02 -0.48246296371E+02  0.51944677337E+02  0.00000000000E+00 0. -1.
         11    1    3    3    0    0 -0.10678985279E+03  0.49691012430E+02 -0.78533615808E+02  0.14156552613E+03  0.00000000000E+00 0.  1.
<mgrwt>
<rscale>  0 0.16339315E+03</rscale>
<asrwt>0</asrwt>
<pdfrwt beam="2">  1        2 0.13992275E+00 0.16956414E+03</pdfrwt>
<pdfrwt beam="1">  1       -2 0.66088343E-02 0.16956414E+03</pdfrwt>
<totfact> 0.37633638E+03</totfact>
</mgrwt>
</event>
<event>
 7    1  0.1422977E-005  0.1906286E+03  0.7546771E-02  0.1162723E+00
         -2   -1    0    0    0  501 -0.00000000000E+00  0.00000000000E+00  0.57291337701E+02  0.57291337701E+02  0.00000000000E+00 0.  1.
          2   -1    0    0  501    0  0.00000000000E+00 -0.00000000000E+00 -0.75526277662E+03  0.75526277662E+03  0.00000000000E+00 0. -1.
         23    2    1    2    0    0  0.54885049590E+02 -0.13304911644E+03 -0.13256024370E+03  0.21587239389E+03  0.91182433500E+02 0.  0.
          5    1    1    2  502    0  0.25748794517E+02  0.70821606636E+02 -0.35406306140E+03  0.36202409012E+03  0.47000000000E+01 0. -1.
         -5    1    1    2    0  502 -0.80633844107E+02  0.62227509804E+02 -0.21134813382E+03  0.23465763031E+03  0.47000000000E+01 0. -1.
        -11    1    3    3    0    0  0.58313349652E+02 -0.14443378693E+03 -0.13165635350E+03  0.20394842723E+03  0.00000000000E+00 0. -1.
         11    1    3    3    0    0 -0.34283000619E+01  0.11384670485E+02 -0.90389020396E+00  0.11923966659E+02  0.00000000000E+00 0.  1.
<mgrwt>
<rscale>  0 0.18535078E+03</rscale>
<asrwt>0</asrwt>
<pdfrwt beam="2">  1        2 0.11619427E+00 0.19062858E+03</pdfrwt>
<pdfrwt beam="1">  1       -2 0.88140519E-02 0.19062858E+03</pdfrwt>
<totfact> 0.30637438E+03</totfact>
</mgrwt>
</event>
<event>
 7    1  0.1422977E-005  0.1146105E+03  0.7546771E-02  0.1262474E+00
         -2   -1    0    0    0  501 -0.00000000000E+00  0.00000000000E+00  0.83513763004E+02  0.83513763004E+02  0.00000000000E+00 0.  1.
          2   -1    0    0  501    0  0.00000000000E+00 -0.00000000000E+00 -0.64259094982E+03  0.64259094982E+03  0.00000000000E+00 0. -1.
         23    2    1    2    0    0 -0.14547673326E+02 -0.44467933082E+01  0.50098226280E+02  0.10624162870E+03  0.92444808524E+02 0.  0.
          5    1    1    2  502    0  0.63065719775E+02 -0.93055152577E+01 -0.33162502214E+03  0.33772936345E+03  0.47000000000E+01 0. -1.
         -5    1    1    2    0  502 -0.48518046449E+02  0.13752308566E+02 -0.27755039095E+03  0.28213372067E+03  0.47000000000E+01 0.  1.
        -11    1    3    3    0    0  0.10560656701E+02 -0.22728538478E+02  0.66537128048E+02  0.71100656398E+02  0.00000000000E+00 0.  1.
         11    1    3    3    0    0 -0.25108330027E+02  0.18281745170E+02 -0.16438901768E+02  0.35140972305E+02  0.00000000000E+00 0. -1.
<mgrwt>
<rscale>  0 0.10897811E+03</rscale>
<asrwt>0</asrwt>
<pdfrwt beam="2">  1        2 0.98860143E-01 0.11461047E+03</pdfrwt>
<pdfrwt beam="1">  1       -2 0.12848272E-01 0.11461047E+03</pdfrwt>
<totfact> 0.20167288E+03</totfact>
</mgrwt>
</event>
<event>
 7    1  0.1422977E-005  0.1452059E+03  0.7546771E-02  0.1215658E+00
         -3   -1    0    0    0  501 -0.00000000000E+00  0.00000000000E+00  0.24306336181E+03  0.24306336181E+03  0.00000000000E+00 0.  1.
          3   -1    0    0  501    0  0.00000000000E+00 -0.00000000000E+00 -0.82646520542E+02  0.82646520542E+02  0.00000000000E+00 0. -1.
         23    2    1    2    0    0  0.59567774193E+02 -0.43707282801E+02  0.13152041942E+03  0.17765670872E+03  0.93838367073E+02 0.  0.
          5    1    1    2  502    0  0.23081094127E+02 -0.17936652767E+02  0.33537425966E+02  0.44735996234E+02  0.47000000000E+01 0.  1.
         -5    1    1    2    0  502 -0.82648868320E+02  0.61643935568E+02 -0.46410041209E+01  0.10331717740E+03  0.47000000000E+01 0.  1.
        -11    1    3    3    0    0  0.56618645915E+02  0.15647334484E+02  0.78276570527E+02  0.97865885962E+02  0.00000000000E+00 0. -1.
         11    1    3    3    0    0  0.29491282780E+01 -0.59354617286E+02  0.53243848897E+02  0.79790822756E+02  0.00000000000E+00 0.  1.
<mgrwt>
<rscale>  0 0.13828317E+03</rscale>
<asrwt>0</asrwt>
<pdfrwt beam="2">  1        3 0.12714849E-01 0.14520585E+03</pdfrwt>
<pdfrwt beam="1">  1       -3 0.37394363E-01 0.14520585E+03</pdfrwt>
<totfact> 0.81313746E+02</totfact>
</mgrwt>
</event>
<event>
 7    1  0.1422977E-005  0.1311270E+03  0.7546771E-02  0.1240193E+00
         -2   -1    0    0    0  501 -0.00000000000E+00  0.00000000000E+00  0.32284156214E+02  0.32284156214E+02  0.00000000000E+00 0. -1.
          2   -1    0    0  501    0  0.00000000000E+00 -0.00000000000E+00 -0.40547153195E+03  0.40547153195E+03  0.00000000000E+00 0.  1.
         23    2    1    2    0    0 -0.36810356547E+02  0.14606340322E+02 -0.15122452256E+03  0.17995382489E+03  0.89141322307E+02 0.  0.
          5    1    1    2  502    0  0.24695704816E+02  0.74842395534E+01 -0.22957321787E+03  0.23106675235E+03  0.47000000000E+01 0. -1.
         -5    1    1    2    0  502  0.12114651731E+02 -0.22090579875E+02  0.76103646878E+01  0.26735110930E+02  0.47000000000E+01 0. -1.
        -11    1    3    3    0    0 -0.64229403251E+02  0.20955703249E+01 -0.79997220172E+02  0.10261268388E+03  0.00000000000E+00 0. -1.
         11    1    3    3    0    0  0.27419046704E+02  0.12510769997E+02 -0.71227302384E+02  0.77341141012E+02  0.00000000000E+00 0.  1.
<mgrwt>
<rscale>  0 0.12177762E+03</rscale>
<asrwt>0</asrwt>
<pdfrwt beam="2">  1        2 0.62380239E-01 0.13112701E+03</pdfrwt>
<pdfrwt beam="1">  1       -2 0.49667930E-02 0.13112701E+03</pdfrwt>
<totfact> 0.14630260E+04</totfact>
</mgrwt>
</event>
<event>
 7    1  0.1422977E-005  0.1211811E+03  0.7546771E-02  0.1249800E+00
          2   -1    0    0  501    0  0.00000000000E+00  0.00000000000E+00  0.11974966205E+04  0.11974966205E+04  0.00000000000E+00 0. -1.
         -2   -1    0    0    0  501 -0.00000000000E+00 -0.00000000000E+00 -0.11511493076E+02  0.11511493076E+02  0.00000000000E+00 0.  1.
         23    2    1    2    0    0  0.11123432604E+01  0.32180807099E+02  0.35805791519E+03  0.37225944207E+03  0.96616664857E+02 0.  0.
          5    1    1    2  502    0  0.16801143213E+02 -0.60193990288E+02  0.73964126550E+03  0.74229164519E+03  0.47000000000E+01 0. -1.
         -5    1    1    2    0  502 -0.17913486474E+02  0.28013183189E+02  0.88285946691E+02  0.94457026278E+02  0.47000000000E+01 0.  1.
        -11    1    3    3    0    0  0.31636300587E+02  0.52846146283E+02  0.17487406428E+03  0.18540363818E+03  0.00000000000E+00 0.  1.
         11    1    3    3    0    0 -0.30523957327E+02 -0.20665339184E+02  0.18318385091E+03  0.18685580390E+03  0.00000000000E+00 0. -1.
<mgrwt>
<rscale>  0 0.11602648E+03</rscale>
<asrwt>0</asrwt>
<pdfrwt beam="1">  1        2 0.18423015E+00 0.12118115E+03</pdfrwt>
<pdfrwt beam="2">  1       -2 0.17709999E-02 0.12118115E+03</pdfrwt>
<totfact> 0.17662791E+04</totfact>
</mgrwt>
</event>
<event>
 7    1  0.1422977E-005  0.1324963E+03  0.7546771E-02  0.1236895E+00
          1   -1    0    0  501    0  0.00000000000E+00  0.00000000000E+00  0.38914950848E+03  0.38914950848E+03  0.00000000000E+00 0. -1.
         -1   -1    0    0    0  501 -0.00000000000E+00 -0.00000000000E+00 -0.35898411088E+02  0.35898411088E+02  0.00000000000E+00 0.  1.
         23    2    1    2    0    0  0.43574041354E+02  0.56929686619E+01  0.12126671683E+03  0.15789247299E+03  0.91067609198E+02 0.  0.
          5    1    1    2  502    0  0.34995106328E+02 -0.32592393299E+02  0.67779276904E+02  0.83084546972E+02  0.47000000000E+01 0.  1.
         -5    1    1    2    0  502 -0.78569147682E+02  0.26899424637E+02  0.16420510366E+03  0.18407089961E+03  0.47000000000E+01 0.  1.
        -11    1    3    3    0    0 -0.13357695700E+02  0.22999732230E+02  0.46901825579E+01  0.27007656868E+02  0.00000000000E+00 0.  1.
         11    1    3    3    0    0  0.56931737054E+02 -0.17306763568E+02  0.11657653427E+03  0.13088481613E+03  0.00000000000E+00 0. -1.
<mgrwt>
<rscale>  0 0.12383908E+03</rscale>
<asrwt>0</asrwt>
<pdfrwt beam="1">  1        1 0.59869152E-01 0.13249634E+03</pdfrwt>
<pdfrwt beam="2">  1       -1 0.55228327E-02 0.13249634E+03</pdfrwt>
<totfact> 0.90251178E+03</totfact>
</mgrwt>
</event>
<event>
 7    1  0.1422977E-005  0.1298843E+03  0.7546771E-02  0.1239305E+00
          2   -1    0    0  501    0  0.00000000000E+00  0.00000000000E+00  0.42028544240E+03  0.42028544240E+03  0.00000000000E+00 0. -1.
         -2   -1    0    0    0  501 -0.00000000000E+00 -0.00000000000E+00 -0.59360368943E+02  0.59360368943E+02  0.00000000000E+00 0.  1.
         23    2    1    2    0    0 -0.66583013156E+01  0.41421018082E+02  0.67661257760E+01  0.10242109679E+03  0.93189414072E+02 0.  0.
          5    1    1    2  502    0  0.49887657385E+02 -0.31425332595E+02  0.30563425734E+03  0.31130486528E+03  0.47000000000E+01 0. -1.
         -5    1    1    2    0  502 -0.43229356070E+02 -0.99956854871E+01  0.48524690334E+02  0.65919849261E+02  0.47000000000E+01 0.  1.
        -11    1    3    3    0    0 -0.46105869875E+02  0.31798941718E+02  0.20371785884E+02  0.59598100569E+02  0.00000000000E+00 0.  1.
         11    1    3    3    0    0  0.39447568559E+02  0.96220763637E+01 -0.13605660108E+02  0.42822996226E+02  0.00000000000E+00 0. -1.
<mgrwt>
<rscale>  0 0.12232842E+03</rscale>
<asrwt>0</asrwt>
<pdfrwt beam="1">  1        2 0.64659297E-01 0.12988428E+03</pdfrwt>
<pdfrwt beam="2">  1       -2 0.91323647E-02 0.12988428E+03</pdfrwt>
<totfact> 0.55531033E+03</totfact>
</mgrwt>
</event>
<event>
 7    1  0.1422977E-005  0.1584939E+03  0.7546771E-02  0.1198177E+00
         -2   -1    0    0    0  501 -0.00000000000E+00  0.00000000000E+00  0.19496045211E+03  0.19496045211E+03  0.00000000000E+00 0.  1.
          2   -1    0    0  501    0  0.00000000000E+00 -0.00000000000E+00 -0.11338737048E+03  0.11338737048E+03  0.00000000000E+00 0. -1.
         23    2    1    2    0    0  0.83514741867E+02  0.50216160531E+02  0.66061637932E+02  0.14909667123E+03  0.91483891908E+02 0.  0.
          5    1    1    2  502    0 -0.57381478789E+02  0.56305249245E+01  0.59790925547E+02  0.83194841768E+02  0.47000000000E+01 0. -1.
         -5    1    1    2    0  502 -0.26133263078E+02 -0.55846685456E+02 -0.44279481844E+02  0.76056309586E+02  0.47000000000E+01 0. -1.
        -11    1    3    3    0    0  0.57504767133E+02  0.59860070833E+02  0.82352006009E+02  0.11692681137E+03  0.00000000000E+00 0.  1.
         11    1    3    3    0    0  0.26009974734E+02 -0.96439103012E+01 -0.16290368077E+02  0.32169859864E+02  0.00000000000E+00 0. -1.
<mgrwt>
<rscale>  0 0.15188396E+03</rscale>
<asrwt>0</asrwt>
<pdfrwt beam="2">  1        2 0.17444211E-01 0.15849393E+03</pdfrwt>
<pdfrwt beam="1">  1       -2 0.29993916E-01 0.15849393E+03</pdfrwt>
<totfact> 0.32317015E+03</totfact>
</mgrwt>
</event>
<event>
 7    1  0.1422977E-005  0.2337706E+03  0.7546771E-02  0.1126792E+00
          2   -1    0    0  501    0  0.00000000000E+00  0.00000000000E+00  0.38535094134E+03  0.38535094134E+03  0.00000000000E+00 0. -1.
         -2   -1    0    0    0  501 -0.00000000000E+00 -0.00000000000E+00 -0.13254471358E+03  0.13254471358E+03  0.00000000000E+00 0.  1.
         23    2    1    2    0    0  0.10985292962E+03 -0.16420579802E+03  0.12319191001E+03  0.25059702522E+03  0.92689870562E+02 0.  0.
          5    1    1    2  502    0 -0.38330050079E+02  0.15684551184E+03  0.94529611337E+02  0.18715673844E+03  0.47000000000E+01 0.  1.
         -5    1    1    2    0  502 -0.71522879541E+02  0.73602861819E+01  0.35084706423E+02  0.80141891264E+02  0.47000000000E+01 0.  1.
        -11    1    3    3    0    0  0.72996337395E+02 -0.14054696332E+03  0.51408050407E+02  0.16650736266E+03  0.00000000000E+00 0.  1.
         11    1    3    3    0    0  0.36856592225E+02 -0.23658834700E+02  0.71783859601E+02  0.84089662558E+02  0.00000000000E+00 0. -1.
<mgrwt>
<rscale>  0 0.22978362E+03</rscale>
<asrwt>0</asrwt>
<pdfrwt beam="1">  1        2 0.59284759E-01 0.23377058E+03</pdfrwt>
<pdfrwt beam="2">  1       -2 0.20391495E-01 0.23377058E+03</pdfrwt>
<totfact> 0.16836811E+03</totfact>
</mgrwt>
</event>
<event>
 7    1  0.1422977E-005  0.1456383E+03  0.7546771E-02  0.1211329E+00
         -2   -1    0    0    0  501 -0.00000000000E+00  0.00000000000E+00  0.33220679133E+02  0.33220679133E+02  0.00000000000E+00 0.  1.
          2   -1    0    0  501    0  0.00000000000E+00 -0.00000000000E+00 -0.57107002719E+03  0.57107002719E+03  0.00000000000E+00 0. -1.
         23    2    1    2    0    0  0.72050395287E+02 -0.59080634656E+02 -0.24672378428E+03  0.27876865374E+03  0.90319188032E+02 0.  0.
          5    1    1    2  502    0  0.24627453098E+02  0.12022656127E+02 -0.12144632536E+03  0.12458874608E+03  0.47000000000E+01 0. -1.
         -5    1    1    2    0  502 -0.96677848385E+02  0.47057978530E+02 -0.16967923842E+03  0.20093330651E+03  0.47000000000E+01 0.  1.
        -11    1    3    3    0    0 -0.21410383275E+02 -0.92761786294E+01 -0.35478369729E+02  0.42463710631E+02  0.00000000000E+00 0.  1.
         11    1    3    3    0    0  0.93460778561E+02 -0.49804456027E+02 -0.21124541455E+03  0.23630494311E+03  0.00000000000E+00 0. -1.
<mgrwt>
<rscale>  0 0.14149703E+03</rscale>
<asrwt>0</asrwt>
<pdfrwt beam="2">  1        2 0.87856924E-01 0.14563829E+03</pdfrwt>
<pdfrwt beam="1">  1       -2 0.51108739E-02 0.14563829E+03</pdfrwt>
<totfact> 0.97084304E+03</totfact>
</mgrwt>
</event>
<event>
 7    1  0.1422977E-005  0.1368757E+03  0.7546771E-02  0.1228101E+00
         -2   -1    0    0    0  501 -0.00000000000E+00  0.00000000000E+00  0.89530566674E+02  0.89530566674E+02  0.00000000000E+00 0.  1.
          2   -1    0    0  501    0  0.00000000000E+00 -0.00000000000E+00 -0.17063239566E+03  0.17063239566E+03  0.00000000000E+00 0. -1.
         23    2    1    2    0    0  0.53190084501E+02  0.16782425398E+02 -0.28542755872E+02  0.11354303964E+03  0.94691594380E+02 0.  0.
          5    1    1    2  502    0  0.13614261004E+02  0.12581568868E+02  0.30474124249E+02  0.35977857449E+02  0.47000000000E+01 0. -1.
         -5    1    1    2    0  502 -0.66804345505E+02 -0.29363994266E+02 -0.83033197360E+02  0.11064206524E+03  0.47000000000E+01 0. -1.
        -11    1    3    3    0    0  0.33841008346E+02  0.54721733546E+01  0.33283283191E+02  0.47780073955E+02  0.00000000000E+00 0.  1.
         11    1    3    3    0    0  0.19349076154E+02  0.11310252043E+02 -0.61826039063E+02  0.65762965684E+02  0.00000000000E+00 0. -1.
<mgrwt>
<rscale>  0 0.12956600E+03</rscale>
<asrwt>0</asrwt>
<pdfrwt beam="2">  1        2 0.26251138E-01 0.13687566E+03</pdfrwt>
<pdfrwt beam="1">  1       -2 0.13773933E-01 0.13687566E+03</pdfrwt>
<totfact> 0.76090599E+03</totfact>
</mgrwt>
</event>
<event>
 7    1  0.1682478E-005  0.2620112E+03  0.7546771E-02  0.1108339E+00
         -2   -1    0    0    0  501 -0.00000000000E+00  0.00000000000E+00  0.34368874835E+03  0.34368874835E+03  0.00000000000E+00 0.  1.
          2   -1    0    0  501    0  0.00000000000E+00 -0.00000000000E+00 -0.21326783912E+03  0.21326783912E+03  0.00000000000E+00 0. -1.
         23    2    1    2    0    0  0.15258207251E+03 -0.17246145522E+03  0.15921092117E+03  0.29336844113E+03  0.87707938333E+02 0.  0.
          5    1    1    2  502    0 -0.14245654001E+03  0.11592292947E+03  0.24186844804E+02  0.18530808085E+03  0.47000000000E+01 0.  1.
         -5    1    1    2    0  502 -0.10125532505E+02  0.56538525749E+02 -0.52976856738E+02  0.78280065484E+02  0.47000000000E+01 0.  1.
        -11    1    3    3    0    0  0.84012249137E+02 -0.59476361810E+02  0.11421383062E+03  0.15375400718E+03  0.00000000000E+00 0.  1.
         11    1    3    3    0    0  0.68569823376E+02 -0.11298509341E+03  0.44997090544E+02  0.13961443395E+03  0.00000000000E+00 0. -1.
<mgrwt>
<rscale>  0 0.25802011E+03</rscale>
<asrwt>0</asrwt>
<pdfrwt beam="2">  1        2 0.32810437E-01 0.26201116E+03</pdfrwt>
<pdfrwt beam="1">  1       -2 0.52875192E-01 0.26201116E+03</pdfrwt>
<totfact> 0.54652619E+02</totfact>
</mgrwt>
</event>
<event>
 7    1  0.1422977E-005  0.1742665E+03  0.7546771E-02  0.1180134E+00
          2   -1    0    0  501    0  0.00000000000E+00  0.00000000000E+00  0.15214084114E+03  0.15214084114E+03  0.00000000000E+00 0. -1.
         -2   -1    0    0    0  501 -0.00000000000E+00 -0.00000000000E+00 -0.18132411563E+03  0.18132411563E+03  0.00000000000E+00 0.  1.
         23    2    1    2    0    0 -0.41098806768E+02  0.11425533856E+03 -0.49866096483E+02  0.15797536468E+03  0.87898771099E+02 0.  0.
          5    1    1    2  502    0 -0.42953242680E+02 -0.53554180385E+02 -0.35810621652E+01  0.68905335785E+02  0.47000000000E+01 0.  1.
         -5    1    1    2    0  502  0.84052049448E+02 -0.60701158171E+02  0.24263884157E+02  0.10658425631E+03  0.47000000000E+01 0.  1.
        -11    1    3    3    0    0 -0.34197088492E+02  0.12642817207E+03 -0.56317633617E+02  0.14256647366E+03  0.00000000000E+00 0.  1.
         11    1    3    3    0    0 -0.69017182760E+01 -0.12172833519E+02  0.64515371348E+01  0.15408891019E+02  0.00000000000E+00 0. -1.
<mgrwt>
<rscale>  0 0.16782623E+03</rscale>
<asrwt>0</asrwt>
<pdfrwt beam="1">  1        2 0.23406284E-01 0.17426651E+03</pdfrwt>
<pdfrwt beam="2">  1       -2 0.27896017E-01 0.17426651E+03</pdfrwt>
<totfact> 0.26475469E+03</totfact>
</mgrwt>
</event>
<event>
 7    1  0.1422977E-005  0.2104082E+03  0.7546771E-02  0.1144854E+00
          1   -1    0    0  501    0  0.00000000000E+00  0.00000000000E+00  0.88447297632E+02  0.88447297632E+02  0.00000000000E+00 0. -1.
         -1   -1    0    0    0  501 -0.00000000000E+00 -0.00000000000E+00 -0.53625109277E+03  0.53625109277E+03  0.00000000000E+00 0.  1.
         23    2    1    2    0    0  0.13515792559E+03 -0.10186594367E+03 -0.33338020857E+03  0.38518977355E+03  0.92652376395E+02 0.  0.
          5    1    1    2  502    0 -0.65092419944E+02  0.76341398439E+02 -0.12889259343E+03  0.16340264040E+03  0.47000000000E+01 0. -1.
         -5    1    1    2    0  502 -0.70065505650E+02  0.25524545227E+02  0.14469006866E+02  0.76105976445E+02  0.47000000000E+01 0. -1.
        -11    1    3    3    0    0 -0.10675068991E+02 -0.10350436282E+02 -0.62348965169E+02  0.64097442124E+02  0.00000000000E+00 0.  1.
         11    1    3    3    0    0  0.14583299458E+03 -0.91515507383E+02 -0.27103124340E+03  0.32109233143E+03  0.00000000000E+00 0. -1.
<mgrwt>
<rscale>  0 0.20590027E+03</rscale>
<asrwt>0</asrwt>
<pdfrwt beam="1">  1        1 0.13607277E-01 0.21040822E+03</pdfrwt>
<pdfrwt beam="2">  1       -1 0.82500166E-01 0.21040822E+03</pdfrwt>
<totfact> 0.64833100E+02</totfact>
</mgrwt>
</event>
<event>
 7    1  0.1582655E-005  0.1786122E+03  0.7546771E-02  0.1175309E+00
          2   -1    0    0  501    0  0.00000000000E+00  0.00000000000E+00  0.22201470186E+03  0.22201470186E+03  0.00000000000E+00 0. -1.
         -2   -1    0    0    0  501 -0.00000000000E+00 -0.00000000000E+00 -0.12983468137E+03  0.12983468137E+03  0.00000000000E+00 0.  1.
         23    2    1    2    0    0  0.10786874717E+03  0.68129130309E+02  0.10914307930E+02  0.15561878173E+03  0.88435502462E+02 0.  0.
          5    1    1    2  502    0 -0.10391789531E+03 -0.90140918532E+02  0.97082980941E+02  0.16843844380E+03  0.47000000000E+01 0.  1.
         -5    1    1    2    0  502 -0.39508518552E+01  0.22011788223E+02 -0.15817268378E+02  0.27792157709E+02  0.47000000000E+01 0.  1.
        -11    1    3    3    0    0  0.32857041497E+02  0.41004623908E+02  0.44707163888E+02  0.68990541820E+02  0.00000000000E+00 0. -1.
         11    1    3    3    0    0  0.75011705672E+02  0.27124506401E+02 -0.33792855958E+02  0.86628239905E+02  0.00000000000E+00 0.  1.
<mgrwt>
<rscale>  0 0.17245716E+03</rscale>
<asrwt>0</asrwt>
<pdfrwt beam="1">  1        2 0.34156108E-01 0.17861224E+03</pdfrwt>
<pdfrwt beam="2">  1       -2 0.19974566E-01 0.17861224E+03</pdfrwt>
<totfact> 0.31315710E+03</totfact>
</mgrwt>
</event>
<event>
 7    1  0.1422977E-005  0.1590258E+03  0.7546771E-02  0.1197299E+00
          4   -1    0    0  501    0  0.00000000000E+00  0.00000000000E+00  0.59389008469E+02  0.59389008469E+02  0.00000000000E+00 0. -1.
         -4   -1    0    0    0  501 -0.00000000000E+00 -0.00000000000E+00 -0.37828339861E+03  0.37828339861E+03  0.00000000000E+00 0.  1.
         23    2    1    2    0    0  0.86344756174E+02  0.47002600701E+02 -0.18978448178E+03  0.23283447128E+03  0.92353018894E+02 0.  0.
          5    1    1    2  502    0 -0.24822843475E+02 -0.49341263840E+02  0.65193620233E+01  0.55815105094E+02  0.47000000000E+01 0.  1.
         -5    1    1    2    0  502 -0.61521912699E+02  0.23386631385E+01 -0.13562927038E+03  0.14902283071E+03  0.47000000000E+01 0.  1.
        -11    1    3    3    0    0  0.68372178887E+02  0.65641770741E+02 -0.93534984061E+02  0.13316302097E+03  0.00000000000E+00 0.  1.
         11    1    3    3    0    0  0.17972577286E+02 -0.18639170040E+02 -0.96249497721E+02  0.99671450304E+02  0.00000000000E+00 0. -1.
<mgrwt>
<rscale>  0 0.15261281E+03</rscale>
<asrwt>0</asrwt>
<pdfrwt beam="1">  1        4 0.91367704E-02 0.15902582E+03</pdfrwt>
<pdfrwt beam="2">  1       -4 0.58197447E-01 0.15902582E+03</pdfrwt>
<totfact> 0.42802001E+02</totfact>
</mgrwt>
</event>
<event>
 7    1  0.1422977E-005  0.1786064E+03  0.7546771E-02  0.1175102E+00
          2   -1    0    0  501    0  0.00000000000E+00  0.00000000000E+00  0.39711483150E+03  0.39711483150E+03  0.00000000000E+00 0.  1.
         -2   -1    0    0    0  501 -0.00000000000E+00 -0.00000000000E+00 -0.76196936802E+02  0.76196936802E+02  0.00000000000E+00 0. -1.
         23    2    1    2    0    0  0.12758774299E+03  0.12913700517E+01  0.85724458930E+02  0.17798789835E+03  0.89725744935E+02 0.  0.
          5    1    1    2  502    0 -0.14168014279E+03 -0.18941796080E+02  0.15079806780E+03  0.20783214802E+03  0.47000000000E+01 0.  1.
         -5    1    1    2    0  502  0.14092399803E+02  0.17650426028E+02  0.84395367971E+02  0.87491721929E+02  0.47000000000E+01 0.  1.
        -11    1    3    3    0    0  0.72846399920E+02 -0.30555110432E+02  0.10556374733E+02  0.79697238361E+02  0.00000000000E+00 0. -1.
         11    1    3    3    0    0  0.54741343066E+02  0.31846480483E+02  0.75168084197E+02  0.98290659992E+02  0.00000000000E+00 0.  1.
<mgrwt>
<rscale>  0 0.17266039E+03</rscale>
<asrwt>0</asrwt>
<pdfrwt beam="1">  1        2 0.61094588E-01 0.17860637E+03</pdfrwt>
<pdfrwt beam="2">  1       -2 0.11722606E-01 0.17860637E+03</pdfrwt>
<totfact> 0.40420928E+03</totfact>
</mgrwt>
</event>
<event>
 7    1  0.1422977E-005  0.1661372E+03  0.7546771E-02  0.1188022E+00
          1   -1    0    0  501    0  0.00000000000E+00  0.00000000000E+00  0.96972627935E+02  0.96972627935E+02  0.00000000000E+00 0. -1.
         -1   -1    0    0    0  501 -0.00000000000E+00 -0.00000000000E+00 -0.24992007420E+03  0.24992007420E+03  0.00000000000E+00 0.  1.
         23    2    1    2    0    0 -0.95391229821E+01  0.10902526150E+03 -0.76662804341E+02  0.16407883858E+03  0.95221726443E+02 0.  0.
          5    1    1    2  502    0  0.63286212997E+02 -0.30387777172E+02 -0.38761981695E+02  0.80331456988E+02  0.47000000000E+01 0.  1.
         -5    1    1    2    0  502 -0.53747090015E+02 -0.78637484327E+02 -0.37522660232E+02  0.10248240657E+03  0.47000000000E+01 0.  1.
        -11    1    3    3    0    0  0.86664039725E+01  0.57714024781E+02  0.12427175805E+02  0.59669505719E+02  0.00000000000E+00 0. -1.
         11    1    3    3    0    0 -0.18205526955E+02  0.51311236717E+02 -0.89089980146E+02  0.10440933286E+03  0.00000000000E+00 0.  1.
<mgrwt>
<rscale>  0 0.16059903E+03</rscale>
<asrwt>0</asrwt>
<pdfrwt beam="1">  1        1 0.14918866E-01 0.16613718E+03</pdfrwt>
<pdfrwt beam="2">  1       -1 0.38449242E-01 0.16613718E+03</pdfrwt>
<totfact> 0.24320408E+03</totfact>
</mgrwt>
</event>
<event>
 7    1  0.1422977E-005  0.1595028E+03  0.7546771E-02  0.1196861E+00
         -1   -1    0    0    0  501 -0.00000000000E+00  0.00000000000E+00  0.19259385613E+02  0.19259385613E+02  0.00000000000E+00 0.  1.
          1   -1    0    0  501    0  0.00000000000E+00 -0.00000000000E+00 -0.12680631907E+04  0.12680631907E+04  0.00000000000E+00 0. -1.
         23    2    1    2    0    0 -0.46309912887E+02  0.87664977032E+02 -0.36309710993E+03  0.38736840928E+03  0.91569738667E+02 0.  0.
          5    1    1    2  502    0  0.23428387379E+02 -0.41005821917E+02 -0.83446334694E+02  0.95998685095E+02  0.47000000000E+01 0. -1.
         -5    1    1    2    0  502  0.22881525509E+02 -0.46659155115E+02 -0.80226036050E+03  0.80395548197E+03  0.47000000000E+01 0. -1.
        -11    1    3    3    0    0 -0.48416619858E+01  0.73611452350E+02 -0.30944936523E+03  0.31812104182E+03  0.00000000000E+00 0. -1.
         11    1    3    3    0    0 -0.41468250901E+02  0.14053524682E+02 -0.53647744702E+02  0.69247367462E+02  0.00000000000E+00 0.  1.
<mgrwt>
<rscale>  0 0.15297810E+03</rscale>
<asrwt>0</asrwt>
<pdfrwt beam="2">  1        1 0.19508666E+00 0.15950283E+03</pdfrwt>
<pdfrwt beam="1">  1       -1 0.29629821E-02 0.15950283E+03</pdfrwt>
<totfact> 0.39006859E+03</totfact>
</mgrwt>
</event>
<event>
 7    1  0.1422977E-005  0.1420304E+03  0.7546771E-02  0.1216770E+00
          1   -1    0    0  501    0  0.00000000000E+00  0.00000000000E+00  0.65569429634E+03  0.65569429634E+03  0.00000000000E+00 0. -1.
         -1   -1    0    0    0  501 -0.00000000000E+00 -0.00000000000E+00 -0.67263600332E+02  0.67263600332E+02  0.00000000000E+00 0.  1.
         23    2    1    2    0    0 -0.77540040167E+02  0.40891716981E+02  0.74665676971E+01  0.12488435174E+03  0.88632732834E+02 0.  0.
          5    1    1    2  502    0  0.29792809286E+02 -0.54239367245E+02  0.49381162061E+03  0.49769621969E+03  0.47000000000E+01 0. -1.
         -5    1    1    2    0  502  0.47747230881E+02  0.13347650264E+02  0.87152507704E+02  0.10037732525E+03  0.47000000000E+01 0.  1.
        -11    1    3    3    0    0 -0.61850059488E+02  0.29727789135E+02 -0.35891346499E+02  0.77442624304E+02  0.00000000000E+00 0.  1.
         11    1    3    3    0    0 -0.15689980679E+02  0.11163927846E+02  0.43357914196E+02  0.47441727436E+02  0.00000000000E+00 0. -1.
<mgrwt>
<rscale>  0 0.13747340E+03</rscale>
<asrwt>0</asrwt>
<pdfrwt beam="1">  1        1 0.10087604E+00 0.14203044E+03</pdfrwt>
<pdfrwt beam="2">  1       -1 0.10348247E-01 0.14203044E+03</pdfrwt>
<totfact> 0.17718697E+03</totfact>
</mgrwt>
</event>
<event>
 7    1  0.1510194E-005  0.1300668E+03  0.7546771E-02  0.1240499E+00
          2   -1    0    0  501    0  0.00000000000E+00  0.00000000000E+00  0.77460712006E+03  0.77460712006E+03  0.00000000000E+00 0. -1.
         -2   -1    0    0    0  501 -0.00000000000E+00 -0.00000000000E+00 -0.17320642185E+02  0.17320642185E+02  0.00000000000E+00 0.  1.
         23    2    1    2    0    0 -0.55316045423E+01  0.35522020694E+02  0.27412772035E+03  0.29156814637E+03  0.92593543576E+02 0.  0.
          5    1    1    2  502    0  0.12470837628E+02  0.21978371911E+01 -0.20089195181E+01  0.13655696141E+02  0.47000000000E+01 0. -1.
         -5    1    1    2    0  502 -0.69392330856E+01 -0.37719857885E+02  0.48516767705E+03  0.48670391973E+03  0.47000000000E+01 0. -1.
        -11    1    3    3    0    0  0.42253696565E+02  0.24167785703E+02  0.16199688362E+03  0.16915214170E+03  0.00000000000E+00 0. -1.
         11    1    3    3    0    0 -0.47785301108E+02  0.11354234992E+02  0.11213083673E+03  0.12241600467E+03  0.00000000000E+00 0.  1.
<mgrwt>
<rscale>  0 0.12158843E+03</rscale>
<asrwt>0</asrwt>
<pdfrwt beam="1">  1        2 0.11917030E+00 0.13006675E+03</pdfrwt>
<pdfrwt beam="2">  1       -2 0.26647148E-02 0.13006675E+03</pdfrwt>
<totfact> 0.17692427E+04</totfact>
</mgrwt>
</event>
<event>
 7    1  0.1422977E-005  0.2255016E+03  0.7546771E-02  0.1132929E+00
          1   -1    0    0  501    0  0.00000000000E+00  0.00000000000E+00  0.85661436524E+03  0.85661436524E+03  0.00000000000E+00 0. -1.
         -1   -1    0    0    0  501 -0.00000000000E+00 -0.00000000000E+00 -0.62168321025E+02  0.62168321025E+02  0.00000000000E+00 0.  1.
         23    2    1    2    0    0  0.65086726172E+02 -0.17603996910E+03  0.22939262107E+03  0.31039438162E+03  0.92181044146E+02 0.  0.
          5    1    1    2  502    0 -0.44363467043E+02 -0.14265894095E+01  0.14966121247E+03  0.15617528896E+03  0.47000000000E+01 0.  1.
         -5    1    1    2    0  502 -0.20723259129E+02  0.17746655851E+03  0.41539221068E+03  0.45221301568E+03  0.47000000000E+01 0.  1.
        -11    1    3    3    0    0  0.98872334291E+01 -0.91356275915E+02  0.16974923630E+03  0.19302468691E+03  0.00000000000E+00 0.  1.
         11    1    3    3    0    0  0.55199492743E+02 -0.84683693181E+02  0.59643384771E+02  0.11736969471E+03  0.00000000000E+00 0. -1.
<mgrwt>
<rscale>  0 0.22128490E+03</rscale>
<asrwt>0</asrwt>
<pdfrwt beam="1">  1        1 0.13178682E+00 0.22550157E+03</pdfrwt>
<pdfrwt beam="2">  1       -1 0.95643577E-02 0.22550157E+03</pdfrwt>
<totfact> 0.13517684E+03</totfact>
</mgrwt>
</event>
<event>
 7    1  0.1422977E-005  0.1461838E+03  0.7546771E-02  0.1215143E+00
          2   -1    0    0  501    0  0.00000000000E+00  0.00000000000E+00  0.49962292027E+03  0.49962292027E+03  0.00000000000E+00 0. -1.
         -2   -1    0    0    0  501 -0.00000000000E+00 -0.00000000000E+00 -0.37862674384E+02  0.37862674384E+02  0.00000000000E+00 0.  1.
         23    2    1    2    0    0 -0.42393635414E+02  0.62835606477E+02  0.13503513500E+03  0.17954843757E+03  0.90871447566E+02 0.  0.
          5    1    1    2  502    0  0.21226911411E+01  0.23439359129E+02  0.18853895122E+03  0.19006034700E+03  0.47000000000E+01 0.  1.
         -5    1    1    2    0  502  0.40270944273E+02 -0.86274965606E+02  0.13818615966E+03  0.16787681009E+03  0.47000000000E+01 0.  1.
        -11    1    3    3    0    0  0.55842012611E+01  0.42308943657E+02  0.96727134150E+01  0.43758329515E+02  0.00000000000E+00 0.  1.
         11    1    3    3    0    0 -0.47977836675E+02  0.20526662819E+02  0.12536242159E+03  0.13579010805E+03  0.00000000000E+00 0. -1.
<mgrwt>
<rscale>  0 0.13866049E+03</rscale>
<asrwt>0</asrwt>
<pdfrwt beam="1">  1        2 0.76865060E-01 0.14618382E+03</pdfrwt>
<pdfrwt beam="2">  1       -2 0.58250272E-02 0.14618382E+03</pdfrwt>
<totfact> 0.92487600E+03</totfact>
</mgrwt>
</event>
<event>
 7    1  0.1422977E-005  0.1412976E+03  0.7546771E-02  0.1222875E+00
         -1   -1    0    0    0  501 -0.00000000000E+00  0.00000000000E+00  0.69634019636E+02  0.69634019636E+02  0.00000000000E+00 0.  1.
          1   -1    0    0  501    0  0.00000000000E+00 -0.00000000000E+00 -0.22935653259E+03  0.22935653259E+03  0.00000000000E+00 0. -1.
         23    2    1    2    0    0  0.10399351631E+02  0.65052777735E+02 -0.66606629110E+02  0.12977007748E+03  0.89798772614E+02 0.  0.
          5    1    1    2  502    0  0.30026760084E+02 -0.88842539491E+02 -0.57104713696E+02  0.10989832333E+03  0.47000000000E+01 0. -1.
         -5    1    1    2    0  502 -0.40426111715E+02  0.23789761755E+02 -0.36011170142E+02  0.59322151409E+02  0.47000000000E+01 0. -1.
        -11    1    3    3    0    0 -0.19037756749E+02  0.39719213946E+02  0.88306101909E+01  0.44922509000E+02  0.00000000000E+00 0.  1.
         11    1    3    3    0    0  0.29437108380E+02  0.25333563790E+02 -0.75437239301E+02  0.84847568483E+02  0.00000000000E+00 0. -1.
<mgrwt>
<rscale>  0 0.13313599E+03</rscale>
<asrwt>0</asrwt>
<pdfrwt beam="2">  1        1 0.35285621E-01 0.14129756E+03</pdfrwt>
<pdfrwt beam="1">  1       -1 0.10712926E-01 0.14129756E+03</pdfrwt>
<totfact> 0.64381234E+03</totfact>
</mgrwt>
</event>
<event>
 7    1  0.1422977E-005  0.1381533E+03  0.7546771E-02  0.1227280E+00
         -1   -1    0    0    0  501 -0.00000000000E+00  0.00000000000E+00  0.18140178465E+03  0.18140178465E+03  0.00000000000E+00 0.  1.
          1   -1    0    0  501    0  0.00000000000E+00 -0.00000000000E+00 -0.12126165383E+03  0.12126165383E+03  0.00000000000E+00 0. -1.
         23    2    1    2    0    0  0.51802934114E+02 -0.27727905440E+02  0.11107327711E+03  0.15542041132E+03  0.91465024163E+02 0.  0.
          5    1    1    2  502    0 -0.72849969969E+02  0.27365718730E+02 -0.79566406438E+02  0.11139525896E+03  0.47000000000E+01 0.  1.
         -5    1    1    2    0  502  0.21047035855E+02  0.36218671053E+00  0.28633260153E+02  0.35847768194E+02  0.47000000000E+01 0.  1.
        -11    1    3    3    0    0  0.27041668293E+02 -0.14839250841E+02  0.12170234109E+03  0.12555044809E+03  0.00000000000E+00 0.  1.
         11    1    3    3    0    0  0.24761265821E+02 -0.12888654599E+02 -0.10629063978E+02  0.29869963233E+02  0.00000000000E+00 0. -1.
<mgrwt>
<rscale>  0 0.13011876E+03</rscale>
<asrwt>0</asrwt>
<pdfrwt beam="2">  1        1 0.18655639E-01 0.13815326E+03</pdfrwt>
<pdfrwt beam="1">  1       -1 0.27907967E-01 0.13815326E+03</pdfrwt>
<totfact> 0.31217710E+03</totfact>
</mgrwt>
</event>
<event>
 7    1  0.1422977E-005  0.1388337E+03  0.7546771E-02  0.1225367E+00
          2   -1    0    0  501    0  0.00000000000E+00  0.00000000000E+00  0.11894111538E+04  0.11894111538E+04  0.00000000000E+00 0. -1.
         -2   -1    0    0    0  501 -0.00000000000E+00 -0.00000000000E+00 -0.16208705167E+02  0.16208705167E+02  0.00000000000E+00 0.  1.
         23    2    1    2    0    0 -0.28007348241E+02 -0.53533564452E+02  0.27466785552E+03  0.29642284197E+03  0.93668651682E+02 0.  0.
          5    1    1    2  502    0  0.31438316873E+02 -0.32574692741E+02  0.46031466527E+03  0.46255935775E+03  0.47000000000E+01 0.  1.
         -5    1    1    2    0  502 -0.34309686325E+01  0.86108257193E+02  0.43821992784E+03  0.44663765925E+03  0.47000000000E+01 0.  1.
        -11    1    3    3    0    0 -0.10462728543E+02 -0.78892656489E+02  0.21502617166E+03  0.22928099449E+03  0.00000000000E+00 0. -1.
         11    1    3    3    0    0 -0.17544619698E+02  0.25359092037E+02  0.59641683861E+02  0.67141847480E+02  0.00000000000E+00 0.  1.
<mgrwt>
<rscale>  0 0.13141780E+03</rscale>
<asrwt>0</asrwt>
<pdfrwt beam="1">  1        2 0.18298626E+00 0.13883372E+03</pdfrwt>
<pdfrwt beam="2">  1       -2 0.24936479E-02 0.13883372E+03</pdfrwt>
<totfact> 0.10945778E+04</totfact>
</mgrwt>
</event>
<event>
 7    1  0.1422977E-005  0.1607223E+03  0.7546771E-02  0.1194130E+00
          1   -1    0    0  501    0  0.00000000000E+00  0.00000000000E+00  0.51051239444E+03  0.51051239444E+03  0.00000000000E+00 0. -1.
         -1   -1    0    0    0  501 -0.00000000000E+00 -0.00000000000E+00 -0.45157938412E+02  0.45157938412E+02  0.00000000000E+00 0.  1.
         23    2    1    2    0    0  0.63592463139E+01 -0.10843290589E+03  0.17871226883E+03  0.22704381556E+03  0.88389388851E+02 0.  0.
          5    1    1    2  502    0  0.10598886644E+02 -0.79370974359E+01 -0.43712020026E+01  0.14715003253E+02  0.47000000000E+01 0. -1.
         -5    1    1    2    0  502 -0.16958132958E+02  0.11637000333E+03  0.29101338920E+03  0.31391151404E+03  0.47000000000E+01 0.  1.
        -11    1    3    3    0    0  0.47344685284E+02 -0.63709063131E+02  0.10097587213E+03  0.12843866513E+03  0.00000000000E+00 0. -1.
         11    1    3    3    0    0 -0.40985438970E+02 -0.44723842763E+02  0.77736396700E+02  0.98605150428E+02  0.00000000000E+00 0.  1.
<mgrwt>
<rscale>  0 0.15528124E+03</rscale>
<asrwt>0</asrwt>
<pdfrwt beam="1">  1        1 0.78540365E-01 0.16072226E+03</pdfrwt>
<pdfrwt beam="2">  1       -1 0.69473755E-02 0.16072226E+03</pdfrwt>
<totfact> 0.45720990E+03</totfact>
</mgrwt>
</event>
<event>
 7    1  0.1422977E-005  0.3544913E+03  0.7546771E-02  0.1061883E+00
          4   -1    0    0  501    0  0.00000000000E+00  0.00000000000E+00  0.11721571294E+04  0.11721571294E+04  0.00000000000E+00 0. -1.
         -4   -1    0    0    0  501 -0.00000000000E+00 -0.00000000000E+00 -0.10957313416E+03  0.10957313416E+03  0.00000000000E+00 0.  1.
         23    2    1    2    0    0 -0.23044500923E+03  0.23861029062E+03  0.37908852966E+03  0.51177562280E+03  0.90368145428E+02 0.  0.
          5    1    1    2  502    0  0.61011515961E+02 -0.42727297236E+02  0.28543858583E+03  0.29503441035E+03  0.47000000000E+01 0. -1.
         -5    1    1    2    0  502  0.16943349327E+03 -0.19588299338E+03  0.39805687974E+03  0.47492023040E+03  0.47000000000E+01 0. -1.
        -11    1    3    3    0    0 -0.76950334057E+02  0.13320586567E+03  0.13424598933E+03  0.20417429371E+03  0.00000000000E+00 0.  1.
         11    1    3    3    0    0 -0.15349467517E+03  0.10540442495E+03  0.24484254033E+03  0.30760132909E+03  0.00000000000E+00 0. -1.
<mgrwt>
<rscale>  0 0.35179060E+03</rscale>
<asrwt>0</asrwt>
<pdfrwt beam="1">  1        4 0.18033186E+00 0.35449132E+03</pdfrwt>
<pdfrwt beam="2">  1       -4 0.16857406E-01 0.35449132E+03</pdfrwt>
<totfact> 0.10977246E+01</totfact>
</mgrwt>
</event>
<event>
 7    1  0.1422977E-005  0.2078870E+03  0.7546771E-02  0.1147237E+00
          1   -1    0    0  501    0  0.00000000000E+00  0.00000000000E+00  0.23538027659E+03  0.23538027659E+03  0.00000000000E+00 0. -1.
         -1   -1    0    0    0  501 -0.00000000000E+00 -0.00000000000E+00 -0.19378915836E+03  0.19378915836E+03  0.00000000000E+00 0.  1.
         23    2    1    2    0    0  0.15615510742E+03 -0.56639835275E+02 -0.59314793678E+02  0.19808717048E+03  0.90154278025E+02 0.  0.
          5    1    1    2  502    0 -0.15186516663E+03  0.46236108746E+01  0.92687201879E+02  0.17803767580E+03  0.47000000000E+01 0. -1.
         -5    1    1    2    0  502 -0.42899407935E+01  0.52016224400E+02  0.82187100291E+01  0.53044588672E+02  0.47000000000E+01 0. -1.
        -11    1    3    3    0    0  0.13438005823E+03 -0.12599762442E+02 -0.22817081527E+02  0.13688452532E+03  0.00000000000E+00 0.  1.
         11    1    3    3    0    0  0.21775049196E+02 -0.44040072832E+02 -0.36497712150E+02  0.61202645162E+02  0.00000000000E+00 0. -1.
<mgrwt>
<rscale>  0 0.20299478E+03</rscale>
<asrwt>0</asrwt>
<pdfrwt beam="1">  1        1 0.36212350E-01 0.20788701E+03</pdfrwt>
<pdfrwt beam="2">  1       -1 0.29813717E-01 0.20788701E+03</pdfrwt>
<totfact> 0.12262686E+03</totfact>
</mgrwt>
</event>
<event>
 7    1  0.1422977E-005  0.1482310E+03  0.7546771E-02  0.1220392E+00
         -3   -1    0    0    0  501 -0.00000000000E+00  0.00000000000E+00  0.19044073209E+02  0.19044073209E+02  0.00000000000E+00 0.  1.
          3   -1    0    0  501    0  0.00000000000E+00 -0.00000000000E+00 -0.91030470137E+03  0.91030470137E+03  0.00000000000E+00 0. -1.
         23    2    1    2    0    0  0.25028803647E+02 -0.75674666281E+02 -0.22628507246E+03  0.24805226654E+03  0.63022986204E+02 0.  0.
          5    1    1    2  502    0 -0.70562331874E+02  0.58994014353E+02 -0.32316693308E+03  0.33603317253E+03  0.47000000000E+01 0. -1.
         -5    1    1    2    0  502  0.45533528226E+02  0.16680651927E+02 -0.34180862262E+03  0.34526333550E+03  0.47000000000E+01 0. -1.
        -11    1    3    3    0    0 -0.47509952502E+01 -0.47318581252E+02 -0.17983081304E+03  0.18601274527E+03  0.00000000000E+00 0.  1.
         11    1    3    3    0    0  0.29779798898E+02 -0.28356085029E+02 -0.46454259425E+02  0.62039521269E+02  0.00000000000E+00 0. -1.
<mgrwt>
<rscale>  0 0.13487784E+03</rscale>
<asrwt>0</asrwt>
<pdfrwt beam="2">  1        3 0.14004688E+00 0.14823104E+03</pdfrwt>
<pdfrwt beam="1">  1       -3 0.29298573E-02 0.14823104E+03</pdfrwt>
<totfact> 0.50747644E+02</totfact>
</mgrwt>
</event>
<event>
 7    1  0.1422977E-005  0.1580330E+03  0.7546771E-02  0.1198613E+00
          2   -1    0    0  501    0  0.00000000000E+00  0.00000000000E+00  0.66450399606E+03  0.66450399606E+03  0.00000000000E+00 0. -1.
         -2   -1    0    0    0  501 -0.00000000000E+00 -0.00000000000E+00 -0.32126263469E+02  0.32126263469E+02  0.00000000000E+00 0.  1.
         23    2    1    2    0    0 -0.16228920126E+02  0.95341096569E+02  0.26708015951E+03  0.29861426237E+03  0.92116033028E+02 0.  0.
          5    1    1    2  502    0  0.41782698179E+01 -0.98914635890E+02  0.37057165941E+03  0.38359745553E+03  0.47000000000E+01 0.  1.
         -5    1    1    2    0  502  0.12050650308E+02  0.35735393213E+01 -0.52740863312E+01  0.14418541630E+02  0.47000000000E+01 0.  1.
        -11    1    3    3    0    0 -0.53568662779E+01  0.39048549907E+02  0.22256706273E+03  0.22603004818E+03  0.00000000000E+00 0. -1.
         11    1    3    3    0    0 -0.10872053848E+02  0.56292546661E+02  0.44513096780E+02  0.72584214189E+02  0.00000000000E+00 0.  1.
<mgrwt>
<rscale>  0 0.15152387E+03</rscale>
<asrwt>0</asrwt>
<pdfrwt beam="1">  1        2 0.10223137E+00 0.15803296E+03</pdfrwt>
<pdfrwt beam="2">  1       -2 0.49425026E-02 0.15803296E+03</pdfrwt>
<totfact> 0.86195879E+03</totfact>
</mgrwt>
</event>
<event>
 7    1  0.1422977E-005  0.1424879E+03  0.7546771E-02  0.1220959E+00
         -1   -1    0    0    0  501 -0.00000000000E+00  0.00000000000E+00  0.52055805803E+02  0.52055805803E+02  0.00000000000E+00 0.  1.
          1   -1    0    0  501    0  0.00000000000E+00 -0.00000000000E+00 -0.33194819919E+03  0.33194819919E+03  0.00000000000E+00 0. -1.
         23    2    1    2    0    0 -0.40183910857E+02 -0.55336837419E+02 -0.79859964647E+02  0.13841130949E+03  0.90017578135E+02 0.  0.
          5    1    1    2  502    0  0.63870833229E+02 -0.16961875963E+02 -0.94550067970E+02  0.11545126213E+03  0.47000000000E+01 0. -1.
         -5    1    1    2    0  502 -0.23686922372E+02  0.72298713382E+02 -0.10548236077E+03  0.13014143338E+03  0.47000000000E+01 0. -1.
        -11    1    3    3    0    0 -0.47827248679E+02 -0.64266413820E+02 -0.27423920789E+02  0.84674016634E+02  0.00000000000E+00 0.  1.
         11    1    3    3    0    0  0.76433378226E+01  0.89295764006E+01 -0.52436043858E+02  0.53737292853E+02  0.00000000000E+00 0. -1.
<mgrwt>
<rscale>  0 0.13447766E+03</rscale>
<asrwt>0</asrwt>
<pdfrwt beam="2">  1        1 0.51068954E-01 0.14248789E+03</pdfrwt>
<pdfrwt beam="1">  1       -1 0.80085854E-02 0.14248789E+03</pdfrwt>
<totfact> 0.63428751E+03</totfact>
</mgrwt>
</event>
<event>
 7    1  0.1422977E-005  0.1499840E+03  0.7546771E-02  0.1204596E+00
         -1   -1    0    0    0  501 -0.00000000000E+00  0.00000000000E+00  0.88260615805E+02  0.88260615805E+02  0.00000000000E+00 0.  1.
          1   -1    0    0  501    0  0.00000000000E+00 -0.00000000000E+00 -0.23633297153E+03  0.23633297153E+03  0.00000000000E+00 0. -1.
         23    2    1    2    0    0 -0.62751189100E+02 -0.79109365762E+02 -0.53636179215E+02  0.14735536307E+03  0.92955687398E+02 0.  0.
          5    1    1    2  502    0  0.48201820745E+02  0.24960162001E+02 -0.10655947288E+03  0.11968056012E+03  0.47000000000E+01 0. -1.
         -5    1    1    2    0  502  0.14549368354E+02  0.54149203761E+02  0.12123296367E+02  0.57557664149E+02  0.47000000000E+01 0.  1.
        -11    1    3    3    0    0 -0.83950118824E+02 -0.75634538222E+02 -0.55312740758E+02  0.12580820765E+03  0.00000000000E+00 0.  1.
         11    1    3    3    0    0  0.21198929725E+02 -0.34748275404E+01  0.16765615436E+01  0.21547155416E+02  0.00000000000E+00 0. -1.
<mgrwt>
<rscale>  0 0.14669302E+03</rscale>
<asrwt>0</asrwt>
<pdfrwt beam="2">  1        1 0.36358918E-01 0.14998399E+03</pdfrwt>
<pdfrwt beam="1">  1       -1 0.13578557E-01 0.14998399E+03</pdfrwt>
<totfact> 0.43147804E+03</totfact>
</mgrwt>
</event>
<event>
 7    1  0.1422977E-005  0.1337787E+03  0.7546771E-02  0.1235094E+00
          4   -1    0    0  501    0  0.00000000000E+00  0.00000000000E+00  0.12990857751E+03  0.12990857751E+03  0.00000000000E+00 0. -1.
         -4   -1    0    0    0  501 -0.00000000000E+00 -0.00000000000E+00 -0.10692584092E+03  0.10692584092E+03  0.00000000000E+00 0.  1.
         23    2    1    2    0    0  0.15816190672E+01 -0.47634210076E+02  0.11406390945E+02  0.10255573303E+03  0.90089139941E+02 0.  0.
          5    1    1    2  502    0 -0.14029954461E+02  0.63711904735E+02 -0.41353014772E+02  0.77383514123E+02  0.47000000000E+01 0.  1.
         -5    1    1    2    0  502  0.12448335394E+02 -0.16077694659E+02  0.52929360417E+02  0.56895171270E+02  0.47000000000E+01 0.  1.
        -11    1    3    3    0    0  0.31523761971E+02 -0.61309681722E+02  0.94017536399E+01  0.69577421720E+02  0.00000000000E+00 0.  1.
         11    1    3    3    0    0 -0.29942142903E+02  0.13675471647E+02  0.20046373051E+01  0.32978311314E+02  0.00000000000E+00 0. -1.
<mgrwt>
<rscale>  0 0.12498405E+03</rscale>
<asrwt>0</asrwt>
<pdfrwt beam="1">  1        4 0.19985935E-01 0.13377875E+03</pdfrwt>
<pdfrwt beam="2">  1       -4 0.16450129E-01 0.13377875E+03</pdfrwt>
<totfact> 0.11891872E+03</totfact>
</mgrwt>
</event>
<event>
 7    1  0.1422977E-005  0.1427903E+03  0.7546771E-02  0.1220650E+00
          1   -1    0    0  501    0  0.00000000000E+00  0.00000000000E+00  0.77964883116E+02  0.77964883116E+02  0.00000000000E+00 0. -1.
         -1   -1    0    0    0  501 -0.00000000000E+00 -0.00000000000E+00 -0.24294309043E+03  0.24294309043E+03  0.00000000000E+00 0.  1.
         23    2    1    2    0    0 -0.93135380217E+01  0.68393384078E+02 -0.13303220239E+03  0.17458771997E+03  0.89548356281E+02 0.  0.
          5    1    1    2  502    0 -0.37669095212E+02  0.16158494129E+02  0.71714833252E+01  0.41875742856E+02  0.47000000000E+01 0. -1.
         -5    1    1    2    0  502  0.46982633234E+02 -0.84551878208E+02 -0.39117488246E+02  0.10444451073E+03  0.47000000000E+01 0. -1.
        -11    1    3    3    0    0 -0.26844176797E+02  0.89205670944E+01 -0.10082684882E+03  0.10471981564E+03  0.00000000000E+00 0.  1.
         11    1    3    3    0    0  0.17530638775E+02  0.59472816984E+02 -0.32205353577E+02  0.69867904325E+02  0.00000000000E+00 0. -1.
<mgrwt>
<rscale>  0 0.13469591E+03</rscale>
<asrwt>0</asrwt>
<pdfrwt beam="1">  1        1 0.11994597E-01 0.14279030E+03</pdfrwt>
<pdfrwt beam="2">  1       -1 0.37375860E-01 0.14279030E+03</pdfrwt>
<totfact> 0.33745070E+03</totfact>
</mgrwt>
</event>
<event>
 7    1  0.1422977E-005  0.3879658E+03  0.7546771E-02  0.1049030E+00
          2   -1    0    0  501    0  0.00000000000E+00  0.00000000000E+00  0.62974388923E+03  0.62974388923E+03  0.00000000000E+00 0. -1.
         -2   -1    0    0    0  501 -0.00000000000E+00 -0.00000000000E+00 -0.42012731494E+03  0.42012731494E+03  0.00000000000E+00 0.  1.
         23    2    1    2    0    0  0.12856343235E+03  0.34402818542E+03 -0.24698583200E+03  0.45070245256E+03  0.85127851077E+02 0.  0.
          5    1    1    2  502    0 -0.93397572786E+02 -0.16340512099E+03  0.31481604375E+03  0.36681817235E+03  0.47000000000E+01 0.  1.
         -5    1    1    2    0  502 -0.35165859566E+02 -0.18062306443E+03  0.14178636254E+03  0.23235057927E+03  0.47000000000E+01 0.  1.
        -11    1    3    3    0    0  0.78981480239E+02  0.28977105058E+03 -0.17391806415E+03  0.34706314845E+03  0.00000000000E+00 0. -1.
         11    1    3    3    0    0  0.49581952112E+02  0.54257134837E+02 -0.73067767853E+02  0.10363930410E+03  0.00000000000E+00 0.  1.
<mgrwt>
<rscale>  0 0.38519535E+03</rscale>
<asrwt>0</asrwt>
<pdfrwt beam="1">  1        2 0.96883676E-01 0.38796577E+03</pdfrwt>
<pdfrwt beam="2">  1       -2 0.64634971E-01 0.38796577E+03</pdfrwt>
<totfact> 0.10747169E+02</totfact>
</mgrwt>
</event>
<event>
 7    1  0.1422977E-005  0.1475469E+03  0.7546771E-02  0.1211985E+00
         -1   -1    0    0    0  501 -0.00000000000E+00  0.00000000000E+00  0.57781944618E+02  0.57781944618E+02  0.00000000000E+00 0.  1.
          1   -1    0    0  501    0  0.00000000000E+00 -0.00000000000E+00 -0.82637648350E+03  0.82637648350E+03  0.00000000000E+00 0. -1.
         23    2    1    2    0    0  0.78304661124E+02 -0.37098015421E+01 -0.24376243279E+02  0.12545495336E+03  0.94864964587E+02 0.  0.
          5    1    1    2  502    0 -0.10897701413E+03  0.74211475517E+01 -0.46199863924E+03  0.47475877632E+03  0.47000000000E+01 0. -1.
         -5    1    1    2    0  502  0.30672353004E+02 -0.37113460097E+01 -0.28221965637E+03  0.28394469843E+03  0.47000000000E+01 0. -1.
        -11    1    3    3    0    0  0.96983683465E+02 -0.35962523466E+01 -0.30408241486E+01  0.97097963423E+02  0.00000000000E+00 0.  1.
         11    1    3    3    0    0 -0.18679022341E+02 -0.11354919545E+00 -0.21335419131E+02  0.28356989941E+02  0.00000000000E+00 0. -1.
<mgrwt>
<rscale>  0 0.14100364E+03</rscale>
<asrwt>0</asrwt>
<pdfrwt beam="2">  1        1 0.12713484E+00 0.14754691E+03</pdfrwt>
<pdfrwt beam="1">  1       -1 0.88895304E-02 0.14754691E+03</pdfrwt>
<totfact> 0.15938742E+03</totfact>
</mgrwt>
</event>
<event>
 7    1  0.1422977E-005  0.1976779E+03  0.7546771E-02  0.1154230E+00
         -1   -1    0    0    0  501 -0.00000000000E+00  0.00000000000E+00  0.48859261799E+03  0.48859261799E+03  0.00000000000E+00 0.  1.
          1   -1    0    0  501    0  0.00000000000E+00 -0.00000000000E+00 -0.75985974486E+02  0.75985974486E+02  0.00000000000E+00 0. -1.
         23    2    1    2    0    0  0.13558207310E+03 -0.71192086074E+02  0.17627486069E+03  0.25647265535E+03  0.10608762777E+03 0.  0.
          5    1    1    2  502    0 -0.12964544204E+03  0.42514662830E+02  0.24205411759E+03  0.27789876401E+03  0.47000000000E+01 0.  1.
         -5    1    1    2    0  502 -0.59366310631E+01  0.28677423244E+02 -0.57223347783E+01  0.30207173115E+02  0.47000000000E+01 0.  1.
        -11    1    3    3    0    0  0.52465116696E+02 -0.76398735777E+02  0.50272131697E+02  0.10543548987E+03  0.00000000000E+00 0. -1.
         11    1    3    3    0    0  0.83116956402E+02  0.52066497034E+01  0.12600272899E+03  0.15103716548E+03  0.00000000000E+00 0.  1.
<mgrwt>
<rscale>  0 0.19476828E+03</rscale>
<asrwt>0</asrwt>
<pdfrwt beam="2">  1        1 0.11690150E-01 0.19767791E+03</pdfrwt>
<pdfrwt beam="1">  1       -1 0.75168093E-01 0.19767791E+03</pdfrwt>
<totfact> 0.95914804E+02</totfact>
</mgrwt>
</event>
<event>
 7    1  0.1422977E-005  0.1382563E+03  0.7546771E-02  0.1227155E+00
         -2   -1    0    0    0  501 -0.00000000000E+00  0.00000000000E+00  0.75244930102E+02  0.75244930102E+02  0.00000000000E+00 0.  1.
          2   -1    0    0  501    0  0.00000000000E+00 -0.00000000000E+00 -0.68106387488E+03  0.68106387488E+03  0.00000000000E+00 0. -1.
         23    2    1    2    0    0  0.58368445724E+02  0.90343101413E+01  0.24106100199E+02  0.11138992001E+03  0.91313284884E+02 0.  0.
          5    1    1    2  502    0 -0.29925085429E+02 -0.31692361121E+02 -0.58627385721E+03  0.58791074334E+03  0.47000000000E+01 0. -1.
         -5    1    1    2    0  502 -0.28443360295E+02  0.22658050979E+02 -0.43651187774E+02  0.57008141639E+02  0.47000000000E+01 0. -1.
        -11    1    3    3    0    0 -0.14392091750E+01  0.25327371844E+02 -0.22442826787E+02  0.33870747877E+02  0.00000000000E+00 0. -1.
         11    1    3    3    0    0  0.59807654899E+02 -0.16293061703E+02  0.46548926986E+02  0.77519172130E+02  0.00000000000E+00 0.  1.
<mgrwt>
<rscale>  0 0.13020308E+03</rscale>
<asrwt>0</asrwt>
<pdfrwt beam="2">  1        2 0.10477906E+00 0.13825631E+03</pdfrwt>
<pdfrwt beam="1">  1       -2 0.11576142E-01 0.13825631E+03</pdfrwt>
<totfact> 0.22373444E+03</totfact>
</mgrwt>
</event>
<event>
 7    1  0.1422977E-005  0.1542633E+03  0.7546771E-02  0.1203617E+00
          2   -1    0    0  501    0  0.00000000000E+00  0.00000000000E+00  0.26115708139E+03  0.26115708139E+03  0.00000000000E+00 0. -1.
         -2   -1    0    0    0  501 -0.00000000000E+00 -0.00000000000E+00 -0.93451111215E+02  0.93451111215E+02  0.00000000000E+00 0.  1.
         23    2    1    2    0    0 -0.86508155830E+02 -0.26185605258E+02  0.28933322089E+01  0.12886412096E+03  0.91805464711E+02 0.  0.
          5    1    1    2  502    0  0.34655417732E+02 -0.12963162067E+02  0.15553569892E+03  0.15994525685E+03  0.47000000000E+01 0.  1.
         -5    1    1    2    0  502  0.51852738098E+02  0.39148767325E+02  0.92769390461E+01  0.65798814803E+02  0.47000000000E+01 0.  1.
        -11    1    3    3    0    0 -0.20509643663E+02 -0.21608713652E+02  0.42391341235E+02  0.51813201026E+02  0.00000000000E+00 0. -1.
         11    1    3    3    0    0 -0.65998512167E+02 -0.45768916058E+01 -0.39498009026E+02  0.77050919930E+02  0.00000000000E+00 0.  1.
<mgrwt>
<rscale>  0 0.14746966E+03</rscale>
<asrwt>0</asrwt>
<pdfrwt beam="1">  1        2 0.40178012E-01 0.15426335E+03</pdfrwt>
<pdfrwt beam="2">  1       -2 0.14377094E-01 0.15426335E+03</pdfrwt>
<totfact> 0.45155412E+03</totfact>
</mgrwt>
</event>
<event>
 7    1  0.1422977E-005  0.1533352E+03  0.7546771E-02  0.1220778E+00
         -2   -1    0    0    0  501 -0.00000000000E+00  0.00000000000E+00  0.49243248680E+03  0.49243248680E+03  0.00000000000E+00 0.  1.
          2   -1    0    0  501    0  0.00000000000E+00 -0.00000000000E+00 -0.39474145583E+02  0.39474145583E+02  0.00000000000E+00 0. -1.
         23    2    1    2    0    0 -0.16154268213E+02 -0.16466181635E+02  0.30696259104E+03  0.32018404876E+03  0.88089143847E+02 0.  0.
          5    1    1    2  502    0  0.76367840342E+02  0.30041686569E+02  0.46216940742E+02  0.94300824927E+02  0.47000000000E+01 0. -1.
         -5    1    1    2    0  502 -0.60213572129E+02 -0.13575504934E+02  0.99778809440E+02  0.11742175870E+03  0.47000000000E+01 0.  1.
        -11    1    3    3    0    0 -0.32337466079E+02  0.20620888693E+02  0.70246416338E+02  0.80034316210E+02  0.00000000000E+00 0.  1.
         11    1    3    3    0    0  0.16183197865E+02 -0.37087070328E+02  0.23671617470E+03  0.24014973255E+03  0.00000000000E+00 0. -1.
<mgrwt>
<rscale>  0 0.13460541E+03</rscale>
<asrwt>0</asrwt>
<pdfrwt beam="2">  1        2 0.60729458E-02 0.15333523E+03</pdfrwt>
<pdfrwt beam="1">  1       -2 0.75758840E-01 0.15333523E+03</pdfrwt>
<totfact> 0.18944721E+03</totfact>
</mgrwt>
</event>
<event>
 7    1  0.1422977E-005  0.1755037E+03  0.7546771E-02  0.1178105E+00
          2   -1    0    0  501    0  0.00000000000E+00  0.00000000000E+00  0.49822777854E+03  0.49822777854E+03  0.00000000000E+00 0. -1.
         -2   -1    0    0    0  501 -0.00000000000E+00 -0.00000000000E+00 -0.54782618300E+02  0.54782618300E+02  0.00000000000E+00 0.  1.
         23    2    1    2    0    0 -0.30729680746E+02 -0.11929976771E+03  0.18256578035E+03  0.23859094144E+03  0.91753067135E+02 0.  0.
          5    1    1    2  502    0  0.24834533199E+02  0.14451630517E+03  0.19951591441E+03  0.24764976600E+03  0.47000000000E+01 0.  1.
         -5    1    1    2    0  502  0.58951475470E+01 -0.25216537457E+02  0.61363465485E+02  0.66769689397E+02  0.47000000000E+01 0.  1.
        -11    1    3    3    0    0 -0.34241887898E+02 -0.58946677427E+02  0.29992085091E+02  0.74476458258E+02  0.00000000000E+00 0.  1.
         11    1    3    3    0    0  0.35122071521E+01 -0.60353090286E+02  0.15257369526E+03  0.16411448319E+03  0.00000000000E+00 0. -1.
<mgrwt>
<rscale>  0 0.16975323E+03</rscale>
<asrwt>0</asrwt>
<pdfrwt beam="1">  1        2 0.76650425E-01 0.17550368E+03</pdfrwt>
<pdfrwt beam="2">  1       -2 0.84280954E-02 0.17550368E+03</pdfrwt>
<totfact> 0.53120726E+03</totfact>
</mgrwt>
</event>
<event>
 6    1  0.1422977E-005  0.1717868E+03  0.7546771E-02  0.1211214E+00
         -2   -1    0    0    0  501 -0.00000000000E+00  0.00000000000E+00  0.18542276302E+02  0.18542276302E+02  0.00000000000E+00 0.  1.
          2   -1    0    0  501    0  0.00000000000E+00 -0.00000000000E+00 -0.17612538939E+04  0.17612538939E+04  0.00000000000E+00 0. -1.
          5    1    1    2  502    0  0.73133629977E+01  0.99842680413E+02 -0.10555057434E+04  0.10602530407E+04  0.47000000000E+01 0. -1.
         -5    1    1    2    0  502 -0.56896645382E+02 -0.41330638026E+02 -0.58963665087E+03  0.59383408453E+03  0.47000000000E+01 0.  1.
        -11    1    1    2    0    0  0.28841302722E+02 -0.29732826362E+02 -0.37131843561E+02  0.55629448248E+02  0.00000000000E+00 0. -1.
         11    1    1    2    0    0  0.20741979662E+02 -0.28779216025E+02 -0.60437379798E+02  0.70079596690E+02  0.00000000000E+00 0.  1.
<mgrwt>
<rscale>  0 0.14158375E+03</rscale>
<asrwt>0</asrwt>
<pdfrwt beam="2">  1        2 0.27096221E+00 0.17178685E+03</pdfrwt>
<pdfrwt beam="1">  1       -2 0.28526572E-02 0.17178685E+03</pdfrwt>
<totfact> 0.45071059E+03</totfact>
</mgrwt>
</event>
<event>
 7    1  0.1422977E-005  0.1446744E+03  0.7546771E-02  0.1217524E+00
          2   -1    0    0  501    0  0.00000000000E+00  0.00000000000E+00  0.15383426217E+04  0.15383426217E+04  0.00000000000E+00 0.  1.
         -2   -1    0    0    0  501 -0.00000000000E+00 -0.00000000000E+00 -0.11054021416E+02  0.11054021416E+02  0.00000000000E+00 0. -1.
         23    2    1    2    0    0 -0.71655319597E+02  0.12924547893E+02  0.66613912008E+03  0.67617896293E+03  0.90416446725E+02 0.  0.
          5    1    1    2  502    0  0.74925650880E+02  0.42870752586E+02  0.44654504851E+03  0.45483659147E+03  0.47000000000E+01 0.  1.
         -5    1    1    2    0  502 -0.32703312825E+01 -0.55795300480E+02  0.41460443166E+03  0.41838108869E+03  0.47000000000E+01 0.  1.
        -11    1    3    3    0    0 -0.17127690669E+02 -0.37838674639E+02  0.22855919724E+03  0.23230245313E+03  0.00000000000E+00 0. -1.
         11    1    3    3    0    0 -0.54527628929E+02  0.50763222533E+02  0.43757992284E+03  0.44387650980E+03  0.00000000000E+00 0.  1.
<mgrwt>
<rscale>  0 0.13692780E+03</rscale>
<asrwt>0</asrwt>
<pdfrwt beam="1">  1        2 0.23666793E+00 0.14467443E+03</pdfrwt>
<pdfrwt beam="2">  1       -2 0.17006199E-02 0.14467443E+03</pdfrwt>
<totfact> 0.12456303E+04</totfact>
</mgrwt>
</event>
<event>
 7    1  0.1422977E-005  0.1492900E+03  0.7546771E-02  0.1210828E+00
          1   -1    0    0  501    0  0.00000000000E+00  0.00000000000E+00  0.54030382169E+03  0.54030382169E+03  0.00000000000E+00 0. -1.
         -1   -1    0    0    0  501 -0.00000000000E+00 -0.00000000000E+00 -0.35106290225E+02  0.35106290225E+02  0.00000000000E+00 0.  1.
         23    2    1    2    0    0  0.51253243353E+02 -0.63528591468E+02  0.17684580643E+03  0.21471308179E+03  0.90357574958E+02 0.  0.
          5    1    1    2  502    0 -0.89618131771E+01  0.45708872377E+02  0.30577206395E+03  0.30933519070E+03  0.47000000000E+01 0. -1.
         -5    1    1    2    0  502 -0.42291430176E+02  0.17819719092E+02  0.22579661084E+02  0.51361839429E+02  0.47000000000E+01 0. -1.
        -11    1    3    3    0    0  0.51447503111E+02 -0.19586159860E+02  0.15723422824E+03  0.16659251414E+03  0.00000000000E+00 0. -1.
         11    1    3    3    0    0 -0.19425975821E+00 -0.43942431608E+02  0.19611578184E+02  0.48120567654E+02  0.00000000000E+00 0.  1.
<mgrwt>
<rscale>  0 0.14187491E+03</rscale>
<asrwt>0</asrwt>
<pdfrwt beam="1">  1        1 0.83123659E-01 0.14928996E+03</pdfrwt>
<pdfrwt beam="2">  1       -1 0.54009681E-02 0.14928996E+03</pdfrwt>
<totfact> 0.61584142E+03</totfact>
</mgrwt>
</event>
<event>
 7    1  0.1422977E-005  0.1318198E+03  0.7546771E-02  0.1238640E+00
          2   -1    0    0  501    0  0.00000000000E+00  0.00000000000E+00  0.36000323161E+03  0.36000323161E+03  0.00000000000E+00 0.  1.
         -2   -1    0    0    0  501 -0.00000000000E+00 -0.00000000000E+00 -0.37064708679E+02  0.37064708679E+02  0.00000000000E+00 0. -1.
         23    2    1    2    0    0 -0.61743455738E+01 -0.41386126992E+02  0.13236783408E+03  0.16534905618E+03  0.89822785696E+02 0.  0.
          5    1    1    2  502    0  0.28640222617E+02 -0.30126054782E+02  0.12569570282E+03  0.13247392663E+03  0.47000000000E+01 0. -1.
         -5    1    1    2    0  502 -0.22465877043E+02  0.71512181774E+02  0.64874986034E+02  0.99244957485E+02  0.47000000000E+01 0. -1.
        -11    1    3    3    0    0 -0.68714689839E+01 -0.52575966241E+02  0.14135987176E+03  0.15097702692E+03  0.00000000000E+00 0.  1.
         11    1    3    3    0    0  0.69712341016E+00  0.11189839249E+02 -0.89920376824E+01  0.14372029263E+02  0.00000000000E+00 0. -1.
<mgrwt>
<rscale>  0 0.12274229E+03</rscale>
<asrwt>0</asrwt>
<pdfrwt beam="1">  1        2 0.55385110E-01 0.13181978E+03</pdfrwt>
<pdfrwt beam="2">  1       -2 0.57022631E-02 0.13181978E+03</pdfrwt>
<totfact> 0.13495293E+04</totfact>
</mgrwt>
</event>
<event>
 7    1  0.1422977E-005  0.1378962E+03  0.7546771E-02  0.1228158E+00
         -2   -1    0    0    0  501 -0.00000000000E+00  0.00000000000E+00  0.15737439105E+03  0.15737439105E+03  0.00000000000E+00 0.  1.
          2   -1    0    0  501    0  0.00000000000E+00 -0.00000000000E+00 -0.11130514561E+03  0.11130514561E+03  0.00000000000E+00 0. -1.
         23    2    1    2    0    0 -0.24548622944E+02 -0.52812807198E+02  0.70785983461E+02  0.12858570014E+03  0.90176489918E+02 0.  0.
          5    1    1    2  502    0  0.19863337670E+01 -0.40634742382E+02 -0.13861414405E+02  0.43236056939E+02  0.47000000000E+01 0. -1.
         -5    1    1    2    0  502  0.22562289177E+02  0.93447549580E+02 -0.10855323619E+02  0.96857779586E+02  0.47000000000E+01 0. -1.
        -11    1    3    3    0    0 -0.50297763812E+02 -0.43373664552E+01  0.21704787882E+02  0.54952485014E+02  0.00000000000E+00 0.  1.
         11    1    3    3    0    0  0.25749140867E+02 -0.48475440743E+02  0.49081195579E+02  0.73633215128E+02  0.00000000000E+00 0. -1.
<mgrwt>
<rscale>  0 0.12952778E+03</rscale>
<asrwt>0</asrwt>
<pdfrwt beam="2">  1        2 0.17123868E-01 0.13789621E+03</pdfrwt>
<pdfrwt beam="1">  1       -2 0.24211445E-01 0.13789621E+03</pdfrwt>
<totfact> 0.47847571E+03</totfact>
</mgrwt>
</event>
<event>
 7    1  0.1422977E-005  0.1269570E+03  0.7546771E-02  0.1246733E+00
         -1   -1    0    0    0  501 -0.00000000000E+00  0.00000000000E+00  0.10785398801E+03  0.10785398801E+03  0.00000000000E+00 0.  1.
          1   -1    0    0  501    0  0.00000000000E+00 -0.00000000000E+00 -0.14440131370E+03  0.14440131370E+03  0.00000000000E+00 0. -1.
         23    2    1    2    0    0 -0.14940403299E+02 -0.16410212143E+02  0.41836065784E+02  0.10305059363E+03  0.91524082803E+02 0.  0.
          5    1    1    2  502    0  0.32045451051E+02  0.65407644062E+02 -0.58092069203E+02  0.93283703502E+02  0.47000000000E+01 0.  1.
         -5    1    1    2    0  502 -0.17105047752E+02 -0.48997431919E+02 -0.20291322274E+02  0.55921004577E+02  0.47000000000E+01 0.  1.
        -11    1    3    3    0    0  0.21369010188E+01  0.23427640604E+02 -0.17677328123E+02  0.29426325285E+02  0.00000000000E+00 0. -1.
         11    1    3    3    0    0 -0.17077304318E+02 -0.39837852747E+02  0.59513393907E+02  0.73624268340E+02  0.00000000000E+00 0.  1.
<mgrwt>
<rscale>  0 0.11782242E+03</rscale>
<asrwt>0</asrwt>
<pdfrwt beam="2">  1        1 0.22215587E-01 0.12695704E+03</pdfrwt>
<pdfrwt beam="1">  1       -1 0.16592921E-01 0.12695704E+03</pdfrwt>
<totfact> 0.57708999E+03</totfact>
</mgrwt>
</event>
<event>
 7    1  0.1422977E-005  0.1268248E+03  0.7546771E-02  0.1247002E+00
         -3   -1    0    0    0  501 -0.00000000000E+00  0.00000000000E+00  0.72589203545E+02  0.72589203545E+02  0.00000000000E+00 0.  1.
          3   -1    0    0  501    0  0.00000000000E+00 -0.00000000000E+00 -0.18146925635E+03  0.18146925635E+03  0.00000000000E+00 0. -1.
         23    2    1    2    0    0  0.13598407018E+02 -0.16515450943E+02 -0.12547743672E+02  0.94796301764E+02  0.91494350446E+02 0.  0.
          5    1    1    2  502    0 -0.59348389739E+02 -0.12907433875E+01 -0.10784568174E+02  0.60516892632E+02  0.47000000000E+01 0. -1.
         -5    1    1    2    0  502  0.45749982721E+02  0.17806194330E+02 -0.85547740963E+02  0.98745265503E+02  0.47000000000E+01 0. -1.
        -11    1    3    3    0    0 -0.10076294841E+02 -0.49806467155E+02  0.34321405089E+01  0.50931281907E+02  0.00000000000E+00 0.  1.
         11    1    3    3    0    0  0.23674701860E+02  0.33291016213E+02 -0.15979884181E+02  0.43865019857E+02  0.00000000000E+00 0. -1.
<mgrwt>
<rscale>  0 0.11766338E+03</rscale>
<asrwt>0</asrwt>
<pdfrwt beam="2">  1        3 0.27918347E-01 0.12682477E+03</pdfrwt>
<pdfrwt beam="1">  1       -3 0.11167570E-01 0.12682477E+03</pdfrwt>
<totfact> 0.17072430E+03</totfact>
</mgrwt>
</event>
<event>
 7    1  0.1422977E-005  0.1905959E+03  0.7546771E-02  0.1162244E+00
          1   -1    0    0  501    0  0.00000000000E+00  0.00000000000E+00  0.46235749853E+03  0.46235749853E+03  0.00000000000E+00 0. -1.
         -1   -1    0    0    0  501 -0.00000000000E+00 -0.00000000000E+00 -0.74882391242E+02  0.74882391242E+02  0.00000000000E+00 0.  1.
         23    2    1    2    0    0 -0.13570322063E+03  0.47816436959E+02  0.12525785519E+03  0.21307221544E+03  0.94912923102E+02 0.  0.
          5    1    1    2  502    0  0.75147517760E+02  0.12659699719E+02  0.40430798983E+02  0.86395352473E+02  0.47000000000E+01 0.  1.
         -5    1    1    2    0  502  0.60555702870E+02 -0.60476136678E+02  0.22178645311E+03  0.23777232186E+03  0.47000000000E+01 0.  1.
        -11    1    3    3    0    0 -0.13944141064E+03  0.18218800400E+02  0.90332977658E+02  0.16714029598E+03  0.00000000000E+00 0.  1.
         11    1    3    3    0    0  0.37381900053E+01  0.29597636559E+02  0.34924877530E+02  0.45931919455E+02  0.00000000000E+00 0. -1.
<mgrwt>
<rscale>  0 0.18586534E+03</rscale>
<asrwt>0</asrwt>
<pdfrwt beam="1">  1        1 0.71131921E-01 0.19059589E+03</pdfrwt>
<pdfrwt beam="2">  1       -1 0.11520368E-01 0.19059589E+03</pdfrwt>
<totfact> 0.24193384E+03</totfact>
</mgrwt>
</event>
<event>
 7    1  0.1422977E-005  0.1479529E+03  0.7546771E-02  0.1212865E+00
          1   -1    0    0  501    0  0.00000000000E+00  0.00000000000E+00  0.66148492964E+03  0.66148492964E+03  0.00000000000E+00 0. -1.
         -1   -1    0    0    0  501 -0.00000000000E+00 -0.00000000000E+00 -0.27160900290E+02  0.27160900290E+02  0.00000000000E+00 0.  1.
         23    2    1    2    0    0 -0.18656283975E+02 -0.76922823592E+02  0.30097677354E+03  0.32393984002E+03  0.89915649477E+02 0.  0.
          5    1    1    2  502    0 -0.30962594649E+02  0.22002195515E+01  0.20881383457E+03  0.21116067517E+03  0.47000000000E+01 0. -1.
         -5    1    1    2    0  502  0.49618878625E+02  0.74722604040E+02  0.12453342124E+03  0.15354531473E+03  0.47000000000E+01 0. -1.
        -11    1    3    3    0    0  0.31548671124E+02 -0.14958486088E+02  0.14004069393E+03  0.14432765124E+03  0.00000000000E+00 0. -1.
         11    1    3    3    0    0 -0.50204955099E+02 -0.61964337504E+02  0.16093607961E+03  0.17961218879E+03  0.00000000000E+00 0.  1.
<mgrwt>
<rscale>  0 0.14034571E+03</rscale>
<asrwt>0</asrwt>
<pdfrwt beam="1">  1        1 0.10176690E+00 0.14795292E+03</pdfrwt>
<pdfrwt beam="2">  1       -1 0.41786006E-02 0.14795292E+03</pdfrwt>
<totfact> 0.68262989E+03</totfact>
</mgrwt>
</event>
<event>
 7    1  0.1422977E-005  0.1383963E+03  0.7546771E-02  0.1231591E+00
         -3   -1    0    0    0  501 -0.00000000000E+00  0.00000000000E+00  0.80169082157E+03  0.80169082157E+03  0.00000000000E+00 0.  1.
          3   -1    0    0  501    0  0.00000000000E+00 -0.00000000000E+00 -0.20023247960E+02  0.20023247960E+02  0.00000000000E+00 0. -1.
         23    2    1    2    0    0  0.15831749808E+02 -0.30453180651E+02  0.47607844533E+03  0.48624685129E+03  0.92775394239E+02 0.  0.
          5    1    1    2  502    0 -0.39532949957E+02  0.27282623013E+02  0.26004715808E+02  0.54822722433E+02  0.47000000000E+01 0. -1.
         -5    1    1    2    0  502  0.23701200149E+02  0.31705576389E+01  0.27958441248E+03  0.28064449581E+03  0.47000000000E+01 0.  1.
        -11    1    3    3    0    0  0.24653947907E+02 -0.61702942251E+02  0.31785660769E+03  0.32472741381E+03  0.00000000000E+00 0.  1.
         11    1    3    3    0    0 -0.88221980996E+01  0.31249761599E+02  0.15822183763E+03  0.16151943748E+03  0.00000000000E+00 0. -1.
<mgrwt>
<rscale>  0 0.12725218E+03</rscale>
<asrwt>0</asrwt>
<pdfrwt beam="2">  1        3 0.30805003E-02 0.13839631E+03</pdfrwt>
<pdfrwt beam="1">  1       -3 0.12333702E+00 0.13839631E+03</pdfrwt>
<totfact> 0.62957269E+02</totfact>
</mgrwt>
</event>
<event>
 7    1  0.1422977E-005  0.1757288E+03  0.7546771E-02  0.1178164E+00
          1   -1    0    0  501    0  0.00000000000E+00  0.00000000000E+00  0.22423328662E+04  0.22423328662E+04  0.00000000000E+00 0. -1.
         -1   -1    0    0    0  501 -0.00000000000E+00 -0.00000000000E+00 -0.14463094067E+02  0.14463094067E+02  0.00000000000E+00 0.  1.
         23    2    1    2    0    0 -0.10386567634E+03  0.66855011584E+02  0.58785236432E+03  0.60739069626E+03  0.89974353940E+02 0.  0.
          5    1    1    2  502    0 -0.21961872437E+02 -0.32803975055E+02  0.23428426138E+03  0.23763339360E+03  0.47000000000E+01 0. -1.
         -5    1    1    2    0  502  0.12582754878E+03 -0.34051036530E+02  0.14057331464E+04  0.14117718704E+04  0.47000000000E+01 0. -1.
        -11    1    3    3    0    0 -0.56959706343E+02  0.62593796155E+02  0.50537801675E+03  0.51241519423E+03  0.00000000000E+00 0. -1.
         11    1    3    3    0    0 -0.46905969995E+02  0.42612154292E+01  0.82474347574E+02  0.94975502030E+02  0.00000000000E+00 0.  1.
<mgrwt>
<rscale>  0 0.16969743E+03</rscale>
<asrwt>0</asrwt>
<pdfrwt beam="1">  1        1 0.34497401E+00 0.17572885E+03</pdfrwt>
<pdfrwt beam="2">  1       -1 0.22250932E-02 0.17572885E+03</pdfrwt>
<totfact> 0.13847870E+03</totfact>
</mgrwt>
</event>
<event>
 7    1  0.1422977E-005  0.1406248E+03  0.7546771E-02  0.1220668E+00
         -2   -1    0    0    0  501 -0.00000000000E+00  0.00000000000E+00  0.13422535935E+02  0.13422535935E+02  0.00000000000E+00 0.  1.
          2   -1    0    0  501    0  0.00000000000E+00 -0.00000000000E+00 -0.12584732273E+04  0.12584732273E+04  0.00000000000E+00 0. -1.
         23    2    1    2    0    0 -0.32614427381E+02 -0.71609308016E+02 -0.62456778583E+03  0.63567695685E+03  0.88366738685E+02 0.  0.
          5    1    1    2  502    0  0.51421729035E+02  0.95846306013E+02 -0.45433828429E+03  0.46720025168E+03  0.47000000000E+01 0. -1.
         -5    1    1    2    0  502 -0.18807301654E+02 -0.24236997997E+02 -0.16614462120E+03  0.16901855467E+03  0.47000000000E+01 0.  1.
        -11    1    3    3    0    0 -0.13444373316E+02 -0.89625436457E+02 -0.52078469300E+03  0.52861154594E+03  0.00000000000E+00 0.  1.
         11    1    3    3    0    0 -0.19170054065E+02  0.18016128441E+02 -0.10378309283E+03  0.10706541091E+03  0.00000000000E+00 0. -1.
<mgrwt>
<rscale>  0 0.13468322E+03</rscale>
<asrwt>0</asrwt>
<pdfrwt beam="2">  1        2 0.19361127E+00 0.14062480E+03</pdfrwt>
<pdfrwt beam="1">  1       -2 0.20650055E-02 0.14062480E+03</pdfrwt>
<totfact> 0.13211732E+04</totfact>
</mgrwt>
</event>
<event>
 7    1  0.1422977E-005  0.1279241E+03  0.7546771E-02  0.1245356E+00
         -1   -1    0    0    0  501 -0.00000000000E+00  0.00000000000E+00  0.47174822481E+02  0.47174822481E+02  0.00000000000E+00 0.  1.
          1   -1    0    0  501    0  0.00000000000E+00 -0.00000000000E+00 -0.56607797052E+03  0.56607797052E+03  0.00000000000E+00 0. -1.
         23    2    1    2    0    0 -0.22118188033E+02  0.15822169608E+02 -0.18084279970E+02  0.96354231099E+02  0.90650655683E+02 0.  0.
          5    1    1    2  502    0 -0.28029961864E+02 -0.36583943750E+02 -0.79040540436E+02  0.91616378093E+02  0.47000000000E+01 0. -1.
         -5    1    1    2    0  502  0.50148149897E+02  0.20761774143E+02 -0.42177832764E+03  0.42528218381E+03  0.47000000000E+01 0. -1.
        -11    1    3    3    0    0 -0.49884178777E+02  0.89057050766E+01 -0.36389663120E+02  0.62385498773E+02  0.00000000000E+00 0. -1.
         11    1    3    3    0    0  0.27765990743E+02  0.69164645311E+01  0.18305383150E+02  0.33968732326E+02  0.00000000000E+00 0.  1.
<mgrwt>
<rscale>  0 0.11864113E+03</rscale>
<asrwt>0</asrwt>
<pdfrwt beam="2">  1        1 0.87088914E-01 0.12792414E+03</pdfrwt>
<pdfrwt beam="1">  1       -1 0.72576653E-02 0.12792414E+03</pdfrwt>
<totfact> 0.36949463E+03</totfact>
</mgrwt>
</event>
<event>
 7    1  0.1422977E-005  0.1580483E+03  0.7546771E-02  0.1198773E+00
         -1   -1    0    0    0  501 -0.00000000000E+00  0.00000000000E+00  0.10958088403E+03  0.10958088403E+03  0.00000000000E+00 0.  1.
          1   -1    0    0  501    0  0.00000000000E+00 -0.00000000000E+00 -0.20078321166E+03  0.20078321166E+03  0.00000000000E+00 0. -1.
         23    2    1    2    0    0  0.82699106158E+02  0.50140664763E+02 -0.12046323279E+02  0.13360167512E+03  0.91384163119E+02 0.  0.
          5    1    1    2  502    0 -0.22267676395E+02 -0.54648139136E+02 -0.96805058207E+02  0.11347060332E+03  0.47000000000E+01 0. -1.
         -5    1    1    2    0  502 -0.60431429762E+02  0.45074743731E+01  0.17649053851E+02  0.63291817245E+02  0.47000000000E+01 0. -1.
        -11    1    3    3    0    0  0.82835815843E+02  0.27452458942E+02 -0.41328630348E+02  0.96558094299E+02  0.00000000000E+00 0. -1.
         11    1    3    3    0    0 -0.13670968478E+00  0.22688205821E+02  0.29282307069E+02  0.37043580824E+02  0.00000000000E+00 0.  1.
<mgrwt>
<rscale>  0 0.15139178E+03</rscale>
<asrwt>0</asrwt>
<pdfrwt beam="2">  1        1 0.30889724E-01 0.15804835E+03</pdfrwt>
<pdfrwt beam="1">  1       -1 0.16858598E-01 0.15804835E+03</pdfrwt>
<totfact> 0.37706670E+03</totfact>
</mgrwt>
</event>
<event>
 7    1  0.1422977E-005  0.1305589E+03  0.7546771E-02  0.1240167E+00
          1   -1    0    0  501    0  0.00000000000E+00  0.00000000000E+00  0.40359108724E+03  0.40359108724E+03  0.00000000000E+00 0. -1.
         -1   -1    0    0    0  501 -0.00000000000E+00 -0.00000000000E+00 -0.35765269213E+02  0.35765269213E+02  0.00000000000E+00 0.  1.
         23    2    1    2    0    0  0.12745484351E+01 -0.37605556630E+02  0.96041773356E+02  0.13783987464E+03  0.91433070867E+02 0.  0.
          5    1    1    2  502    0  0.39017678585E+02  0.64089992502E+02  0.11479181825E+03  0.13721937880E+03  0.47000000000E+01 0. -1.
         -5    1    1    2    0  502 -0.40292227020E+02 -0.26484435872E+02  0.15699222642E+03  0.16429710301E+03  0.47000000000E+01 0. -1.
        -11    1    3    3    0    0  0.25958034641E+02 -0.58264609272E+02  0.78615775904E+02  0.10123746578E+03  0.00000000000E+00 0.  1.
         11    1    3    3    0    0 -0.24683486205E+02  0.20659052642E+02  0.17425997452E+02  0.36602408862E+02  0.00000000000E+00 0. -1.
<mgrwt>
<rscale>  0 0.12179344E+03</rscale>
<asrwt>0</asrwt>
<pdfrwt beam="1">  1        1 0.62090933E-01 0.13055888E+03</pdfrwt>
<pdfrwt beam="2">  1       -1 0.55023494E-02 0.13055888E+03</pdfrwt>
<totfact> 0.86591937E+03</totfact>
</mgrwt>
</event>
<event>
 7    1  0.1422977E-005  0.1607546E+03  0.7546771E-02  0.1221136E+00
          3   -1    0    0  501    0  0.00000000000E+00  0.00000000000E+00  0.12851253295E+03  0.12851253295E+03  0.00000000000E+00 0. -1.
         -3   -1    0    0    0  501 -0.00000000000E+00 -0.00000000000E+00 -0.17224753085E+03  0.17224753085E+03  0.00000000000E+00 0.  1.
         23    2    1    2    0    0 -0.22323613373E+02 -0.12520046602E+02 -0.10296952642E+03  0.12943942504E+03  0.74140043852E+02 0.  0.
          5    1    1    2  502    0 -0.55775232992E+02 -0.24675908036E+02  0.58565385370E+02  0.84686311859E+02  0.47000000000E+01 0. -1.
         -5    1    1    2    0  502  0.78098846365E+02  0.37195954638E+02  0.66914314358E+00  0.86634326901E+02  0.47000000000E+01 0.  1.
        -11    1    3    3    0    0  0.23989909883E+02  0.91903993861E+01 -0.47390944377E+02  0.53906222517E+02  0.00000000000E+00 0. -1.
         11    1    3    3    0    0 -0.46313523256E+02 -0.21710445989E+02 -0.55578582040E+02  0.75533202520E+02  0.00000000000E+00 0.  1.
<mgrwt>
<rscale>  0 0.13435324E+03</rscale>
<asrwt>0</asrwt>
<pdfrwt beam="1">  1        3 0.19771159E-01 0.16075457E+03</pdfrwt>
<pdfrwt beam="2">  1       -3 0.26499620E-01 0.16075457E+03</pdfrwt>
<totfact> 0.73323082E+02</totfact>
</mgrwt>
</event>
<event>
 7    1  0.1422977E-005  0.1447543E+03  0.7546771E-02  0.1217044E+00
         -2   -1    0    0    0  501 -0.00000000000E+00  0.00000000000E+00  0.14860235661E+02  0.14860235661E+02  0.00000000000E+00 0.  1.
          2   -1    0    0  501    0  0.00000000000E+00 -0.00000000000E+00 -0.12941183249E+04  0.12941183249E+04  0.00000000000E+00 0. -1.
         23    2    1    2    0    0  0.46917808686E+02  0.55930870173E+02 -0.36457621419E+03  0.38291337411E+03  0.91527553824E+02 0.  0.
          5    1    1    2  502    0  0.93679154070E+00 -0.22701735711E+02 -0.23694516546E+02  0.33162727527E+02  0.47000000000E+01 0.  1.
         -5    1    1    2    0  502 -0.47854600227E+02 -0.33229134461E+02 -0.89098735854E+03  0.89290245896E+03  0.47000000000E+01 0.  1.
        -11    1    3    3    0    0  0.44951862098E+01  0.69671689358E+02 -0.18098774100E+03  0.19398688973E+03  0.00000000000E+00 0.  1.
         11    1    3    3    0    0  0.42422622477E+02 -0.13740819186E+02 -0.18358847320E+03  0.18892648438E+03  0.00000000000E+00 0. -1.
<mgrwt>
<rscale>  0 0.13727475E+03</rscale>
<asrwt>0</asrwt>
<pdfrwt beam="2">  1        2 0.19909519E+00 0.14475426E+03</pdfrwt>
<pdfrwt beam="1">  1       -2 0.22861894E-02 0.14475426E+03</pdfrwt>
<totfact> 0.10910679E+04</totfact>
</mgrwt>
</event>
<event>
 7    1  0.1422977E-005  0.1473212E+03  0.7546771E-02  0.1214982E+00
          1   -1    0    0  501    0  0.00000000000E+00  0.00000000000E+00  0.65559656917E+03  0.65559656917E+03  0.00000000000E+00 0. -1.
         -1   -1    0    0    0  501 -0.00000000000E+00 -0.00000000000E+00 -0.26756275021E+02  0.26756275021E+02  0.00000000000E+00 0.  1.
         23    2    1    2    0    0 -0.70141228948E+02  0.34051089508E+02  0.31414715829E+03  0.33488298304E+03  0.85900562135E+02 0.  0.
          5    1    1    2  502    0  0.95227096785E+01 -0.99314554277E+01  0.26481143656E+03  0.26521029908E+03  0.47000000000E+01 0.  1.
         -5    1    1    2    0  502  0.60618519270E+02 -0.24119634081E+02  0.49881699304E+02  0.82259562071E+02  0.47000000000E+01 0.  1.
        -11    1    3    3    0    0 -0.46653456681E+02  0.55830055369E+02  0.27415269769E+03  0.28364280663E+03  0.00000000000E+00 0. -1.
         11    1    3    3    0    0 -0.23487772267E+02 -0.21778965861E+02  0.39994460599E+02  0.51240176411E+02  0.00000000000E+00 0.  1.
<mgrwt>
<rscale>  0 0.13877850E+03</rscale>
<asrwt>0</asrwt>
<pdfrwt beam="1">  1        1 0.10086100E+00 0.14732120E+03</pdfrwt>
<pdfrwt beam="2">  1       -1 0.41163505E-02 0.14732120E+03</pdfrwt>
<totfact> 0.70654630E+03</totfact>
</mgrwt>
</event>
<event>
 7    1  0.1422977E-005  0.1858367E+03  0.7546771E-02  0.1167700E+00
          2   -1    0    0  501    0  0.00000000000E+00  0.00000000000E+00  0.43734469160E+03  0.43734469160E+03  0.00000000000E+00 0. -1.
         -2   -1    0    0    0  501 -0.00000000000E+00 -0.00000000000E+00 -0.77676176656E+02  0.77676176656E+02  0.00000000000E+00 0.  1.
         23    2    1    2    0    0  0.13623402989E+03  0.18728157977E+02  0.25082174458E+03  0.29965394729E+03  0.89277577074E+02 0.  0.
          5    1    1    2  502    0 -0.69994846247E+02  0.53082440603E+02  0.48901492872E+02  0.10065023600E+03  0.47000000000E+01 0.  1.
         -5    1    1    2    0  502 -0.66239183642E+02 -0.71810598580E+02  0.59945277493E+02  0.11471668497E+03  0.47000000000E+01 0.  1.
        -11    1    3    3    0    0  0.98376638261E+02  0.53330668318E+02  0.15814244701E+03  0.19372959682E+03  0.00000000000E+00 0.  1.
         11    1    3    3    0    0  0.37857391628E+02 -0.34602510341E+02  0.92679297570E+02  0.10592435046E+03  0.00000000000E+00 0. -1.
<mgrwt>
<rscale>  0 0.18010643E+03</rscale>
<asrwt>0</asrwt>
<pdfrwt beam="1">  1        2 0.67283797E-01 0.18583673E+03</pdfrwt>
<pdfrwt beam="2">  1       -2 0.11950181E-01 0.18583673E+03</pdfrwt>
<totfact> 0.35358442E+03</totfact>
</mgrwt>
</event>
<event>
 7    1  0.1422977E-005  0.1282614E+03  0.7546771E-02  0.1244059E+00
         -1   -1    0    0    0  501 -0.00000000000E+00  0.00000000000E+00  0.13560968480E+03  0.13560968480E+03  0.00000000000E+00 0.  1.
          1   -1    0    0  501    0  0.00000000000E+00 -0.00000000000E+00 -0.10441229979E+03  0.10441229979E+03  0.00000000000E+00 0. -1.
         23    2    1    2    0    0  0.28375965592E+02  0.44898360275E+01  0.52885767333E+02  0.10993980588E+03  0.92002730833E+02 0.  0.
          5    1    1    2  502    0 -0.57173918150E+02 -0.28286040019E+02  0.26238687556E+02  0.69134041552E+02  0.47000000000E+01 0. -1.
         -5    1    1    2    0  502  0.28797952558E+02  0.23796203991E+02 -0.47927069872E+02  0.60948137153E+02  0.47000000000E+01 0. -1.
        -11    1    3    3    0    0  0.30073832985E+02  0.17699173907E+02 -0.16986040611E+02  0.38810072958E+02  0.00000000000E+00 0. -1.
         11    1    3    3    0    0 -0.16978673928E+01 -0.13209337879E+02  0.69871807944E+02  0.71129732927E+02  0.00000000000E+00 0.  1.
<mgrwt>
<rscale>  0 0.11941891E+03</rscale>
<asrwt>0</asrwt>
<pdfrwt beam="2">  1        1 0.16063431E-01 0.12826140E+03</pdfrwt>
<pdfrwt beam="1">  1       -1 0.20863028E-01 0.12826140E+03</pdfrwt>
<totfact> 0.60602154E+03</totfact>
</mgrwt>
</event>
<event>
 7    1  0.1422977E-005  0.1536536E+03  0.7546771E-02  0.1204268E+00
         -1   -1    0    0    0  501 -0.00000000000E+00  0.00000000000E+00  0.20078657706E+03  0.20078657706E+03  0.00000000000E+00 0.  1.
          1   -1    0    0  501    0  0.00000000000E+00 -0.00000000000E+00 -0.10266659276E+03  0.10266659276E+03  0.00000000000E+00 0. -1.
         23    2    1    2    0    0 -0.53837402063E+02  0.71315084150E+02  0.72774840852E+02  0.14772329752E+03  0.92421253409E+02 0.  0.
          5    1    1    2  502    0  0.55106402517E+02  0.16466143491E+02 -0.14048985377E+02  0.59391190171E+02  0.47000000000E+01 0. -1.
         -5    1    1    2    0  502 -0.12690004537E+01 -0.87781227642E+02  0.39394128819E+02  0.96338682126E+02  0.47000000000E+01 0. -1.
        -11    1    3    3    0    0 -0.27020786683E+02  0.32823236856E+01  0.69367505364E+02  0.74516758935E+02  0.00000000000E+00 0.  1.
         11    1    3    3    0    0 -0.26816615380E+02  0.68032760465E+02  0.34073354884E+01  0.73206538588E+02  0.00000000000E+00 0. -1.
<mgrwt>
<rscale>  0 0.14695282E+03</rscale>
<asrwt>0</asrwt>
<pdfrwt beam="2">  1        1 0.15794860E-01 0.15365356E+03</pdfrwt>
<pdfrwt beam="1">  1       -1 0.30890243E-01 0.15365356E+03</pdfrwt>
<totfact> 0.32787547E+03</totfact>
</mgrwt>
</event>
<event>
 7    1  0.1422977E-005  0.1287016E+03  0.7546771E-02  0.1249488E+00
         -2   -1    0    0    0  501 -0.00000000000E+00  0.00000000000E+00  0.10822216029E+03  0.10822216029E+03  0.00000000000E+00 0. -1.
          2   -1    0    0  501    0  0.00000000000E+00 -0.00000000000E+00 -0.11831947203E+03  0.11831947203E+03  0.00000000000E+00 0.  1.
         23    2    1    2    0    0  0.34134467669E+01 -0.30702091067E+02  0.31693128716E+02  0.91225193515E+02  0.79770367364E+02 0.  0.
          5    1    1    2  502    0  0.51217335111E+02  0.32216292072E+02 -0.51517931114E+02  0.79607110970E+02  0.47000000000E+01 0.  1.
         -5    1    1    2    0  502 -0.54630781878E+02 -0.15142010053E+01  0.97274906630E+01  0.55709327835E+02  0.47000000000E+01 0.  1.
        -11    1    3    3    0    0 -0.15085991849E+02 -0.24614199038E+02 -0.20572085980E+02  0.35449353533E+02  0.00000000000E+00 0.  1.
         11    1    3    3    0    0  0.18499438616E+02 -0.60878920286E+01  0.52265214696E+02  0.55775839982E+02  0.00000000000E+00 0. -1.
<mgrwt>
<rscale>  0 0.11620742E+03</rscale>
<asrwt>0</asrwt>
<pdfrwt beam="2">  1        2 0.18202996E-01 0.12870158E+03</pdfrwt>
<pdfrwt beam="1">  1       -2 0.16649563E-01 0.12870158E+03</pdfrwt>
<totfact> 0.83676440E+03</totfact>
</mgrwt>
</event>
<event>
 7    1  0.1422977E-005  0.1275694E+03  0.7546771E-02  0.1245462E+00
         -1   -1    0    0    0  501 -0.00000000000E+00  0.00000000000E+00  0.27145387715E+02  0.27145387715E+02  0.00000000000E+00 0.  1.
          1   -1    0    0  501    0  0.00000000000E+00 -0.00000000000E+00 -0.46849774536E+03  0.46849774536E+03  0.00000000000E+00 0. -1.
         23    2    1    2    0    0 -0.23438301822E+02 -0.99562330392E+01 -0.15127208158E+03  0.17875114963E+03  0.91761921635E+02 0.  0.
          5    1    1    2  502    0  0.17249492681E+02 -0.42991514742E+02 -0.40722875188E+02  0.61856753076E+02  0.47000000000E+01 0. -1.
         -5    1    1    2    0  502  0.61888091409E+01  0.52947747781E+02 -0.24935740088E+03  0.25503523036E+03  0.47000000000E+01 0. -1.
        -11    1    3    3    0    0  0.42106528664E+01 -0.38448592761E+02 -0.24209648974E+02  0.45630373506E+02  0.00000000000E+00 0.  1.
         11    1    3    3    0    0 -0.27648954689E+02  0.28492359722E+02 -0.12706243260E+03  0.13312077613E+03  0.00000000000E+00 0. -1.
<mgrwt>
<rscale>  0 0.11857778E+03</rscale>
<asrwt>0</asrwt>
<pdfrwt beam="2">  1        1 0.72076574E-01 0.12756944E+03</pdfrwt>
<pdfrwt beam="1">  1       -1 0.41762136E-02 0.12756944E+03</pdfrwt>
<totfact> 0.10740827E+04</totfact>
</mgrwt>
</event>
<event>
 7    1  0.1422977E-005  0.1320866E+03  0.7546771E-02  0.1237923E+00
         -2   -1    0    0    0  501 -0.00000000000E+00  0.00000000000E+00  0.62978550413E+03  0.62978550413E+03  0.00000000000E+00 0.  1.
          2   -1    0    0  501    0  0.00000000000E+00 -0.00000000000E+00 -0.21404650053E+02  0.21404650053E+02  0.00000000000E+00 0. -1.
         23    2    1    2    0    0 -0.80634984791E+01  0.41912366677E+02  0.27484621135E+03  0.29245316537E+03  0.90370058950E+02 0.  0.
          5    1    1    2  502    0  0.37932176626E+02 -0.37245552836E+02  0.32143779810E+03  0.32583804148E+03  0.47000000000E+01 0. -1.
         -5    1    1    2    0  502 -0.29868678147E+02 -0.46668138406E+01  0.12096844633E+02  0.32898947335E+02  0.47000000000E+01 0. -1.
        -11    1    3    3    0    0 -0.23632030474E+00  0.69832199833E+02  0.21281333815E+03  0.22397792051E+03  0.00000000000E+00 0.  1.
         11    1    3    3    0    0 -0.78271781743E+01 -0.27919833156E+02  0.62032873193E+02  0.68475244857E+02  0.00000000000E+00 0. -1.
<mgrwt>
<rscale>  0 0.12319161E+03</rscale>
<asrwt>0</asrwt>
<pdfrwt beam="2">  1        2 0.32930236E-02 0.13208660E+03</pdfrwt>
<pdfrwt beam="1">  1       -2 0.96890063E-01 0.13208660E+03</pdfrwt>
<totfact> 0.24305916E+03</totfact>
</mgrwt>
</event>
<event>
 7    1  0.1422977E-005  0.1317449E+03  0.7546771E-02  0.1238767E+00
         -4   -1    0    0    0  501 -0.00000000000E+00  0.00000000000E+00  0.21667009617E+02  0.21667009617E+02  0.00000000000E+00 0.  1.
          4   -1    0    0  501    0  0.00000000000E+00 -0.00000000000E+00 -0.19056297694E+04  0.19056297694E+04  0.00000000000E+00 0. -1.
         23    2    1    2    0    0  0.41549075582E+02  0.22423229074E+01 -0.10822687441E+03  0.14668041034E+03  0.89837256969E+02 0.  0.
          5    1    1    2  502    0 -0.11694496118E+02 -0.53391279966E+02 -0.13040993748E+04  0.13052527186E+04  0.47000000000E+01 0. -1.
         -5    1    1    2    0  502 -0.29854579463E+02  0.51148957058E+02 -0.47163651061E+03  0.47536365012E+03  0.47000000000E+01 0. -1.
        -11    1    3    3    0    0 -0.22503769601E+02  0.56513278067E+00 -0.66524540191E+02  0.70230004051E+02  0.00000000000E+00 0.  1.
         11    1    3    3    0    0  0.64052845183E+02  0.16771901267E+01 -0.41702334217E+02  0.76450406290E+02  0.00000000000E+00 0. -1.
<mgrwt>
<rscale>  0 0.12266345E+03</rscale>
<asrwt>0</asrwt>
<pdfrwt beam="2">  1        4 0.29317383E+00 0.13174490E+03</pdfrwt>
<pdfrwt beam="1">  1       -4 0.33333859E-02 0.13174490E+03</pdfrwt>
<totfact> 0.31892481E+01</totfact>
</mgrwt>
</event>
<event>
 7    1  0.1422977E-005  0.1748010E+03  0.7546771E-02  0.1178854E+00
         -1   -1    0    0    0  501 -0.00000000000E+00  0.00000000000E+00  0.22401475786E+03  0.22401475786E+03  0.00000000000E+00 0.  1.
          1   -1    0    0  501    0  0.00000000000E+00 -0.00000000000E+00 -0.13820307306E+03  0.13820307306E+03  0.00000000000E+00 0. -1.
         23    2    1    2    0    0  0.95149206930E+02 -0.76571072995E+02  0.10633933723E+03  0.18621560585E+03  0.91933108404E+02 0.  0.
          5    1    1    2  502    0 -0.80866743145E+02  0.10055818289E+02 -0.56142387871E+02  0.99068700124E+02  0.47000000000E+01 0.  1.
         -5    1    1    2    0  502 -0.14282463785E+02  0.66515254707E+02  0.35614735447E+02  0.76933524951E+02  0.47000000000E+01 0.  1.
        -11    1    3    3    0    0  0.18968366799E+02  0.20321233728E+02  0.91926612059E+01  0.29278942933E+02  0.00000000000E+00 0.  1.
         11    1    3    3    0    0  0.76180840131E+02 -0.96892306723E+02  0.97146676019E+02  0.15693666291E+03  0.00000000000E+00 0. -1.
<mgrwt>
<rscale>  0 0.16903870E+03</rscale>
<asrwt>0</asrwt>
<pdfrwt beam="2">  1        1 0.21262011E-01 0.17480103E+03</pdfrwt>
<pdfrwt beam="1">  1       -1 0.34463809E-01 0.17480103E+03</pdfrwt>
<totfact> 0.18662222E+03</totfact>
</mgrwt>
</event>
<event>
 7    1  0.1422977E-005  0.2047701E+03  0.7546771E-02  0.1149369E+00
          2   -1    0    0  501    0  0.00000000000E+00  0.00000000000E+00  0.93383310938E+03  0.93383310938E+03  0.00000000000E+00 0. -1.
         -2   -1    0    0    0  501 -0.00000000000E+00 -0.00000000000E+00 -0.11464942573E+03  0.11464942573E+03  0.00000000000E+00 0.  1.
         23    2    1    2    0    0 -0.67878187033E+02  0.14730574468E+03 -0.15898631263E+02  0.18866088157E+03  0.95045941877E+02 0.  0.
          5    1    1    2  502    0  0.26554483483E+02 -0.96195433455E+02  0.72249101824E+03  0.72936552115E+03  0.47000000000E+01 0. -1.
         -5    1    1    2    0  502  0.41323703550E+02 -0.51110311227E+02  0.11259129668E+03  0.13045613238E+03  0.47000000000E+01 0. -1.
        -11    1    3    3    0    0 -0.36415614992E+02  0.94533070828E+02  0.36734527714E+02  0.10775910181E+03  0.00000000000E+00 0. -1.
         11    1    3    3    0    0 -0.31462572041E+02  0.52772673854E+02 -0.52633158977E+02  0.80901779764E+02  0.00000000000E+00 0.  1.
<mgrwt>
<rscale>  0 0.20043959E+03</rscale>
<asrwt>0</asrwt>
<pdfrwt beam="1">  1        2 0.14366663E+00 0.20477012E+03</pdfrwt>
<pdfrwt beam="2">  1       -2 0.17638374E-01 0.20477012E+03</pdfrwt>
<totfact> 0.75809240E+02</totfact>
</mgrwt>
</event>
<event>
 7    1  0.1422977E-005  0.1945712E+03  0.7546771E-02  0.1159054E+00
          2   -1    0    0  501    0  0.00000000000E+00  0.00000000000E+00  0.15498143413E+04  0.15498143413E+04  0.00000000000E+00 0. -1.
         -2   -1    0    0    0  501 -0.00000000000E+00 -0.00000000000E+00 -0.22667275878E+02  0.22667275878E+02  0.00000000000E+00 0.  1.
         23    2    1    2    0    0 -0.87570637486E+02  0.12067969640E+03  0.58576413875E+03  0.61120134314E+03  0.90638016004E+02 0.  0.
          5    1    1    2  502    0  0.63253395646E+02 -0.85083448039E+02  0.29612534239E+03  0.31456715276E+03  0.47000000000E+01 0.  1.
         -5    1    1    2    0  502  0.24317241840E+02 -0.35596248365E+02  0.64525758428E+03  0.64671312127E+03  0.47000000000E+01 0.  1.
        -11    1    3    3    0    0 -0.22258803466E+02 -0.10518149729E+02  0.49680053969E+02  0.55445410702E+02  0.00000000000E+00 0.  1.
         11    1    3    3    0    0 -0.65311834020E+02  0.13119784613E+03  0.53608408478E+03  0.55575593244E+03  0.00000000000E+00 0. -1.
<mgrwt>
<rscale>  0 0.18934454E+03</rscale>
<asrwt>0</asrwt>
<pdfrwt beam="1">  1        2 0.23843289E+00 0.19457120E+03</pdfrwt>
<pdfrwt beam="2">  1       -2 0.34872744E-02 0.19457120E+03</pdfrwt>
<totfact> 0.43180077E+03</totfact>
</mgrwt>
</event>
<event>
 7    1  0.1422977E-005  0.1612044E+03  0.7546771E-02  0.1193961E+00
         -2   -1    0    0    0  501 -0.00000000000E+00  0.00000000000E+00  0.40243600203E+03  0.40243600203E+03  0.00000000000E+00 0.  1.
          2   -1    0    0  501    0  0.00000000000E+00 -0.00000000000E+00 -0.58071899572E+02  0.58071899572E+02  0.00000000000E+00 0. -1.
         23    2    1    2    0    0  0.88315002491E+02  0.50611316482E+02  0.20239763630E+03  0.24570255734E+03  0.95099413687E+02 0.  0.
          5    1    1    2  502    0 -0.59691855160E+02  0.28519406378E+02  0.10166622218E+03  0.12138609823E+03  0.47000000000E+01 0. -1.
         -5    1    1    2    0  502 -0.28623147331E+02 -0.79130722860E+02  0.40300243984E+02  0.93419246030E+02  0.47000000000E+01 0. -1.
        -11    1    3    3    0    0  0.50070117195E+02 -0.19142780402E+02  0.47723628547E+02  0.71770519011E+02  0.00000000000E+00 0. -1.
         11    1    3    3    0    0  0.38244885296E+02  0.69754096884E+02  0.15467400776E+03  0.17393203833E+03  0.00000000000E+00 0.  1.
<mgrwt>
<rscale>  0 0.15542530E+03</rscale>
<asrwt>0</asrwt>
<pdfrwt beam="2">  1        2 0.89341387E-02 0.16120440E+03</pdfrwt>
<pdfrwt beam="1">  1       -2 0.61913229E-01 0.16120440E+03</pdfrwt>
<totfact> 0.17843433E+03</totfact>
</mgrwt>
</event>
<event>
 7    1  0.1931028E-005  0.2905198E+03  0.7546771E-02  0.1091954E+00
          1   -1    0    0  501    0  0.00000000000E+00  0.00000000000E+00  0.15936639091E+03  0.15936639091E+03  0.00000000000E+00 0. -1.
         -1   -1    0    0    0  501 -0.00000000000E+00 -0.00000000000E+00 -0.55606702550E+03  0.55606702550E+03  0.00000000000E+00 0.  1.
         23    2    1    2    0    0  0.72375942933E+02 -0.25206679394E+03 -0.30297155780E+03  0.41016817019E+03  0.87579776666E+02 0.  0.
          5    1    1    2  502    0 -0.95669164439E+02  0.17114587595E+03 -0.10101762218E+03  0.22061312262E+03  0.47000000000E+01 0.  1.
         -5    1    1    2    0  502  0.23293221506E+02  0.80920917990E+02  0.72885453956E+01  0.84652123602E+02  0.47000000000E+01 0.  1.
        -11    1    3    3    0    0  0.60333855605E-01 -0.70127656311E+02 -0.35228397332E+02  0.78478862112E+02  0.00000000000E+00 0. -1.
         11    1    3    3    0    0  0.72315609078E+02 -0.18193913763E+03 -0.26774316047E+03  0.33168930808E+03  0.00000000000E+00 0.  1.
<mgrwt>
<rscale>  0 0.28694669E+03</rscale>
<asrwt>0</asrwt>
<pdfrwt beam="1">  1        1 0.24517907E-01 0.29051976E+03</pdfrwt>
<pdfrwt beam="2">  1       -1 0.85548772E-01 0.29051976E+03</pdfrwt>
<totfact> 0.27888830E+02</totfact>
</mgrwt>
</event>
<event>
 7    1  0.2556055E-005  0.2075205E+03  0.7546771E-02  0.1147487E+00
         -4   -1    0    0    0  501 -0.00000000000E+00  0.00000000000E+00  0.12188715591E+04  0.12188715591E+04  0.00000000000E+00 0.  1.
          4   -1    0    0  501    0  0.00000000000E+00 -0.00000000000E+00 -0.33407957001E+02  0.33407957001E+02  0.00000000000E+00 0. -1.
         23    2    1    2    0    0 -0.16314261098E+03 -0.28716377131E+02  0.68336765112E+03  0.70898851073E+03  0.90737092233E+02 0.  0.
          5    1    1    2  502    0  0.17562008085E+03  0.10140865693E+02  0.48100180905E+03  0.51218168677E+03  0.47000000000E+01 0.  1.
         -5    1    1    2    0  502 -0.12477469873E+02  0.18575511439E+02  0.21094141898E+02  0.31109318573E+02  0.47000000000E+01 0.  1.
        -11    1    3    3    0    0 -0.46712737437E+02  0.31693419922E+02  0.24488879179E+03  0.25131071018E+03  0.00000000000E+00 0.  1.
         11    1    3    3    0    0 -0.11642987354E+03 -0.60409797054E+02  0.43847885933E+03  0.45767780055E+03  0.00000000000E+00 0. -1.
<mgrwt>
<rscale>  0 0.20269303E+03</rscale>
<asrwt>0</asrwt>
<pdfrwt beam="2">  1        4 0.51396866E-02 0.20752054E+03</pdfrwt>
<pdfrwt beam="1">  1       -4 0.18751867E+00 0.20752054E+03</pdfrwt>
<totfact> 0.71166919E+01</totfact>
</mgrwt>
</event>
<event>
 7    1  0.1422977E-005  0.1474776E+03  0.7546771E-02  0.1213452E+00
         -3   -1    0    0    0  501 -0.00000000000E+00  0.00000000000E+00  0.55857666707E+02  0.55857666707E+02  0.00000000000E+00 0.  1.
          3   -1    0    0  501    0  0.00000000000E+00 -0.00000000000E+00 -0.32276773437E+03  0.32276773437E+03  0.00000000000E+00 0. -1.
         23    2    1    2    0    0 -0.12118276806E+02 -0.77319061788E+02 -0.99005572386E+02  0.15514933748E+03  0.90244798227E+02 0.  0.
          5    1    1    2  502    0  0.84760986708E+01  0.76079060814E+02 -0.25324681485E+02  0.80766931570E+02  0.47000000000E+01 0. -1.
         -5    1    1    2    0  502  0.36421781354E+01  0.12400009746E+01 -0.14257981379E+03  0.14270913203E+03  0.47000000000E+01 0. -1.
        -11    1    3    3    0    0  0.12488194997E+02 -0.85379044692E+02 -0.96004801822E+02  0.12908314475E+03  0.00000000000E+00 0. -1.
         11    1    3    3    0    0 -0.24606471803E+02  0.80599829035E+01 -0.30007705642E+01  0.26066192721E+02  0.00000000000E+00 0.  1.
<mgrwt>
<rscale>  0 0.13990862E+03</rscale>
<asrwt>0</asrwt>
<pdfrwt beam="2">  1        3 0.49656574E-01 0.14747756E+03</pdfrwt>
<pdfrwt beam="1">  1       -3 0.85934873E-02 0.14747756E+03</pdfrwt>
<totfact> 0.89870182E+02</totfact>
</mgrwt>
</event>
<event>
 7    1  0.1422977E-005  0.1998518E+03  0.7546771E-02  0.1154111E+00
          1   -1    0    0  501    0  0.00000000000E+00  0.00000000000E+00  0.55752797534E+03  0.55752797534E+03  0.00000000000E+00 0. -1.
         -1   -1    0    0    0  501 -0.00000000000E+00 -0.00000000000E+00 -0.65886778497E+02  0.65886778497E+02  0.00000000000E+00 0.  1.
         23    2    1    2    0    0  0.10104263418E+01 -0.15538910347E+03  0.19689247171E+03  0.26730021472E+03  0.92390285949E+02 0.  0.
          5    1    1    2  502    0  0.15149891102E+02  0.14832443299E+03  0.30171609486E+03  0.33657740346E+03  0.47000000000E+01 0.  1.
         -5    1    1    2    0  502 -0.16160317444E+02  0.70646704737E+01 -0.69673697234E+01  0.19537135656E+02  0.47000000000E+01 0.  1.
        -11    1    3    3    0    0 -0.43795271915E+02 -0.61476196551E+02  0.98481538688E+02  0.12408046602E+03  0.00000000000E+00 0. -1.
         11    1    3    3    0    0  0.44805698257E+02 -0.93912906914E+02  0.98410933021E+02  0.14321974871E+03  0.00000000000E+00 0.  1.
<mgrwt>
<rscale>  0 0.19490408E+03</rscale>
<asrwt>0</asrwt>
<pdfrwt beam="1">  1        1 0.85773531E-01 0.19985183E+03</pdfrwt>
<pdfrwt beam="2">  1       -1 0.10136428E-01 0.19985183E+03</pdfrwt>
<totfact> 0.23038330E+03</totfact>
</mgrwt>
</event>
<event>
 7    1  0.1422977E-005  0.1524172E+03  0.7546771E-02  0.1206485E+00
          2   -1    0    0  501    0  0.00000000000E+00  0.00000000000E+00  0.64598460566E+03  0.64598460566E+03  0.00000000000E+00 0. -1.
         -2   -1    0    0    0  501 -0.00000000000E+00 -0.00000000000E+00 -0.29999676255E+02  0.29999676255E+02  0.00000000000E+00 0.  1.
         23    2    1    2    0    0 -0.80595788734E+02 -0.33349070883E+02  0.25964016356E+03  0.28841156713E+03  0.90334798574E+02 0.  0.
          5    1    1    2  502    0  0.14553915541E+02  0.60640633200E+02  0.26065662641E+03  0.26805422911E+03  0.47000000000E+01 0. -1.
         -5    1    1    2    0  502  0.66041873193E+02 -0.27291562317E+02  0.95688139442E+02  0.11951848568E+03  0.47000000000E+01 0. -1.
        -11    1    3    3    0    0  0.51160318960E+01 -0.38531520710E+02  0.66171572824E+02  0.76743266289E+02  0.00000000000E+00 0. -1.
         11    1    3    3    0    0 -0.85711820630E+02  0.51824498271E+01  0.19346859073E+03  0.21166830084E+03  0.00000000000E+00 0.  1.
<mgrwt>
<rscale>  0 0.14521063E+03</rscale>
<asrwt>0</asrwt>
<pdfrwt beam="1">  1        2 0.99382237E-01 0.15241725E+03</pdfrwt>
<pdfrwt beam="2">  1       -2 0.46153353E-02 0.15241725E+03</pdfrwt>
<totfact> 0.98542176E+03</totfact>
</mgrwt>
</event>
<event>
 7    1  0.1422977E-005  0.1406597E+03  0.7546771E-02  0.1223447E+00
         -1   -1    0    0    0  501 -0.00000000000E+00  0.00000000000E+00  0.19089093476E+03  0.19089093476E+03  0.00000000000E+00 0.  1.
          1   -1    0    0  501    0  0.00000000000E+00 -0.00000000000E+00 -0.10268254466E+03  0.10268254466E+03  0.00000000000E+00 0. -1.
         23    2    1    2    0    0  0.30295152976E+02  0.56931340036E+02  0.10338752528E+03  0.15209711400E+03  0.91025150004E+02 0.  0.
          5    1    1    2  502    0  0.49808411429E+00 -0.67738192865E+02  0.38813118659E+02  0.78212908400E+02  0.47000000000E+01 0. -1.
         -5    1    1    2    0  502 -0.30793237090E+02  0.10806852829E+02 -0.53992253841E+02  0.63263457014E+02  0.47000000000E+01 0. -1.
        -11    1    3    3    0    0 -0.30350914133E+02  0.35962591680E+02  0.38029435297E+02  0.60503916717E+02  0.00000000000E+00 0. -1.
         11    1    3    3    0    0  0.60646067109E+02  0.20968748355E+02  0.65358089979E+02  0.91593197286E+02  0.00000000000E+00 0.  1.
<mgrwt>
<rscale>  0 0.13273936E+03</rscale>
<asrwt>0</asrwt>
<pdfrwt beam="2">  1        1 0.15797315E-01 0.14065972E+03</pdfrwt>
<pdfrwt beam="1">  1       -1 0.29367836E-01 0.14065972E+03</pdfrwt>
<totfact> 0.35528746E+03</totfact>
</mgrwt>
</event>
<event>
 7    1  0.1422977E-005  0.1318313E+03  0.7546771E-02  0.1239272E+00
         -1   -1    0    0    0  501 -0.00000000000E+00  0.00000000000E+00  0.63028909428E+02  0.63028909428E+02  0.00000000000E+00 0.  1.
          1   -1    0    0  501    0  0.00000000000E+00 -0.00000000000E+00 -0.25270471220E+03  0.25270471220E+03  0.00000000000E+00 0. -1.
         23    2    1    2    0    0 -0.37219129317E+02  0.19199602104E+02 -0.18268465447E+02  0.99493106846E+02  0.88381294242E+02 0.  0.
          5    1    1    2  502    0  0.76187351833E+02  0.15873144590E+02 -0.87563252131E+02  0.11724283527E+03  0.47000000000E+01 0.  1.
         -5    1    1    2    0  502 -0.38968222515E+02 -0.35072746694E+02 -0.83844085192E+02  0.98997679510E+02  0.47000000000E+01 0.  1.
        -11    1    3    3    0    0  0.12250954242E+02  0.41659685368E+02 -0.96633373705E+01  0.44485900619E+02  0.00000000000E+00 0.  1.
         11    1    3    3    0    0 -0.49470083560E+02 -0.22460083264E+02 -0.86051280763E+01  0.55007206226E+02  0.00000000000E+00 0. -1.
<mgrwt>
<rscale>  0 0.12234895E+03</rscale>
<asrwt>0</asrwt>
<pdfrwt beam="2">  1        1 0.38877648E-01 0.13183127E+03</pdfrwt>
<pdfrwt beam="1">  1       -1 0.96967552E-02 0.13183127E+03</pdfrwt>
<totfact> 0.66197476E+03</totfact>
</mgrwt>
</event>
<event>
 7    1  0.1422977E-005  0.1570008E+03  0.7546771E-02  0.1199783E+00
          1   -1    0    0  501    0  0.00000000000E+00  0.00000000000E+00  0.35408584994E+03  0.35408584994E+03  0.00000000000E+00 0. -1.
         -1   -1    0    0    0  501 -0.00000000000E+00 -0.00000000000E+00 -0.61802778997E+02  0.61802778997E+02  0.00000000000E+00 0.  1.
         23    2    1    2    0    0 -0.19573432803E+02  0.92974937698E+02  0.92661381461E+02  0.16192390240E+03  0.92767236900E+02 0.  0.
          5    1    1    2  502    0 -0.24090361558E+02 -0.70730389029E+02  0.18943554518E+03  0.20369351789E+03  0.47000000000E+01 0.  1.
         -5    1    1    2    0  502  0.43663794361E+02 -0.22244548669E+02  0.10186144303E+02  0.50271208651E+02  0.47000000000E+01 0.  1.
        -11    1    3    3    0    0 -0.52928787070E+02  0.70275901919E+02  0.42956531756E+02  0.97905171016E+02  0.00000000000E+00 0.  1.
         11    1    3    3    0    0  0.33355354267E+02  0.22699035779E+02  0.49704849705E+02  0.64018731382E+02  0.00000000000E+00 0. -1.
<mgrwt>
<rscale>  0 0.15056289E+03</rscale>
<asrwt>0</asrwt>
<pdfrwt beam="1">  1        1 0.54474745E-01 0.15700084E+03</pdfrwt>
<pdfrwt beam="2">  1       -1 0.95081200E-02 0.15700084E+03</pdfrwt>
<totfact> 0.45331798E+03</totfact>
</mgrwt>
</event>
<event>
 7    1  0.1422977E-005  0.1484339E+03  0.7546771E-02  0.1210934E+00
          1   -1    0    0  501    0  0.00000000000E+00  0.00000000000E+00  0.24652265062E+03  0.24652265062E+03  0.00000000000E+00 0. -1.
         -1   -1    0    0    0  501 -0.00000000000E+00 -0.00000000000E+00 -0.76771240420E+02  0.76771240420E+02  0.00000000000E+00 0.  1.
         23    2    1    2    0    0 -0.59486475366E+02  0.53561623502E+02  0.10140377860E+03  0.15988024299E+03  0.94188521177E+02 0.  0.
          5    1    1    2  502    0  0.57353301042E+02 -0.56814554910E+02 -0.12941867579E+02  0.81895523239E+02  0.47000000000E+01 0. -1.
         -5    1    1    2    0  502  0.21331743237E+01  0.32529314082E+01  0.81289499183E+02  0.81518124812E+02  0.47000000000E+01 0. -1.
        -11    1    3    3    0    0 -0.38447034304E+02  0.76142279822E+02  0.47150936462E+02  0.97462977753E+02  0.00000000000E+00 0.  1.
         11    1    3    3    0    0 -0.21039441062E+02 -0.22580656319E+02  0.54252842138E+02  0.62417265240E+02  0.00000000000E+00 0. -1.
<mgrwt>
<rscale>  0 0.14179521E+03</rscale>
<asrwt>0</asrwt>
<pdfrwt beam="1">  1        1 0.37926561E-01 0.14843390E+03</pdfrwt>
<pdfrwt beam="2">  1       -1 0.11810960E-01 0.14843390E+03</pdfrwt>
<totfact> 0.50812167E+03</totfact>
</mgrwt>
</event>
<event>
 7    1  0.1422977E-005  0.1856956E+03  0.7546771E-02  0.1174361E+00
         -2   -1    0    0    0  501 -0.00000000000E+00  0.00000000000E+00  0.19380208484E+03  0.19380208484E+03  0.00000000000E+00 0.  1.
          2   -1    0    0  501    0  0.00000000000E+00 -0.00000000000E+00 -0.22009160296E+03  0.22009160296E+03  0.00000000000E+00 0. -1.
         23    2    1    2    0    0 -0.10077862605E+03 -0.36616756057E+02  0.11378101064E+03  0.18129398917E+03  0.91783843003E+02 0.  0.
          5    1    1    2  502    0  0.65834187163E+02 -0.54206287214E+02 -0.85863877810E+02  0.12110803972E+03  0.47000000000E+01 0. -1.
         -5    1    1    2    0  502  0.34944438884E+02  0.90823043271E+02 -0.54206650949E+02  0.11149165890E+03  0.47000000000E+01 0.  1.
        -11    1    3    3    0    0 -0.11359669330E+03 -0.38678966487E+02  0.11733589690E+03  0.16783320255E+03  0.00000000000E+00 0.  1.
         11    1    3    3    0    0  0.12818067256E+02  0.20622104309E+01 -0.35548862643E+01  0.13460786618E+02  0.00000000000E+00 0. -1.
<mgrwt>
<rscale>  0 0.17338688E+03</rscale>
<asrwt>0</asrwt>
<pdfrwt beam="2">  1        2 0.33860247E-01 0.18569563E+03</pdfrwt>
<pdfrwt beam="1">  1       -2 0.29815705E-01 0.18569563E+03</pdfrwt>
<totfact> 0.15688972E+03</totfact>
</mgrwt>
</event>
<event>
 7    1  0.1422977E-005  0.1345326E+03  0.7546771E-02  0.1240303E+00
          2   -1    0    0  501    0  0.00000000000E+00  0.00000000000E+00  0.22976399560E+03  0.22976399560E+03  0.00000000000E+00 0. -1.
         -2   -1    0    0    0  501 -0.00000000000E+00 -0.00000000000E+00 -0.60264875268E+02  0.60264875268E+02  0.00000000000E+00 0.  1.
         23    2    1    2    0    0  0.36862497247E+02  0.33393100758E+02  0.27044190388E+02  0.94089032865E+02  0.75149284695E+02 0.  0.
          5    1    1    2  502    0 -0.59902060826E+02  0.11823118968E+02  0.12965904083E+03  0.14339316547E+03  0.47000000000E+01 0. -1.
         -5    1    1    2    0  502  0.23039563579E+02 -0.45216219725E+02  0.12795889109E+02  0.52546672533E+02  0.47000000000E+01 0. -1.
        -11    1    3    3    0    0  0.31682640234E+02 -0.19270215987E+02  0.13522241063E+02  0.39471279682E+02  0.00000000000E+00 0.  1.
         11    1    3    3    0    0  0.51798570128E+01  0.52663316744E+02  0.13521949326E+02  0.54617753183E+02  0.00000000000E+00 0. -1.
<mgrwt>
<rscale>  0 0.12170941E+03</rscale>
<asrwt>0</asrwt>
<pdfrwt beam="1">  1        2 0.35348307E-01 0.13453257E+03</pdfrwt>
<pdfrwt beam="2">  1       -2 0.92715193E-02 0.13453257E+03</pdfrwt>
<totfact> 0.10328095E+04</totfact>
</mgrwt>
</event>
<event>
 7    1  0.1422977E-005  0.1430526E+03  0.7546771E-02  0.1219780E+00
          1   -1    0    0  501    0  0.00000000000E+00  0.00000000000E+00  0.11678397741E+03  0.11678397741E+03  0.00000000000E+00 0. -1.
         -1   -1    0    0    0  501 -0.00000000000E+00 -0.00000000000E+00 -0.16886101888E+03  0.16886101888E+03  0.00000000000E+00 0.  1.
         23    2    1    2    0    0  0.18121603589E+00 -0.69554529952E+02 -0.80265253985E+02  0.13984163444E+03  0.90968710274E+02 0.  0.
          5    1    1    2  502    0  0.35108967081E+02 -0.24032583501E+02  0.57477866433E+01  0.43189485879E+02  0.47000000000E+01 0. -1.
         -5    1    1    2    0  502 -0.35290183117E+02  0.93587113453E+02  0.22440425871E+02  0.10261387597E+03  0.47000000000E+01 0. -1.
        -11    1    3    3    0    0 -0.13326670740E+02  0.14753056896E+02  0.35499310386E+01  0.20195416588E+02  0.00000000000E+00 0. -1.
         11    1    3    3    0    0  0.13507886776E+02 -0.84307586848E+02 -0.83815185024E+02  0.11964621785E+03  0.00000000000E+00 0.  1.
<mgrwt>
<rscale>  0 0.13531168E+03</rscale>
<asrwt>0</asrwt>
<pdfrwt beam="1">  1        1 0.17966766E-01 0.14305260E+03</pdfrwt>
<pdfrwt beam="2">  1       -1 0.25978618E-01 0.14305260E+03</pdfrwt>
<totfact> 0.36956644E+03</totfact>
</mgrwt>
</event>
<event>
 7    1  0.1422977E-005  0.3333779E+03  0.7546771E-02  0.1114130E+00
          1   -1    0    0  501    0  0.00000000000E+00  0.00000000000E+00  0.86881323544E+02  0.86881323544E+02  0.00000000000E+00 0. -1.
         -1   -1    0    0    0  501 -0.00000000000E+00 -0.00000000000E+00 -0.76110958512E+03  0.76110958512E+03  0.00000000000E+00 0.  1.
         23    2    1    2    0    0  0.52951363782E+01 -0.20426046448E+02 -0.40942411995E+03  0.42224211316E+03  0.10106943300E+03 0.  0.
          5    1    1    2  502    0 -0.11770587103E+03  0.17644838920E+02  0.18838656406E+02  0.12059435058E+03  0.47000000000E+01 0. -1.
         -5    1    1    2    0  502  0.11241073466E+03  0.27812075276E+01 -0.28364279804E+03  0.30515444493E+03  0.47000000000E+01 0.  1.
        -11    1    3    3    0    0  0.29041459978E+01  0.36884687662E+02 -0.83799231956E+02  0.91603632703E+02  0.00000000000E+00 0. -1.
         11    1    3    3    0    0  0.23909903804E+01 -0.57310734110E+02 -0.32562488799E+03  0.33063848046E+03  0.00000000000E+00 0.  1.
<mgrwt>
<rscale>  0 0.24869881E+03</rscale>
<asrwt>0</asrwt>
<pdfrwt beam="1">  1        1 0.13366358E-01 0.33337787E+03</pdfrwt>
<pdfrwt beam="2">  1       -1 0.11709378E+00 0.33337787E+03</pdfrwt>
<totfact> 0.30435710E+02</totfact>
</mgrwt>
</event>
<event>
 7    1  0.1422977E-005  0.1294503E+03  0.7546771E-02  0.1242873E+00
         -2   -1    0    0    0  501 -0.00000000000E+00  0.00000000000E+00  0.13396112838E+03  0.13396112838E+03  0.00000000000E+00 0.  1.
          2   -1    0    0  501    0  0.00000000000E+00 -0.00000000000E+00 -0.10988374983E+03  0.10988374983E+03  0.00000000000E+00 0. -1.
         23    2    1    2    0    0  0.16006087709E+02 -0.29605337912E+02  0.55127249001E+02  0.11072283018E+03  0.89932533959E+02 0.  0.
          5    1    1    2  502    0 -0.12237749648E+01 -0.38862242356E+02 -0.46950765538E+02  0.61141114568E+02  0.47000000000E+01 0.  1.
         -5    1    1    2    0  502 -0.14782312744E+02  0.68467580268E+02  0.15900895083E+02  0.71980933463E+02  0.47000000000E+01 0.  1.
        -11    1    3    3    0    0 -0.68727634150E+01 -0.52413648325E+02  0.57774120203E+02  0.78308839686E+02  0.00000000000E+00 0.  1.
         11    1    3    3    0    0  0.22878851124E+02  0.22808310413E+02 -0.26468712019E+01  0.32413990495E+02  0.00000000000E+00 0. -1.
<mgrwt>
<rscale>  0 0.12013563E+03</rscale>
<asrwt>0</asrwt>
<pdfrwt beam="2">  1        2 0.16905192E-01 0.12945032E+03</pdfrwt>
<pdfrwt beam="1">  1       -2 0.20609405E-01 0.12945032E+03</pdfrwt>
<totfact> 0.63764328E+03</totfact>
</mgrwt>
</event>
<event>
 7    1  0.1422977E-005  0.8330697E+03  0.7546771E-02  0.9513346E-01
          2   -1    0    0  501    0  0.00000000000E+00  0.00000000000E+00  0.27483567812E+04  0.27483567812E+04  0.00000000000E+00 0. -1.
         -2   -1    0    0    0  501 -0.00000000000E+00 -0.00000000000E+00 -0.63129099741E+02  0.63129099741E+02  0.00000000000E+00 0.  1.
         23    2    1    2    0    0 -0.12692183910E+03 -0.11795645909E+02  0.81320878125E+02  0.17661196734E+03  0.91271086803E+02 0.  0.
          5    1    1    2  502    0  0.13388138951E+03 -0.50202727959E+01  0.26112538448E+04  0.26146927471E+04  0.47000000000E+01 0. -1.
         -5    1    1    2    0  502 -0.69595504113E+01  0.16815918705E+02 -0.73470414706E+01  0.20181166522E+02  0.47000000000E+01 0.  1.
        -11    1    3    3    0    0  0.19684773148E+01  0.12957168955E+02 -0.10200000056E+02  0.16607321621E+02  0.00000000000E+00 0. -1.
         11    1    3    3    0    0 -0.12889031642E+03 -0.24752814864E+02  0.91520878180E+02  0.16000464572E+03  0.00000000000E+00 0.  1.
<mgrwt>
<rscale>  0 0.83306972E+03</rscale>
<asrwt>0</asrwt>
<pdfrwt beam="1">  1        2 0.42282403E+00 0.83306972E+03</pdfrwt>
<pdfrwt beam="2">  1       -2 0.97121713E-02 0.83306972E+03</pdfrwt>
<totfact> 0.18546337E+02</totfact>
</mgrwt>
</event>
<event>
 7    1  0.1422977E-005  0.1454182E+03  0.7546771E-02  0.1216136E+00
          2   -1    0    0  501    0  0.00000000000E+00  0.00000000000E+00  0.50209901060E+03  0.50209901060E+03  0.00000000000E+00 0. -1.
         -2   -1    0    0    0  501 -0.00000000000E+00 -0.00000000000E+00 -0.48897316347E+02  0.48897316347E+02  0.00000000000E+00 0.  1.
         23    2    1    2    0    0  0.52551402816E+02 -0.52523666998E+02  0.60745079554E+02  0.13246480172E+03  0.91304838157E+02 0.  0.
          5    1    1    2  502    0  0.36182834154E+02  0.14446631096E+02  0.55438486634E+02  0.67922149831E+02  0.47000000000E+01 0. -1.
         -5    1    1    2    0  502 -0.88734236970E+02  0.38077035902E+02  0.33701812807E+03  0.35060937540E+03  0.47000000000E+01 0. -1.
        -11    1    3    3    0    0  0.53226879791E+02 -0.35626322643E+02 -0.53196814979E+01  0.64270013292E+02  0.00000000000E+00 0.  1.
         11    1    3    3    0    0 -0.67547697511E+00 -0.16897344355E+02  0.66064761052E+02  0.68194788424E+02  0.00000000000E+00 0. -1.
<mgrwt>
<rscale>  0 0.13793437E+03</rscale>
<asrwt>0</asrwt>
<pdfrwt beam="1">  1        2 0.77245998E-01 0.14541817E+03</pdfrwt>
<pdfrwt beam="2">  1       -2 0.75226644E-02 0.14541817E+03</pdfrwt>
<totfact> 0.62208824E+03</totfact>
</mgrwt>
</event>
<event>
 7    1  0.1422977E-005  0.1461275E+03  0.7546771E-02  0.1215741E+00
          1   -1    0    0  501    0  0.00000000000E+00  0.00000000000E+00  0.57856709634E+02  0.57856709634E+02  0.00000000000E+00 0. -1.
         -1   -1    0    0    0  501 -0.00000000000E+00 -0.00000000000E+00 -0.31001697954E+03  0.31001697954E+03  0.00000000000E+00 0.  1.
         23    2    1    2    0    0  0.54566188360E+02  0.52456545354E+02 -0.14686916087E+03  0.18776409849E+03  0.89194440431E+02 0.  0.
          5    1    1    2  502    0 -0.76794098011E+02 -0.72794791423E+02 -0.10566911243E+03  0.14961439259E+03  0.47000000000E+01 0. -1.
         -5    1    1    2    0  502  0.22227909652E+02  0.20338246069E+02  0.37800339121E+00  0.30495198101E+02  0.47000000000E+01 0. -1.
        -11    1    3    3    0    0 -0.16881122110E+02  0.19302395204E+02 -0.81397672485E+02  0.85341290301E+02  0.00000000000E+00 0.  1.
         11    1    3    3    0    0  0.71447310469E+02  0.33154150150E+02 -0.65471488382E+02  0.10242280818E+03  0.00000000000E+00 0. -1.
<mgrwt>
<rscale>  0 0.13822252E+03</rscale>
<asrwt>0</asrwt>
<pdfrwt beam="1">  1        1 0.89010321E-02 0.14612750E+03</pdfrwt>
<pdfrwt beam="2">  1       -1 0.47694921E-01 0.14612750E+03</pdfrwt>
<totfact> 0.32569143E+03</totfact>
</mgrwt>
</event>
<event>
 7    1  0.1422977E-005  0.1552180E+03  0.7546771E-02  0.1202589E+00
          1   -1    0    0  501    0  0.00000000000E+00  0.00000000000E+00  0.30841663792E+03  0.30841663792E+03  0.00000000000E+00 0. -1.
         -1   -1    0    0    0  501 -0.00000000000E+00 -0.00000000000E+00 -0.20253630174E+03  0.20253630174E+03  0.00000000000E+00 0.  1.
         23    2    1    2    0    0  0.75049604960E+02  0.53247284287E+02 -0.15838954796E+03  0.20447097533E+03  0.90848304106E+02 0.  0.
          5    1    1    2  502    0  0.31774751413E+02 -0.21140246579E+02  0.10630897317E+03  0.11304969098E+03  0.47000000000E+01 0. -1.
         -5    1    1    2    0  502 -0.10682435637E+03 -0.32107037709E+02  0.15796091096E+03  0.19343227336E+03  0.47000000000E+01 0. -1.
        -11    1    3    3    0    0  0.28743636445E+02  0.48701732359E+02 -0.14562990195E+03  0.15622459382E+03  0.00000000000E+00 0.  1.
         11    1    3    3    0    0  0.46305968515E+02  0.45455519282E+01 -0.12759646009E+02  0.48246381509E+02  0.00000000000E+00 0. -1.
<mgrwt>
<rscale>  0 0.14829098E+03</rscale>
<asrwt>0</asrwt>
<pdfrwt beam="1">  1        1 0.47448714E-01 0.15521798E+03</pdfrwt>
<pdfrwt beam="2">  1       -1 0.31159431E-01 0.15521798E+03</pdfrwt>
<totfact> 0.80921624E+02</totfact>
</mgrwt>
</event>
<event>
 7    1  0.1422977E-005  0.2049845E+03  0.7546771E-02  0.1149865E+00
         -1   -1    0    0    0  501 -0.00000000000E+00  0.00000000000E+00  0.92658168168E+03  0.92658168168E+03  0.00000000000E+00 0.  1.
          1   -1    0    0  501    0  0.00000000000E+00 -0.00000000000E+00 -0.44475753691E+02  0.44475753691E+02  0.00000000000E+00 0. -1.
         23    2    1    2    0    0 -0.67809673020E+02  0.14763543947E+03  0.28636868115E+03  0.34104037188E+03  0.88922094917E+02 0.  0.
          5    1    1    2  502    0  0.77139786441E+02 -0.38658469656E+02  0.17363657657E+03  0.19395044381E+03  0.47000000000E+01 0. -1.
         -5    1    1    2    0  502 -0.93301134210E+01 -0.10897696982E+03  0.42210067027E+03  0.43606661969E+03  0.47000000000E+01 0. -1.
        -11    1    3    3    0    0 -0.79715219860E+02  0.73485058846E+02  0.19130398471E+03  0.21989039251E+03  0.00000000000E+00 0. -1.
         11    1    3    3    0    0  0.11905546840E+02  0.74150380627E+02  0.95064696443E+02  0.12114997937E+03  0.00000000000E+00 0.  1.
<mgrwt>
<rscale>  0 0.19985033E+03</rscale>
<asrwt>0</asrwt>
<pdfrwt beam="2">  1        1 0.68424243E-02 0.20498447E+03</pdfrwt>
<pdfrwt beam="1">  1       -1 0.14255101E+00 0.20498447E+03</pdfrwt>
<totfact> 0.46502123E+02</totfact>
</mgrwt>
</event>
<event>
 7    1  0.1422977E-005  0.1332383E+03  0.7546771E-02  0.1239372E+00
         -1   -1    0    0    0  501 -0.00000000000E+00  0.00000000000E+00  0.78174518866E+02  0.78174518866E+02  0.00000000000E+00 0.  1.
          1   -1    0    0  501    0  0.00000000000E+00 -0.00000000000E+00 -0.24023637463E+03  0.24023637463E+03  0.00000000000E+00 0. -1.
         23    2    1    2    0    0  0.76036015410E+01  0.23028058976E+01  0.16135972529E+02  0.95909381612E+02  0.94207866977E+02 0.  0.
          5    1    1    2  502    0  0.39942241743E+02 -0.50724489377E+02 -0.96338101809E+02  0.11606668927E+03  0.47000000000E+01 0. -1.
         -5    1    1    2    0  502 -0.47545843284E+02  0.48421683480E+02 -0.81859726482E+02  0.10643482261E+03  0.47000000000E+01 0.  1.
        -11    1    3    3    0    0  0.48770481055E+01  0.37458665619E+02  0.38673403376E+02  0.54060793158E+02  0.00000000000E+00 0.  1.
         11    1    3    3    0    0  0.27265534355E+01 -0.35155859721E+02 -0.22537430847E+02  0.41848588454E+02  0.00000000000E+00 0. -1.
<mgrwt>
<rscale>  0 0.12228647E+03</rscale>
<asrwt>0</asrwt>
<pdfrwt beam="2">  1        1 0.36959442E-01 0.13323835E+03</pdfrwt>
<pdfrwt beam="1">  1       -1 0.12026849E-01 0.13323835E+03</pdfrwt>
<totfact> 0.50699530E+03</totfact>
</mgrwt>
</event>
<event>
 7    1  0.1422977E-005  0.1283492E+03  0.7546771E-02  0.1243675E+00
         -2   -1    0    0    0  501 -0.00000000000E+00  0.00000000000E+00  0.28637413022E+03  0.28637413022E+03  0.00000000000E+00 0.  1.
          2   -1    0    0  501    0  0.00000000000E+00 -0.00000000000E+00 -0.46869816726E+02  0.46869816726E+02  0.00000000000E+00 0. -1.
         23    2    1    2    0    0  0.29002697436E+02 -0.25616440855E+01  0.14257549268E+03  0.17240642762E+03  0.92458026653E+02 0.  0.
          5    1    1    2  502    0 -0.35341130827E+02  0.38229224901E+02 -0.50462565395E+01  0.52516891280E+02  0.47000000000E+01 0.  1.
         -5    1    1    2    0  502  0.63384333904E+01 -0.35667580816E+02  0.10197507735E+03  0.10832062804E+03  0.47000000000E+01 0.  1.
        -11    1    3    3    0    0 -0.50964517657E+01 -0.25361180556E+02  0.19737372402E+01  0.25943379473E+02  0.00000000000E+00 0. -1.
         11    1    3    3    0    0  0.34099149202E+02  0.22799536470E+02  0.14060175544E+03  0.14646304815E+03  0.00000000000E+00 0.  1.
<mgrwt>
<rscale>  0 0.11965032E+03</rscale>
<asrwt>0</asrwt>
<pdfrwt beam="2">  1        2 0.72107412E-02 0.12834918E+03</pdfrwt>
<pdfrwt beam="1">  1       -2 0.44057557E-01 0.12834918E+03</pdfrwt>
<totfact> 0.45472065E+03</totfact>
</mgrwt>
</event>
<event>
 7    1  0.1422977E-005  0.2009459E+03  0.7546771E-02  0.1152366E+00
         -1   -1    0    0    0  501 -0.00000000000E+00  0.00000000000E+00  0.58022256200E+03  0.58022256200E+03  0.00000000000E+00 0.  1.
          1   -1    0    0  501    0  0.00000000000E+00 -0.00000000000E+00 -0.79317130328E+02  0.79317130328E+02  0.00000000000E+00 0. -1.
         23    2    1    2    0    0 -0.11913679349E+02  0.15687904498E+03  0.38571169471E+03  0.42791750930E+03  0.97912781722E+02 0.  0.
          5    1    1    2  502    0 -0.54284808822E+02 -0.89465611644E+02  0.45939884924E+02  0.11438312447E+03  0.47000000000E+01 0.  1.
         -5    1    1    2    0  502  0.66198488171E+02 -0.67413433333E+02  0.69253852039E+02  0.11723905856E+03  0.47000000000E+01 0.  1.
        -11    1    3    3    0    0  0.36950935678E+01  0.16530453944E+03  0.32463550606E+03  0.36431779571E+03  0.00000000000E+00 0.  1.
         11    1    3    3    0    0 -0.15608772917E+02 -0.84254944678E+01  0.61076188652E+02  0.63599713594E+02  0.00000000000E+00 0. -1.
<mgrwt>
<rscale>  0 0.19691743E+03</rscale>
<asrwt>0</asrwt>
<pdfrwt beam="2">  1        1 0.12202636E-01 0.20094586E+03</pdfrwt>
<pdfrwt beam="1">  1       -1 0.89265007E-01 0.20094586E+03</pdfrwt>
<totfact> 0.63379108E+02</totfact>
</mgrwt>
</event>
<event>
 7    1  0.1422977E-005  0.3199858E+03  0.7546771E-02  0.1077065E+00
          2   -1    0    0  501    0  0.00000000000E+00  0.00000000000E+00  0.10480211719E+04  0.10480211719E+04  0.00000000000E+00 0. -1.
         -2   -1    0    0    0  501 -0.00000000000E+00 -0.00000000000E+00 -0.34005947545E+03  0.34005947545E+03  0.00000000000E+00 0.  1.
         23    2    1    2    0    0 -0.26242620395E+03  0.13368651395E+03 -0.23814876555E+03  0.38932345705E+03  0.90101737740E+02 0.  0.
          5    1    1    2  502    0  0.66425017706E+02 -0.76539835900E+02  0.46780837759E+03  0.47868298236E+03  0.47000000000E+01 0. -1.
         -5    1    1    2    0  502  0.19600118624E+03 -0.57146678047E+02  0.47830208441E+03  0.52007420795E+03  0.47000000000E+01 0. -1.
        -11    1    3    3    0    0 -0.23825012460E+03  0.10431446867E+03 -0.23603553549E+03  0.35122272743E+03  0.00000000000E+00 0. -1.
         11    1    3    3    0    0 -0.24176079351E+02  0.29372045274E+02 -0.21132300574E+01  0.38100729621E+02  0.00000000000E+00 0.  1.
<mgrwt>
<rscale>  0 0.31694378E+03</rscale>
<asrwt>0</asrwt>
<pdfrwt beam="1">  1        2 0.16123403E+00 0.31998581E+03</pdfrwt>
<pdfrwt beam="2">  1       -2 0.52316843E-01 0.31998581E+03</pdfrwt>
<totfact> 0.86354421E+01</totfact>
</mgrwt>
</event>
<event>
 7    1  0.1422977E-005  0.1309947E+03  0.7546771E-02  0.1239614E+00
         -2   -1    0    0    0  501 -0.00000000000E+00  0.00000000000E+00  0.80960619932E+02  0.80960619932E+02  0.00000000000E+00 0.  1.
          2   -1    0    0  501    0  0.00000000000E+00 -0.00000000000E+00 -0.16929224177E+03  0.16929224177E+03  0.00000000000E+00 0. -1.
         23    2    1    2    0    0 -0.26984144948E+02  0.28212722108E+02 -0.14989739462E+02  0.10012414139E+03  0.90972796116E+02 0.  0.
          5    1    1    2  502    0 -0.25101466989E+02  0.38087841622E+02 -0.33299602021E+02  0.56672046188E+02  0.47000000000E+01 0.  1.
         -5    1    1    2    0  502  0.52085611937E+02 -0.66300563730E+02 -0.40042280355E+02  0.93456674121E+02  0.47000000000E+01 0.  1.
        -11    1    3    3    0    0  0.26088739215E+02 -0.15258045765E+02 -0.18970871093E+01  0.30282490220E+02  0.00000000000E+00 0.  1.
         11    1    3    3    0    0 -0.53072884163E+02  0.43470767874E+02 -0.13092652353E+02  0.69841651173E+02  0.00000000000E+00 0. -1.
<mgrwt>
<rscale>  0 0.12213617E+03</rscale>
<asrwt>0</asrwt>
<pdfrwt beam="2">  1        2 0.26044960E-01 0.13099466E+03</pdfrwt>
<pdfrwt beam="1">  1       -2 0.12455480E-01 0.13099466E+03</pdfrwt>
<totfact> 0.89958462E+03</totfact>
</mgrwt>
</event>
<event>
 7    1  0.1422977E-005  0.1622166E+03  0.7546771E-02  0.1193831E+00
         -1   -1    0    0    0  501 -0.00000000000E+00  0.00000000000E+00  0.64688175810E+02  0.64688175810E+02  0.00000000000E+00 0.  1.
          1   -1    0    0  501    0  0.00000000000E+00 -0.00000000000E+00 -0.46393141261E+03  0.46393141261E+03  0.00000000000E+00 0. -1.
         23    2    1    2    0    0  0.46160657854E+02  0.92532596972E+02 -0.54344675877E+02  0.14747754829E+03  0.90017751673E+02 0.  0.
          5    1    1    2  502    0 -0.49705613804E+02 -0.23976692839E+02 -0.39349557121E+02  0.67941206118E+02  0.47000000000E+01 0.  1.
         -5    1    1    2    0  502  0.35449559508E+01 -0.68555904133E+02 -0.30554900380E+03  0.31320083402E+03  0.47000000000E+01 0.  1.
        -11    1    3    3    0    0 -0.62129945647E+01 -0.13943602963E+02 -0.17514567051E+02  0.23233282678E+02  0.00000000000E+00 0. -1.
         11    1    3    3    0    0  0.52373652418E+02  0.10647619993E+03 -0.36830108826E+02  0.12424426561E+03  0.00000000000E+00 0.  1.
<mgrwt>
<rscale>  0 0.15553586E+03</rscale>
<asrwt>0</asrwt>
<pdfrwt beam="2">  1        1 0.71374063E-01 0.16221664E+03</pdfrwt>
<pdfrwt beam="1">  1       -1 0.99520271E-02 0.16221664E+03</pdfrwt>
<totfact> 0.30027916E+03</totfact>
</mgrwt>
</event>
<event>
 7    1  0.1422977E-005  0.1329021E+03  0.7546771E-02  0.1235653E+00
         -2   -1    0    0    0  501 -0.00000000000E+00  0.00000000000E+00  0.55241085420E+02  0.55241085420E+02  0.00000000000E+00 0.  1.
          2   -1    0    0  501    0  0.00000000000E+00 -0.00000000000E+00 -0.25528265937E+03  0.25528265937E+03  0.00000000000E+00 0. -1.
         23    2    1    2    0    0 -0.12648422858E+02 -0.43335124389E+02 -0.68317050797E+02  0.12340262534E+03  0.92320490171E+02 0.  0.
          5    1    1    2  502    0 -0.51870002469E+02  0.32298349098E+02 -0.36043323168E+02  0.71097761256E+02  0.47000000000E+01 0. -1.
         -5    1    1    2    0  502  0.64518425328E+02  0.11036775291E+02 -0.95681199987E+02  0.11602335819E+03  0.47000000000E+01 0. -1.
        -11    1    3    3    0    0  0.16704521022E+02 -0.36648987090E+02  0.82651632339E+01  0.41115717197E+02  0.00000000000E+00 0.  1.
         11    1    3    3    0    0 -0.29352943880E+02 -0.66861372988E+01 -0.76582214031E+02  0.82286908147E+02  0.00000000000E+00 0. -1.
<mgrwt>
<rscale>  0 0.12462693E+03</rscale>
<asrwt>0</asrwt>
<pdfrwt beam="2">  1        2 0.39274255E-01 0.13290208E+03</pdfrwt>
<pdfrwt beam="1">  1       -2 0.84986285E-02 0.13290208E+03</pdfrwt>
<totfact> 0.10558936E+04</totfact>
</mgrwt>
</event>
<event>
 7    1  0.1422977E-005  0.1471072E+03  0.7546771E-02  0.1213718E+00
         -4   -1    0    0    0  501 -0.00000000000E+00  0.00000000000E+00  0.62597506510E+03  0.62597506510E+03  0.00000000000E+00 0.  1.
          4   -1    0    0  501    0  0.00000000000E+00 -0.00000000000E+00 -0.29236102798E+02  0.29236102798E+02  0.00000000000E+00 0. -1.
         23    2    1    2    0    0 -0.61031247469E+02 -0.47860607485E+02  0.32279580039E+03  0.34426841550E+03  0.91149120936E+02 0.  0.
          5    1    1    2  502    0  0.66044317092E+02  0.21982263231E+01  0.25058572051E+03  0.25919486365E+03  0.47000000000E+01 0.  1.
         -5    1    1    2    0  502 -0.50130696229E+01  0.45662381161E+02  0.23357441398E+02  0.51747888740E+02  0.47000000000E+01 0.  1.
        -11    1    3    3    0    0 -0.62808407676E+02  0.35486014847E+01  0.12559818592E+03  0.14047203620E+03  0.00000000000E+00 0. -1.
         11    1    3    3    0    0  0.17771602075E+01 -0.51409208969E+02  0.19719761447E+03  0.20379637930E+03  0.00000000000E+00 0.  1.
<mgrwt>
<rscale>  0 0.13971148E+03</rscale>
<asrwt>0</asrwt>
<pdfrwt beam="2">  1        4 0.44978624E-02 0.14710724E+03</pdfrwt>
<pdfrwt beam="1">  1       -4 0.96303847E-01 0.14710724E+03</pdfrwt>
<totfact> 0.44647539E+02</totfact>
</mgrwt>
</event>
<event>
 7    1  0.1422977E-005  0.1437383E+03  0.7546771E-02  0.1218711E+00
          2   -1    0    0  501    0  0.00000000000E+00  0.00000000000E+00  0.13105590666E+04  0.13105590666E+04  0.00000000000E+00 0. -1.
         -2   -1    0    0    0  501 -0.00000000000E+00 -0.00000000000E+00 -0.14584050008E+02  0.14584050008E+02  0.00000000000E+00 0.  1.
         23    2    1    2    0    0 -0.65982195178E+02 -0.26253192898E+02  0.35627610670E+03  0.37451450683E+03  0.91025114113E+02 0.  0.
          5    1    1    2  502    0  0.58484444211E+02 -0.43675832691E+02  0.49688774472E+03  0.50224250062E+03  0.47000000000E+01 0.  1.
         -5    1    1    2    0  502  0.74977509667E+01  0.69929025589E+02  0.44281116522E+03  0.44838610921E+03  0.47000000000E+01 0.  1.
        -11    1    3    3    0    0  0.22304069862E+01 -0.22582576976E+02  0.16802333312E+02  0.28235897417E+02  0.00000000000E+00 0.  1.
         11    1    3    3    0    0 -0.68212602164E+02 -0.36706159218E+01  0.33947377339E+03  0.34627860941E+03  0.00000000000E+00 0. -1.
<mgrwt>
<rscale>  0 0.13607456E+03</rscale>
<asrwt>0</asrwt>
<pdfrwt beam="1">  1        2 0.20162438E+00 0.14373835E+03</pdfrwt>
<pdfrwt beam="2">  1       -2 0.22437010E-02 0.14373835E+03</pdfrwt>
<totfact> 0.10982695E+04</totfact>
</mgrwt>
</event>
<event>
 7    1  0.1422977E-005  0.2638580E+03  0.7546771E-02  0.1107159E+00
         -1   -1    0    0    0  501 -0.00000000000E+00  0.00000000000E+00  0.29293779168E+02  0.29293779168E+02  0.00000000000E+00 0.  1.
          1   -1    0    0  501    0  0.00000000000E+00 -0.00000000000E+00 -0.23998740372E+04  0.23998740372E+04  0.00000000000E+00 0. -1.
         23    2    1    2    0    0  0.15519147778E+03 -0.17295745541E+03 -0.84082656644E+03  0.87682525926E+03  0.88512961066E+02 0.  0.
          5    1    1    2  502    0 -0.18037519406E+01  0.16632305926E+02 -0.46314417050E+03  0.46347006353E+03  0.47000000000E+01 0.  1.
         -5    1    1    2    0  502 -0.15338772584E+03  0.15632514948E+03 -0.10666095211E+04  0.10888724936E+04  0.47000000000E+01 0.  1.
        -11    1    3    3    0    0  0.11036051020E+03 -0.15953463784E+03 -0.57313413087E+03  0.60507311529E+03  0.00000000000E+00 0. -1.
         11    1    3    3    0    0  0.44830967574E+02 -0.13422817570E+02 -0.26769243558E+03  0.27175214397E+03  0.00000000000E+00 0.  1.
<mgrwt>
<rscale>  0 0.25997433E+03</rscale>
<asrwt>0</asrwt>
<pdfrwt beam="2">  1        1 0.36921141E+00 0.26385803E+03</pdfrwt>
<pdfrwt beam="1">  1       -1 0.45067350E-02 0.26385803E+03</pdfrwt>
<totfact> 0.38044739E+02</totfact>
</mgrwt>
</event>
<event>
 7    1  0.1422977E-005  0.1662770E+03  0.7546771E-02  0.1188150E+00
         -2   -1    0    0    0  501 -0.00000000000E+00  0.00000000000E+00  0.15336566748E+02  0.15336566748E+02  0.00000000000E+00 0.  1.
          2   -1    0    0  501    0  0.00000000000E+00 -0.00000000000E+00 -0.16382412255E+04  0.16382412255E+04  0.00000000000E+00 0. -1.
         23    2    1    2    0    0 -0.32049343026E+02  0.10487648533E+03 -0.59080015678E+03  0.60816508273E+03  0.93774756951E+02 0.  0.
          5    1    1    2  502    0  0.17316378372E+02 -0.31920629310E+02 -0.58898614861E+02  0.69353589438E+02  0.47000000000E+01 0.  1.
         -5    1    1    2    0  502  0.14732964654E+02 -0.72955856025E+02 -0.97320588714E+03  0.97605912010E+03  0.47000000000E+01 0.  1.
        -11    1    3    3    0    0  0.82645958573E+01  0.10052165840E+03 -0.36147379413E+03  0.37528150927E+03  0.00000000000E+00 0.  1.
         11    1    3    3    0    0 -0.40313938883E+02  0.43548269304E+01 -0.22932636264E+03  0.23288357346E+03  0.00000000000E+00 0. -1.
<mgrwt>
<rscale>  0 0.16048484E+03</rscale>
<asrwt>0</asrwt>
<pdfrwt beam="2">  1        2 0.25203720E+00 0.16627697E+03</pdfrwt>
<pdfrwt beam="1">  1       -2 0.23594709E-02 0.16627697E+03</pdfrwt>
<totfact> 0.68945188E+03</totfact>
</mgrwt>
</event>
<event>
 7    1  0.1422977E-005  0.4009894E+03  0.7546771E-02  0.1044242E+00
          1   -1    0    0  501    0  0.00000000000E+00  0.00000000000E+00  0.16284958654E+04  0.16284958654E+04  0.00000000000E+00 0. -1.
         -1   -1    0    0    0  501 -0.00000000000E+00 -0.00000000000E+00 -0.99061782990E+02  0.99061782990E+02  0.00000000000E+00 0.  1.
         23    2    1    2    0    0  0.38038675298E+03  0.21643701123E+02  0.61674906323E+03  0.73066927729E+03  0.91299803585E+02 0.  0.
          5    1    1    2  502    0 -0.24074558802E+02 -0.33132044059E+02  0.61358509102E+02  0.73920723511E+02  0.47000000000E+01 0. -1.
         -5    1    1    2    0  502 -0.35631219418E+03  0.11488342936E+02  0.85132651010E+03  0.92296764762E+03  0.47000000000E+01 0. -1.
        -11    1    3    3    0    0  0.22366918311E+03  0.57434495996E+02  0.37212102248E+03  0.43795054536E+03  0.00000000000E+00 0. -1.
         11    1    3    3    0    0  0.15671756987E+03 -0.35790794873E+02  0.24462804074E+03  0.29271873193E+03  0.00000000000E+00 0.  1.
<mgrwt>
<rscale>  0 0.39866908E+03</rscale>
<asrwt>0</asrwt>
<pdfrwt beam="1">  1        1 0.25053781E+00 0.40098938E+03</pdfrwt>
<pdfrwt beam="2">  1       -1 0.15240275E-01 0.40098938E+03</pdfrwt>
<totfact> 0.18128382E+02</totfact>
</mgrwt>
</event>
<event>
 7    1  0.1422977E-005  0.1488554E+03  0.7546771E-02  0.1211817E+00
          2   -1    0    0  501    0  0.00000000000E+00  0.00000000000E+00  0.82937643175E+02  0.82937643175E+02  0.00000000000E+00 0. -1.
         -2   -1    0    0    0  501 -0.00000000000E+00 -0.00000000000E+00 -0.23781918285E+03  0.23781918285E+03  0.00000000000E+00 0.  1.
         23    2    1    2    0    0  0.68551810900E+02  0.42811374901E+02 -0.11556096412E+03  0.16679563893E+03  0.89074598735E+02 0.  0.
          5    1    1    2  502    0 -0.34113791684E+02  0.31948710969E+02 -0.52524842683E+02  0.70465736458E+02  0.47000000000E+01 0. -1.
         -5    1    1    2    0  502 -0.34438019216E+02 -0.74760085870E+02  0.13204267125E+02  0.83495450637E+02  0.47000000000E+01 0. -1.
        -11    1    3    3    0    0 -0.68940606718E+01 -0.92836560555E+01  0.71655860414E+01  0.13603674710E+02  0.00000000000E+00 0. -1.
         11    1    3    3    0    0  0.75445871572E+02  0.52095030956E+02 -0.12272655016E+03  0.15319196422E+03  0.00000000000E+00 0.  1.
<mgrwt>
<rscale>  0 0.14112981E+03</rscale>
<asrwt>0</asrwt>
<pdfrwt beam="1">  1        2 0.12759637E-01 0.14885543E+03</pdfrwt>
<pdfrwt beam="2">  1       -2 0.36587567E-01 0.14885543E+03</pdfrwt>
<totfact> 0.32309812E+03</totfact>
</mgrwt>
</event>
<event>
 7    1  0.1422977E-005  0.4885384E+03  0.7546771E-02  0.1016815E+00
          2   -1    0    0  501    0  0.00000000000E+00  0.00000000000E+00  0.24647546453E+04  0.24647546453E+04  0.00000000000E+00 0. -1.
         -2   -1    0    0    0  501 -0.00000000000E+00 -0.00000000000E+00 -0.24208271233E+02  0.24208271233E+02  0.00000000000E+00 0.  1.
         23    2    1    2    0    0 -0.22017220763E+02 -0.88647392104E+02  0.37689979326E+03  0.39634179615E+03  0.81793930557E+02 0.  0.
          5    1    1    2  502    0  0.10337525954E+03  0.18839068128E+03  0.14245807957E+04  0.14407046979E+04  0.47000000000E+01 0. -1.
         -5    1    1    2    0  502 -0.81358038779E+02 -0.99743289178E+02  0.63906578511E+03  0.65191642249E+03  0.47000000000E+01 0.  1.
        -11    1    3    3    0    0  0.13052457178E+02 -0.27150430355E+01  0.71640109991E+01  0.15134766290E+02  0.00000000000E+00 0. -1.
         11    1    3    3    0    0 -0.35069677941E+02 -0.85932349068E+02  0.36973578226E+03  0.38120702986E+03  0.00000000000E+00 0.  1.
<mgrwt>
<rscale>  0 0.48853843E+03</rscale>
<asrwt>0</asrwt>
<pdfrwt beam="1">  1        2 0.37919282E+00 0.48853843E+03</pdfrwt>
<pdfrwt beam="2">  1       -2 0.37243514E-02 0.48853843E+03</pdfrwt>
<totfact> 0.12546597E+03</totfact>
</mgrwt>
</event>
<event>
 7    1  0.1422977E-005  0.1421643E+03  0.7546771E-02  0.1221432E+00
          2   -1    0    0  501    0  0.00000000000E+00  0.00000000000E+00  0.81820378209E+03  0.81820378209E+03  0.00000000000E+00 0. -1.
         -2   -1    0    0    0  501 -0.00000000000E+00 -0.00000000000E+00 -0.20758329107E+02  0.20758329107E+02  0.00000000000E+00 0.  1.
         23    2    1    2    0    0 -0.48619881681E+02  0.47105546523E+02  0.26731652240E+03  0.29010205215E+03  0.90101343523E+02 0.  0.
          5    1    1    2  502    0  0.47271053819E+02 -0.46628253662E+02  0.10910472128E+03  0.12780718592E+03  0.47000000000E+01 0.  1.
         -5    1    1    2    0  502  0.13488278620E+01 -0.47729286043E+00  0.42102420931E+03  0.42105287313E+03  0.47000000000E+01 0.  1.
        -11    1    3    3    0    0  0.18940154356E+02  0.40369652723E+02  0.97369680823E+02  0.10709478536E+03  0.00000000000E+00 0. -1.
         11    1    3    3    0    0 -0.67560036037E+02  0.67358937992E+01  0.16994684158E+03  0.18300726679E+03  0.00000000000E+00 0.  1.
<mgrwt>
<rscale>  0 0.13414452E+03</rscale>
<asrwt>0</asrwt>
<pdfrwt beam="1">  1        2 0.12587748E+00 0.14216428E+03</pdfrwt>
<pdfrwt beam="2">  1       -2 0.31935897E-02 0.14216428E+03</pdfrwt>
<totfact> 0.12750618E+04</totfact>
</mgrwt>
</event>
<event>
 7    1  0.1422977E-005  0.1299596E+03  0.7546771E-02  0.1246633E+00
          4   -1    0    0  501    0  0.00000000000E+00  0.00000000000E+00  0.88591536265E+02  0.88591536265E+02  0.00000000000E+00 0. -1.
         -4   -1    0    0    0  501 -0.00000000000E+00 -0.00000000000E+00 -0.13539045300E+03  0.13539045300E+03  0.00000000000E+00 0.  1.
         23    2    1    2    0    0 -0.28557170914E+02  0.21225510320E+02 -0.79148890067E+01  0.88330020482E+02  0.80458142853E+02 0.  0.
          5    1    1    2  502    0  0.20086636487E+02 -0.43380616977E+02  0.34006897939E+02  0.58854991310E+02  0.47000000000E+01 0. -1.
         -5    1    1    2    0  502  0.84705344277E+01  0.22155106657E+02 -0.72890925672E+02  0.76796977478E+02  0.47000000000E+01 0. -1.
        -11    1    3    3    0    0 -0.38674359702E+02  0.20953108364E+02  0.27246646125E+02  0.51740879133E+02  0.00000000000E+00 0. -1.
         11    1    3    3    0    0  0.10117188787E+02  0.27240195619E+00 -0.35161535132E+02  0.36589141348E+02  0.00000000000E+00 0.  1.
<mgrwt>
<rscale>  0 0.11788149E+03</rscale>
<asrwt>0</asrwt>
<pdfrwt beam="1">  1        4 0.13629467E-01 0.12995957E+03</pdfrwt>
<pdfrwt beam="2">  1       -4 0.20829300E-01 0.12995957E+03</pdfrwt>
<totfact> 0.15229100E+03</totfact>
</mgrwt>
</event>
<event>
 7    1  0.1422977E-005  0.1353616E+03  0.7546771E-02  0.1228948E+00
         -3   -1    0    0    0  501 -0.00000000000E+00  0.00000000000E+00  0.84370459404E+02  0.84370459404E+02  0.00000000000E+00 0.  1.
          3   -1    0    0  501    0  0.00000000000E+00 -0.00000000000E+00 -0.18079527769E+03  0.18079527769E+03  0.00000000000E+00 0. -1.
         23    2    1    2    0    0 -0.29497255651E+01 -0.51848317503E+02 -0.43461880084E+02  0.11981157834E+03  0.98837899492E+02 0.  0.
          5    1    1    2  502    0  0.20554086754E+02  0.82703867005E+02 -0.65291066910E+02  0.10745889222E+03  0.47000000000E+01 0. -1.
         -5    1    1    2    0  502 -0.17604361188E+02 -0.30855549503E+02  0.12328128704E+02  0.37895266529E+02  0.47000000000E+01 0. -1.
        -11    1    3    3    0    0 -0.43020089747E+02  0.26633067399E+01 -0.24369416803E+02  0.49514541298E+02  0.00000000000E+00 0.  1.
         11    1    3    3    0    0  0.40070364182E+02 -0.54511624243E+02 -0.19092463281E+02  0.70297037046E+02  0.00000000000E+00 0. -1.
<mgrwt>
<rscale>  0 0.12899918E+03</rscale>
<asrwt>0</asrwt>
<pdfrwt beam="2">  1        3 0.27814658E-01 0.13536158E+03</pdfrwt>
<pdfrwt beam="1">  1       -3 0.12980071E-01 0.13536158E+03</pdfrwt>
<totfact> 0.13508936E+03</totfact>
</mgrwt>
</event>
<event>
 7    1  0.1422977E-005  0.5470865E+03  0.7546771E-02  0.1002171E+00
         -2   -1    0    0    0  501 -0.00000000000E+00  0.00000000000E+00  0.98384827869E+02  0.98384827869E+02  0.00000000000E+00 0.  1.
          2   -1    0    0  501    0  0.00000000000E+00 -0.00000000000E+00 -0.76054304500E+03  0.76054304500E+03  0.00000000000E+00 0. -1.
         23    2    1    2    0    0 -0.77140890194E+02  0.26508936802E+02 -0.20597879191E+02  0.12379327528E+03  0.90813334413E+02 0.  0.
          5    1    1    2  502    0  0.48224935840E+02 -0.60458762926E+02 -0.67485211754E+03  0.67928519563E+03  0.47000000000E+01 0. -1.
         -5    1    1    2    0  502  0.28915954354E+02  0.33949826124E+02  0.33291779603E+02  0.55849401959E+02  0.47000000000E+01 0.  1.
        -11    1    3    3    0    0 -0.45793987113E+02  0.58616979460E+02  0.82481554099E-01  0.74384449585E+02  0.00000000000E+00 0.  1.
         11    1    3    3    0    0 -0.31346903081E+02 -0.32108042658E+02 -0.20680360746E+02  0.49408825696E+02  0.00000000000E+00 0. -1.
<mgrwt>
<rscale>  0 0.54708645E+03</rscale>
<asrwt>0</asrwt>
<pdfrwt beam="2">  1        2 0.11700662E+00 0.54708645E+03</pdfrwt>
<pdfrwt beam="1">  1       -2 0.15136128E-01 0.54708645E+03</pdfrwt>
<totfact> 0.12753089E+03</totfact>
</mgrwt>
</event>
<event>
 7    1  0.1422977E-005  0.2008067E+03  0.7546771E-02  0.1153167E+00
          2   -1    0    0  501    0  0.00000000000E+00  0.00000000000E+00  0.64193468192E+03  0.64193468192E+03  0.00000000000E+00 0.  1.
         -2   -1    0    0    0  501 -0.00000000000E+00 -0.00000000000E+00 -0.65697518473E+02  0.65697518473E+02  0.00000000000E+00 0. -1.
         23    2    1    2    0    0  0.11772193826E+03  0.10411277581E+03  0.14837138012E+03  0.23498807237E+03  0.92235583604E+02 0.  0.
          5    1    1    2  502    0 -0.12974687888E+03 -0.45988329189E+02  0.33640608151E+03  0.36351110117E+03  0.47000000000E+01 0. -1.
         -5    1    1    2    0  502  0.12024940622E+02 -0.58124446624E+02  0.91459701823E+02  0.10913302685E+03  0.47000000000E+01 0. -1.
        -11    1    3    3    0    0 -0.13438843568E+02  0.22406855209E+02  0.11451582407E+02  0.28527327537E+02  0.00000000000E+00 0. -1.
         11    1    3    3    0    0  0.13116078183E+03  0.81705920604E+02  0.13691979771E+03  0.20646074483E+03  0.00000000000E+00 0.  1.
<mgrwt>
<rscale>  0 0.19599034E+03</rscale>
<asrwt>0</asrwt>
<pdfrwt beam="1">  1        2 0.98759178E-01 0.20080673E+03</pdfrwt>
<pdfrwt beam="2">  1       -2 0.10107311E-01 0.20080673E+03</pdfrwt>
<totfact> 0.30062928E+03</totfact>
</mgrwt>
</event>
<event>
 7    1  0.1422977E-005  0.2228289E+03  0.7546771E-02  0.1135338E+00
          2   -1    0    0  501    0  0.00000000000E+00  0.00000000000E+00  0.68302460793E+03  0.68302460793E+03  0.00000000000E+00 0. -1.
         -2   -1    0    0    0  501 -0.00000000000E+00 -0.00000000000E+00 -0.71125432247E+02  0.71125432247E+02  0.00000000000E+00 0.  1.
         23    2    1    2    0    0  0.15146677544E+03  0.10526711906E+03  0.20055591353E+03  0.28632957622E+03  0.87969320500E+02 0.  0.
          5    1    1    2  502    0 -0.92542185295E+02 -0.12883115989E+03  0.27904859450E+03  0.32101671593E+03  0.47000000000E+01 0. -1.
         -5    1    1    2    0  502 -0.58924590141E+02  0.23564040835E+02  0.13229466766E+03  0.14680374803E+03  0.47000000000E+01 0. -1.
        -11    1    3    3    0    0  0.17589623219E+02  0.82564116875E+01 -0.72842966371E+01  0.20751485644E+02  0.00000000000E+00 0.  1.
         11    1    3    3    0    0  0.13387715222E+03  0.97010707372E+02  0.20784021017E+03  0.26557809057E+03  0.00000000000E+00 0. -1.
<mgrwt>
<rscale>  0 0.21806010E+03</rscale>
<asrwt>0</asrwt>
<pdfrwt beam="1">  1        2 0.10508070E+00 0.22282887E+03</pdfrwt>
<pdfrwt beam="2">  1       -2 0.10942375E-01 0.22282887E+03</pdfrwt>
<totfact> 0.24668211E+03</totfact>
</mgrwt>
</event>
<event>
 7    1  0.1422977E-005  0.1380272E+03  0.7546771E-02  0.1227423E+00
         -1   -1    0    0    0  501 -0.00000000000E+00  0.00000000000E+00  0.31387388938E+03  0.31387388938E+03  0.00000000000E+00 0.  1.
          1   -1    0    0  501    0  0.00000000000E+00 -0.00000000000E+00 -0.48489920538E+02  0.48489920538E+02  0.00000000000E+00 0. -1.
         23    2    1    2    0    0 -0.41764466028E+02  0.40946319742E+02  0.11939981938E+03  0.16145868601E+03  0.91606324550E+02 0.  0.
          5    1    1    2  502    0 -0.35410700068E+01 -0.49328756936E+02  0.14639003699E+03  0.15458977446E+03  0.47000000000E+01 0. -1.
         -5    1    1    2    0  502  0.45305536035E+02  0.83824371939E+01 -0.40588753904E+00  0.46315349437E+02  0.47000000000E+01 0. -1.
        -11    1    3    3    0    0  0.25939403005E+02  0.23125553602E+02  0.20696471971E+02  0.40447346140E+02  0.00000000000E+00 0. -1.
         11    1    3    3    0    0 -0.67703869034E+02  0.17820766140E+02  0.98703347413E+02  0.12101133988E+03  0.00000000000E+00 0.  1.
<mgrwt>
<rscale>  0 0.13002191E+03</rscale>
<asrwt>0</asrwt>
<pdfrwt beam="2">  1        1 0.74599880E-02 0.13802716E+03</pdfrwt>
<pdfrwt beam="1">  1       -1 0.48288289E-01 0.13802716E+03</pdfrwt>
<totfact> 0.40230467E+03</totfact>
</mgrwt>
</event>
<event>
 7    1  0.1422977E-005  0.1281658E+03  0.7546771E-02  0.1245954E+00
         -1   -1    0    0    0  501 -0.00000000000E+00  0.00000000000E+00  0.37592950255E+02  0.37592950255E+02  0.00000000000E+00 0.  1.
          1   -1    0    0  501    0  0.00000000000E+00 -0.00000000000E+00 -0.37711083543E+03  0.37711083543E+03  0.00000000000E+00 0. -1.
         23    2    1    2    0    0 -0.26595436680E+02  0.96643401960E+01 -0.70404247109E+02  0.11662892411E+03  0.88571051734E+02 0.  0.
          5    1    1    2  502    0  0.71837753671E+02  0.16002653809E+02 -0.18380527870E+03  0.19804852501E+03  0.47000000000E+01 0.  1.
         -5    1    1    2    0  502 -0.45242316991E+02 -0.25666994005E+02 -0.85308359365E+02  0.10002633656E+03  0.47000000000E+01 0.  1.
        -11    1    3    3    0    0  0.11675910031E+02  0.35614969299E+02 -0.57474324917E+02  0.68615238379E+02  0.00000000000E+00 0.  1.
         11    1    3    3    0    0 -0.38271346711E+02 -0.25950629103E+02 -0.12929922193E+02  0.48013685735E+02  0.00000000000E+00 0. -1.
<mgrwt>
<rscale>  0 0.11828459E+03</rscale>
<asrwt>0</asrwt>
<pdfrwt beam="2">  1        1 0.58017048E-01 0.12816580E+03</pdfrwt>
<pdfrwt beam="1">  1       -1 0.57835311E-02 0.12816580E+03</pdfrwt>
<totfact> 0.87453681E+03</totfact>
</mgrwt>
</event>
<event>
 7    1  0.1422977E-005  0.1289437E+03  0.7546771E-02  0.1245288E+00
          3   -1    0    0  501    0  0.00000000000E+00  0.00000000000E+00  0.23576561636E+02  0.23576561636E+02  0.00000000000E+00 0. -1.
         -3   -1    0    0    0  501 -0.00000000000E+00 -0.00000000000E+00 -0.59076224586E+03  0.59076224586E+03  0.00000000000E+00 0.  1.
         23    2    1    2    0    0  0.31582860279E+02  0.17784775181E+01 -0.34746356889E+03  0.35957559790E+03  0.86965733762E+02 0.  0.
          5    1    1    2  502    0  0.47691875220E+02  0.48182381886E+01 -0.99269845404E+02  0.11033731276E+03  0.47000000000E+01 0. -1.
         -5    1    1    2    0  502 -0.79274735499E+02 -0.65967157067E+01 -0.12045226993E+03  0.14442589684E+03  0.47000000000E+01 0. -1.
        -11    1    3    3    0    0 -0.29246907924E+02 -0.93136303143E+01 -0.11241276520E+03  0.11652791559E+03  0.00000000000E+00 0. -1.
         11    1    3    3    0    0  0.60829768202E+02  0.11092107832E+02 -0.23505080370E+03  0.24304768231E+03  0.00000000000E+00 0.  1.
<mgrwt>
<rscale>  0 0.11868141E+03</rscale>
<asrwt>0</asrwt>
<pdfrwt beam="1">  1        3 0.36271639E-02 0.12894373E+03</pdfrwt>
<pdfrwt beam="2">  1       -3 0.90886486E-01 0.12894373E+03</pdfrwt>
<totfact> 0.97442550E+02</totfact>
</mgrwt>
</event>
<event>
 7    1  0.1422977E-005  0.1660898E+03  0.7546771E-02  0.1189815E+00
          2   -1    0    0  501    0  0.00000000000E+00  0.00000000000E+00  0.35234317002E+03  0.35234317002E+03  0.00000000000E+00 0. -1.
         -2   -1    0    0    0  501 -0.00000000000E+00 -0.00000000000E+00 -0.10062733466E+03  0.10062733466E+03  0.00000000000E+00 0.  1.
         23    2    1    2    0    0  0.20923420624E+02 -0.10734165978E+03 -0.13337677150E+02  0.14017796095E+03  0.86671481181E+02 0.  0.
          5    1    1    2  502    0 -0.95005047726E+01  0.75429785661E+02  0.26783974610E+03  0.27846028756E+03  0.47000000000E+01 0.  1.
         -5    1    1    2    0  502 -0.11422915852E+02  0.31911874115E+02 -0.27862335946E+01  0.34332256170E+02  0.47000000000E+01 0.  1.
        -11    1    3    3    0    0  0.47053038783E+02 -0.91987750600E+02  0.71903331902E+01  0.10357333446E+03  0.00000000000E+00 0. -1.
         11    1    3    3    0    0 -0.26129618159E+02 -0.15353909176E+02 -0.20528010340E+02  0.36604626492E+02  0.00000000000E+00 0.  1.
<mgrwt>
<rscale>  0 0.15901328E+03</rscale>
<asrwt>0</asrwt>
<pdfrwt beam="1">  1        2 0.54206641E-01 0.16608977E+03</pdfrwt>
<pdfrwt beam="2">  1       -2 0.15481129E-01 0.16608977E+03</pdfrwt>
<totfact> 0.29164907E+03</totfact>
</mgrwt>
</event>
<event>
 7    1  0.1806463E-005  0.1537788E+03  0.7546771E-02  0.1205378E+00
         -1   -1    0    0    0  501 -0.00000000000E+00  0.00000000000E+00  0.15913134345E+03  0.15913134345E+03  0.00000000000E+00 0.  1.
          1   -1    0    0  501    0  0.00000000000E+00 -0.00000000000E+00 -0.13657396156E+03  0.13657396156E+03  0.00000000000E+00 0. -1.
         23    2    1    2    0    0  0.88299844252E+02  0.15027396454E+02  0.57851937647E+02  0.13792814966E+03  0.87490814602E+02 0.  0.
          5    1    1    2  502    0 -0.18409366354E+02 -0.34747964376E+00  0.45818684545E+02  0.49603098341E+02  0.47000000000E+01 0.  1.
         -5    1    1    2    0  502 -0.69890477898E+02 -0.14679916811E+02 -0.81113240304E+02  0.10817405701E+03  0.47000000000E+01 0.  1.
        -11    1    3    3    0    0  0.52015213248E+02  0.10874240286E+01 -0.16034135448E+02  0.54441329887E+02  0.00000000000E+00 0. -1.
         11    1    3    3    0    0  0.36284631004E+02  0.13939972426E+02  0.73886073095E+02  0.83486819772E+02  0.00000000000E+00 0.  1.
<mgrwt>
<rscale>  0 0.14607685E+03</rscale>
<asrwt>0</asrwt>
<pdfrwt beam="2">  1        1 0.21011379E-01 0.15377882E+03</pdfrwt>
<pdfrwt beam="1">  1       -1 0.24481745E-01 0.15377882E+03</pdfrwt>
<totfact> 0.33496979E+03</totfact>
</mgrwt>
</event>
<event>
 7    1  0.1422977E-005  0.1534892E+03  0.7546771E-02  0.1205108E+00
          2   -1    0    0  501    0  0.00000000000E+00  0.00000000000E+00  0.84320269451E+03  0.84320269451E+03  0.00000000000E+00 0. -1.
         -2   -1    0    0    0  501 -0.00000000000E+00 -0.00000000000E+00 -0.23276102354E+02  0.23276102354E+02  0.00000000000E+00 0.  1.
         23    2    1    2    0    0  0.53954477956E+02  0.72105272128E+02  0.37838724848E+03  0.39902192399E+03  0.89058015070E+02 0.  0.
          5    1    1    2  502    0  0.17383180790E+02 -0.76161942265E+02  0.17969985372E+03  0.19600240777E+03  0.47000000000E+01 0. -1.
         -5    1    1    2    0  502 -0.71337658746E+02  0.40566701372E+01  0.26183948995E+03  0.27145446511E+03  0.47000000000E+01 0. -1.
        -11    1    3    3    0    0  0.72635278677E+02  0.33408567973E+02  0.19680331710E+03  0.21242307253E+03  0.00000000000E+00 0.  1.
         11    1    3    3    0    0 -0.18680800721E+02  0.38696704154E+02  0.18158393139E+03  0.18659885146E+03  0.00000000000E+00 0. -1.
<mgrwt>
<rscale>  0 0.14628988E+03</rscale>
<asrwt>0</asrwt>
<pdfrwt beam="1">  1        2 0.12972347E+00 0.15348920E+03</pdfrwt>
<pdfrwt beam="2">  1       -2 0.35809395E-02 0.15348920E+03</pdfrwt>
<totfact> 0.10410379E+04</totfact>
</mgrwt>
</event>
<event>
 7    1  0.1422977E-005  0.1402542E+03  0.7546771E-02  0.1224904E+00
         -1   -1    0    0    0  501 -0.00000000000E+00  0.00000000000E+00  0.34601910450E+02  0.34601910450E+02  0.00000000000E+00 0.  1.
          1   -1    0    0  501    0  0.00000000000E+00 -0.00000000000E+00 -0.51863145551E+03  0.51863145551E+03  0.00000000000E+00 0. -1.
         23    2    1    2    0    0  0.26836407127E+02 -0.57668049636E+02 -0.11551716316E+03  0.15893320710E+03  0.88711626283E+02 0.  0.
          5    1    1    2  502    0  0.19176181142E+02  0.65021807462E+02 -0.31896011475E+03  0.32611839288E+03  0.47000000000E+01 0. -1.
         -5    1    1    2    0  502 -0.46012588269E+02 -0.73537578268E+01 -0.49552267146E+02  0.68181765985E+02  0.47000000000E+01 0. -1.
        -11    1    3    3    0    0  0.23471297523E+01  0.21521108187E+02 -0.45661936277E+02  0.50533944435E+02  0.00000000000E+00 0.  1.
         11    1    3    3    0    0  0.24489277375E+02 -0.79189157822E+02 -0.69855226884E+02  0.10839926266E+03  0.00000000000E+00 0. -1.
<mgrwt>
<rscale>  0 0.13173499E+03</rscale>
<asrwt>0</asrwt>
<pdfrwt beam="2">  1        1 0.79789454E-01 0.14025420E+03</pdfrwt>
<pdfrwt beam="1">  1       -1 0.53233709E-02 0.14025420E+03</pdfrwt>
<totfact> 0.66191502E+03</totfact>
</mgrwt>
</event>
<event>
 7    1  0.1422977E-005  0.5803815E+03  0.7546771E-02  0.9946965E-01
          1   -1    0    0  501    0  0.00000000000E+00  0.00000000000E+00  0.14373945390E+03  0.14373945390E+03  0.00000000000E+00 0. -1.
         -1   -1    0    0    0  501 -0.00000000000E+00 -0.00000000000E+00 -0.58585636963E+03  0.58585636963E+03  0.00000000000E+00 0.  1.
         23    2    1    2    0    0  0.65346853014E+02  0.13140810362E+03 -0.20809995485E+03  0.27060977963E+03  0.91573799332E+02 0.  0.
          5    1    1    2  502    0  0.10430124269E+03  0.57345847057E+02 -0.84623687298E+01  0.11941941670E+03  0.47000000000E+01 0. -1.
         -5    1    1    2    0  502 -0.16964809570E+03 -0.18875395068E+03 -0.22555459215E+03  0.33956662721E+03  0.47000000000E+01 0.  1.
        -11    1    3    3    0    0  0.15892633927E+02 -0.91952412804E+01 -0.50307149702E+02  0.53553128634E+02  0.00000000000E+00 0.  1.
         11    1    3    3    0    0  0.49454219087E+02  0.14060334490E+03 -0.15779280515E+03  0.21705665099E+03  0.00000000000E+00 0. -1.
<mgrwt>
<rscale>  0 0.58038151E+03</rscale>
<asrwt>0</asrwt>
<pdfrwt beam="1">  1        1 0.22113762E-01 0.58038151E+03</pdfrwt>
<pdfrwt beam="2">  1       -1 0.90131749E-01 0.58038151E+03</pdfrwt>
<totfact> 0.28101450E+02</totfact>
</mgrwt>
</event>
<event>
 7    1  0.1422977E-005  0.1501540E+03  0.7546771E-02  0.1210486E+00
         -2   -1    0    0    0  501 -0.00000000000E+00  0.00000000000E+00  0.76931961180E+02  0.76931961180E+02  0.00000000000E+00 0.  1.
          2   -1    0    0  501    0  0.00000000000E+00 -0.00000000000E+00 -0.23814229708E+03  0.23814229708E+03  0.00000000000E+00 0. -1.
         23    2    1    2    0    0  0.76026373170E+02  0.33762542719E+02 -0.71759112413E+02  0.14029514005E+03  0.87255013606E+02 0.  0.
          5    1    1    2  502    0 -0.18557606006E+02 -0.33624219564E+02 -0.10758742307E+03  0.11433335683E+03  0.47000000000E+01 0. -1.
         -5    1    1    2    0  502 -0.57468767164E+02 -0.13832315461E+00  0.18136199584E+02  0.60445761373E+02  0.47000000000E+01 0. -1.
        -11    1    3    3    0    0  0.19910710162E+02 -0.80592462093E+01 -0.66760465478E+02  0.70130931688E+02  0.00000000000E+00 0. -1.
         11    1    3    3    0    0  0.56115663008E+02  0.41821788928E+02 -0.49986469350E+01  0.70164208363E+02  0.00000000000E+00 0.  1.
<mgrwt>
<rscale>  0 0.14213413E+03</rscale>
<asrwt>0</asrwt>
<pdfrwt beam="2">  1        2 0.36637277E-01 0.15015398E+03</pdfrwt>
<pdfrwt beam="1">  1       -2 0.11835686E-01 0.15015398E+03</pdfrwt>
<totfact> 0.68115851E+03</totfact>
</mgrwt>
</event>
<event>
 7    1  0.1422977E-005  0.4711625E+03  0.7546771E-02  0.1021593E+00
          2   -1    0    0  501    0  0.00000000000E+00  0.00000000000E+00  0.77303471090E+03  0.77303471090E+03  0.00000000000E+00 0. -1.
         -2   -1    0    0    0  501 -0.00000000000E+00 -0.00000000000E+00 -0.71793052756E+02  0.71793052756E+02  0.00000000000E+00 0.  1.
         23    2    1    2    0    0  0.23611431386E+02  0.59170641121E+02  0.69098842565E+02  0.13109545575E+03  0.91393128902E+02 0.  0.
          5    1    1    2  502    0 -0.42394218333E+02 -0.77944736878E+02  0.66517818880E+03  0.67108625721E+03  0.47000000000E+01 0. -1.
         -5    1    1    2    0  502  0.18782786947E+02  0.18774095756E+02 -0.33035373221E+02  0.42646050706E+02  0.47000000000E+01 0.  1.
        -11    1    3    3    0    0 -0.28905614657E+02  0.25774345518E+02  0.55025456407E+02  0.67287831726E+02  0.00000000000E+00 0. -1.
         11    1    3    3    0    0  0.52517046043E+02  0.33396295604E+02  0.14073386158E+02  0.63807624020E+02  0.00000000000E+00 0.  1.
<mgrwt>
<rscale>  0 0.47116248E+03</rscale>
<asrwt>0</asrwt>
<pdfrwt beam="1">  1        2 0.11892841E+00 0.47116248E+03</pdfrwt>
<pdfrwt beam="2">  1       -2 0.11045086E-01 0.47116248E+03</pdfrwt>
<totfact> 0.21034944E+03</totfact>
</mgrwt>
</event>
<event>
 7    1  0.1422977E-005  0.1962364E+03  0.7546771E-02  0.1157795E+00
         -2   -1    0    0    0  501 -0.00000000000E+00  0.00000000000E+00  0.59366411301E+02  0.59366411301E+02  0.00000000000E+00 0.  1.
          2   -1    0    0  501    0  0.00000000000E+00 -0.00000000000E+00 -0.66422873890E+03  0.66422873890E+03  0.00000000000E+00 0. -1.
         23    2    1    2    0    0 -0.15114367350E+03  0.62958741095E+01 -0.15942476680E+03  0.23684742356E+03  0.88297212348E+02 0.  0.
          5    1    1    2  502    0  0.17174401669E+03  0.29345989249E+01 -0.37186422173E+03  0.40964583306E+03  0.47000000000E+01 0. -1.
         -5    1    1    2    0  502 -0.20600343183E+02 -0.92304730343E+01 -0.73573339071E+02  0.77101893580E+02  0.47000000000E+01 0. -1.
        -11    1    3    3    0    0 -0.72921932661E+02  0.24202388760E+02 -0.25930191182E+02  0.81090928589E+02  0.00000000000E+00 0.  1.
         11    1    3    3    0    0 -0.78221740844E+02 -0.17906514651E+02 -0.13349457562E+03  0.15575649497E+03  0.00000000000E+00 0. -1.
<mgrwt>
<rscale>  0 0.19074027E+03</rscale>
<asrwt>0</asrwt>
<pdfrwt beam="2">  1        2 0.10218903E+00 0.19623641E+03</pdfrwt>
<pdfrwt beam="1">  1       -2 0.91332945E-02 0.19623641E+03</pdfrwt>
<totfact> 0.33867924E+03</totfact>
</mgrwt>
</event>
<event>
 7    1  0.1422977E-005  0.1506207E+03  0.7546771E-02  0.1207948E+00
          1   -1    0    0  501    0  0.00000000000E+00  0.00000000000E+00  0.31200098346E+02  0.31200098346E+02  0.00000000000E+00 0. -1.
         -1   -1    0    0    0  501 -0.00000000000E+00 -0.00000000000E+00 -0.64273427273E+03  0.64273427273E+03  0.00000000000E+00 0.  1.
         23    2    1    2    0    0  0.52680840317E+02 -0.65454440585E+02 -0.35141638497E+03  0.37335517240E+03  0.94026881312E+02 0.  0.
          5    1    1    2  502    0 -0.53356443746E+02  0.74322788455E+02 -0.84370355797E+02  0.12454410428E+03  0.47000000000E+01 0.  1.
         -5    1    1    2    0  502  0.67560342899E+00 -0.88683478697E+01 -0.17574743362E+03  0.17603509440E+03  0.47000000000E+01 0.  1.
        -11    1    3    3    0    0 -0.14736961882E+02 -0.56136511626E+02 -0.16213721848E+03  0.17221197287E+03  0.00000000000E+00 0. -1.
         11    1    3    3    0    0  0.67417802199E+02 -0.93179289593E+01 -0.18927916649E+03  0.20114319954E+03  0.00000000000E+00 0.  1.
<mgrwt>
<rscale>  0 0.14407552E+03</rscale>
<asrwt>0</asrwt>
<pdfrwt beam="1">  1        1 0.48000155E-02 0.15062068E+03</pdfrwt>
<pdfrwt beam="2">  1       -1 0.98882188E-01 0.15062068E+03</pdfrwt>
<totfact> 0.17801837E+03</totfact>
</mgrwt>
</event>
<event>
 7    1  0.1422977E-005  0.1728754E+03  0.7546771E-02  0.1181430E+00
          1   -1    0    0  501    0  0.00000000000E+00  0.00000000000E+00  0.52209095193E+02  0.52209095193E+02  0.00000000000E+00 0. -1.
         -1   -1    0    0    0  501 -0.00000000000E+00 -0.00000000000E+00 -0.49754221783E+03  0.49754221783E+03  0.00000000000E+00 0.  1.
         23    2    1    2    0    0  0.10938963174E+03 -0.47910018998E+02 -0.21857801742E+03  0.26461310980E+03  0.89343644043E+02 0.  0.
          5    1    1    2  502    0 -0.43819007487E+02  0.85621192269E+02 -0.14029088444E+03  0.17016085401E+03  0.47000000000E+01 0. -1.
         -5    1    1    2    0  502 -0.65570624252E+02 -0.37711173271E+02 -0.86464220783E+02  0.11497734920E+03  0.47000000000E+01 0. -1.
        -11    1    3    3    0    0  0.68054751533E+01 -0.22669040866E+02 -0.11227756925E+03  0.11474516313E+03  0.00000000000E+00 0.  1.
         11    1    3    3    0    0  0.10258415659E+03 -0.25240978132E+02 -0.10630044817E+03  0.14986794667E+03  0.00000000000E+00 0. -1.
<mgrwt>
<rscale>  0 0.16660996E+03</rscale>
<asrwt>0</asrwt>
<pdfrwt beam="1">  1        1 0.80321686E-02 0.17287544E+03</pdfrwt>
<pdfrwt beam="2">  1       -1 0.76544956E-01 0.17287544E+03</pdfrwt>
<totfact> 0.15230032E+03</totfact>
</mgrwt>
</event>
<event>
 7    1  0.1422977E-005  0.1312732E+03  0.7546771E-02  0.1238577E+00
         -1   -1    0    0    0  501 -0.00000000000E+00  0.00000000000E+00  0.47455714741E+02  0.47455714741E+02  0.00000000000E+00 0.  1.
          1   -1    0    0  501    0  0.00000000000E+00 -0.00000000000E+00 -0.33670038056E+03  0.33670038056E+03  0.00000000000E+00 0. -1.
         23    2    1    2    0    0 -0.32640881188E+02  0.23344297240E+02 -0.52265027228E+02  0.11324651033E+03  0.92101876701E+02 0.  0.
          5    1    1    2  502    0  0.43920798108E+02 -0.53878153857E+02 -0.63263686207E+02  0.94107789061E+02  0.47000000000E+01 0.  1.
         -5    1    1    2    0  502 -0.11279916921E+02  0.30533856616E+02 -0.17371595239E+03  0.17680179592E+03  0.47000000000E+01 0.  1.
        -11    1    3    3    0    0  0.11171833237E+00  0.24704786544E+02  0.21356723166E+02  0.32656524364E+02  0.00000000000E+00 0.  1.
         11    1    3    3    0    0 -0.32752599520E+02 -0.13604893037E+01 -0.73621750394E+02  0.80589985963E+02  0.00000000000E+00 0. -1.
<mgrwt>
<rscale>  0 0.12278218E+03</rscale>
<asrwt>0</asrwt>
<pdfrwt beam="2">  1        1 0.51800058E-01 0.13127320E+03</pdfrwt>
<pdfrwt beam="1">  1       -1 0.73008793E-02 0.13127320E+03</pdfrwt>
<totfact> 0.71260893E+03</totfact>
</mgrwt>
</event>
<event>
 7    1  0.1422977E-005  0.1452734E+03  0.7546771E-02  0.1212889E+00
         -4   -1    0    0    0  501 -0.00000000000E+00  0.00000000000E+00  0.29384990269E+03  0.29384990269E+03  0.00000000000E+00 0.  1.
          4   -1    0    0  501    0  0.00000000000E+00 -0.00000000000E+00 -0.65036033706E+02  0.65036033706E+02  0.00000000000E+00 0. -1.
         23    2    1    2    0    0  0.70257630208E+02 -0.23325758408E+02  0.13974504093E+03  0.18848168399E+03  0.10254971051E+03 0.  0.
          5    1    1    2  502    0 -0.26665118492E+02  0.43644407092E+02  0.10713744800E+03  0.11881239657E+03  0.47000000000E+01 0. -1.
         -5    1    1    2    0  502 -0.43592511716E+02 -0.20318648684E+02 -0.18068619950E+02  0.51591855840E+02  0.47000000000E+01 0. -1.
        -11    1    3    3    0    0  0.53844849968E+02  0.35385607747E+02  0.84081064436E+02  0.10592938450E+03  0.00000000000E+00 0. -1.
         11    1    3    3    0    0  0.16412780240E+02 -0.58711366155E+02  0.55663976497E+02  0.82552299486E+02  0.00000000000E+00 0.  1.
<mgrwt>
<rscale>  0 0.14032764E+03</rscale>
<asrwt>0</asrwt>
<pdfrwt beam="2">  1        4 0.10005544E-01 0.14527337E+03</pdfrwt>
<pdfrwt beam="1">  1       -4 0.45207677E-01 0.14527337E+03</pdfrwt>
<totfact> 0.60619920E+02</totfact>
</mgrwt>
</event>
<event>
 7    1  0.1422977E-005  0.1980767E+03  0.7546771E-02  0.1156342E+00
          2   -1    0    0  501    0  0.00000000000E+00  0.00000000000E+00  0.99672981663E+02  0.99672981663E+02  0.00000000000E+00 0.  1.
         -2   -1    0    0    0  501 -0.00000000000E+00 -0.00000000000E+00 -0.51125807230E+03  0.51125807230E+03  0.00000000000E+00 0. -1.
         23    2    1    2    0    0 -0.96579781698E+02  0.11950144978E+03 -0.36814804789E+03  0.40814748664E+03  0.86273605228E+02 0.  0.
          5    1    1    2  502    0  0.72008514730E+01  0.40835642892E+01 -0.49172114647E+02  0.50085073805E+02  0.47000000000E+01 0. -1.
         -5    1    1    2    0  502  0.89378930225E+02 -0.12358501407E+03  0.57350719003E+01  0.15269849351E+03  0.47000000000E+01 0. -1.
        -11    1    3    3    0    0 -0.87703809778E+02  0.53297113293E+02 -0.16513322102E+03  0.19442613306E+03  0.00000000000E+00 0.  1.
         11    1    3    3    0    0 -0.88759719203E+01  0.66204336486E+02 -0.20301482687E+03  0.21372135358E+03  0.00000000000E+00 0. -1.
<mgrwt>
<rscale>  0 0.19236907E+03</rscale>
<asrwt>0</asrwt>
<pdfrwt beam="1">  1        2 0.15334305E-01 0.19807675E+03</pdfrwt>
<pdfrwt beam="2">  1       -2 0.78655086E-01 0.19807675E+03</pdfrwt>
<totfact> 0.55934286E+02</totfact>
</mgrwt>
</event>
<event>
 7    1  0.1422977E-005  0.1525313E+03  0.7546771E-02  0.1205885E+00
         -1   -1    0    0    0  501 -0.00000000000E+00  0.00000000000E+00  0.24114015986E+02  0.24114015986E+02  0.00000000000E+00 0.  1.
          1   -1    0    0  501    0  0.00000000000E+00 -0.00000000000E+00 -0.87849357835E+03  0.87849357835E+03  0.00000000000E+00 0. -1.
         23    2    1    2    0    0 -0.22480190595E+02  0.84480874202E+02 -0.26520170835E+03  0.29400564638E+03  0.92005417864E+02 0.  0.
          5    1    1    2  502    0 -0.22056913513E+02 -0.89136133210E+02 -0.24855179952E+03  0.26501291425E+03  0.47000000000E+01 0. -1.
         -5    1    1    2    0  502  0.44537104109E+02  0.46552590080E+01 -0.34062605450E+03  0.34358903370E+03  0.47000000000E+01 0. -1.
        -11    1    3    3    0    0 -0.53118550824E+02  0.77492159476E+02 -0.17726998976E+03  0.20062717785E+03  0.00000000000E+00 0. -1.
         11    1    3    3    0    0  0.30638360229E+02  0.69887147260E+01 -0.87931718591E+02  0.93378468532E+02  0.00000000000E+00 0.  1.
<mgrwt>
<rscale>  0 0.14567910E+03</rscale>
<asrwt>0</asrwt>
<pdfrwt beam="2">  1        1 0.13515285E+00 0.15253127E+03</pdfrwt>
<pdfrwt beam="1">  1       -1 0.37098489E-02 0.15253127E+03</pdfrwt>
<totfact> 0.53427973E+03</totfact>
</mgrwt>
</event>
<event>
 7    1  0.1422977E-005  0.1371495E+03  0.7546771E-02  0.1229316E+00
          1   -1    0    0  501    0  0.00000000000E+00  0.00000000000E+00  0.11574759066E+04  0.11574759066E+04  0.00000000000E+00 0. -1.
         -1   -1    0    0    0  501 -0.00000000000E+00 -0.00000000000E+00 -0.21439364425E+02  0.21439364425E+02  0.00000000000E+00 0.  1.
         23    2    1    2    0    0  0.24948272892E+02  0.50602236197E+02  0.15344720996E+03  0.18680046664E+03  0.90362411790E+02 0.  0.
          5    1    1    2  502    0  0.16859685035E+01 -0.14221592010E+02  0.91752502291E+01  0.17645718627E+02  0.47000000000E+01 0. -1.
         -5    1    1    2    0  502 -0.26634241395E+02 -0.36380644187E+02  0.97341408195E+03  0.97446908572E+03  0.47000000000E+01 0. -1.
        -11    1    3    3    0    0 -0.89535580345E+01  0.63513665437E+02  0.65550015107E+02  0.91711266371E+02  0.00000000000E+00 0.  1.
         11    1    3    3    0    0  0.33901830926E+02 -0.12911429240E+02  0.87897194851E+02  0.95089200270E+02  0.00000000000E+00 0. -1.
<mgrwt>
<rscale>  0 0.12875449E+03</rscale>
<asrwt>0</asrwt>
<pdfrwt beam="1">  1        1 0.17807317E+00 0.13714951E+03</pdfrwt>
<pdfrwt beam="2">  1       -1 0.32983647E-02 0.13714951E+03</pdfrwt>
<totfact> 0.39533591E+03</totfact>
</mgrwt>
</event>
<event>
 7    1  0.1422977E-005  0.1340850E+03  0.7546771E-02  0.1233833E+00
         -1   -1    0    0    0  501 -0.00000000000E+00  0.00000000000E+00  0.35007225384E+02  0.35007225384E+02  0.00000000000E+00 0.  1.
          1   -1    0    0  501    0  0.00000000000E+00 -0.00000000000E+00 -0.40896816732E+03  0.40896816732E+03  0.00000000000E+00 0. -1.
         23    2    1    2    0    0  0.25176528734E+02  0.41475970251E+02 -0.14017220839E+03  0.17446478015E+03  0.91845510501E+02 0.  0.
          5    1    1    2  502    0 -0.41924197751E+02  0.37750637979E+01 -0.14258126998E+02  0.44690867627E+02  0.47000000000E+01 0.  1.
         -5    1    1    2    0  502  0.16747669017E+02 -0.45251034049E+02 -0.21953060654E+03  0.22481974493E+03  0.47000000000E+01 0.  1.
        -11    1    3    3    0    0  0.43746802703E+02  0.31693202505E+02 -0.28968922273E+02  0.61297963175E+02  0.00000000000E+00 0.  1.
         11    1    3    3    0    0 -0.18570273969E+02  0.97827677461E+01 -0.11120328612E+03  0.11316681697E+03  0.00000000000E+00 0. -1.
<mgrwt>
<rscale>  0 0.12579445E+03</rscale>
<asrwt>0</asrwt>
<pdfrwt beam="2">  1        1 0.62918181E-01 0.13408504E+03</pdfrwt>
<pdfrwt beam="1">  1       -1 0.53857269E-02 0.13408504E+03</pdfrwt>
<totfact> 0.88070322E+03</totfact>
</mgrwt>
</event>
<event>
 7    1  0.1422977E-005  0.1326597E+03  0.7546771E-02  0.1236862E+00
         -2   -1    0    0    0  501 -0.00000000000E+00  0.00000000000E+00  0.53745420093E+02  0.53745420093E+02  0.00000000000E+00 0.  1.
          2   -1    0    0  501    0  0.00000000000E+00 -0.00000000000E+00 -0.25686296242E+03  0.25686296242E+03  0.00000000000E+00 0. -1.
         23    2    1    2    0    0  0.14394077103E+02  0.42017531422E+02 -0.10536286345E+03  0.14582193665E+03  0.90498849787E+02 0.  0.
          5    1    1    2  502    0 -0.47952032287E+02 -0.71761437984E+02 -0.53759216719E+02  0.10179019975E+03  0.47000000000E+01 0. -1.
         -5    1    1    2    0  502  0.33557955184E+02  0.29743906563E+02 -0.43995462153E+02  0.62996246109E+02  0.47000000000E+01 0. -1.
        -11    1    3    3    0    0 -0.38768010867E+01 -0.27373766726E+02 -0.40867459601E+02  0.49340672327E+02  0.00000000000E+00 0.  1.
         11    1    3    3    0    0  0.18270878190E+02  0.69391298148E+02 -0.64495403848E+02  0.96481264326E+02  0.00000000000E+00 0. -1.
<mgrwt>
<rscale>  0 0.12385981E+03</rscale>
<asrwt>0</asrwt>
<pdfrwt beam="2">  1        2 0.39517378E-01 0.13265970E+03</pdfrwt>
<pdfrwt beam="1">  1       -2 0.82685263E-02 0.13265970E+03</pdfrwt>
<totfact> 0.10943832E+04</totfact>
</mgrwt>
</event>
<event>
 7    1  0.1422977E-005  0.4970911E+03  0.7546771E-02  0.1072755E+00
          1   -1    0    0  501    0  0.00000000000E+00  0.00000000000E+00  0.63227810953E+03  0.63227810953E+03  0.00000000000E+00 0. -1.
         -1   -1    0    0    0  501 -0.00000000000E+00 -0.00000000000E+00 -0.35393910381E+03  0.35393910381E+03  0.00000000000E+00 0.  1.
         23    2    1    2    0    0 -0.38350591743E+01 -0.16043535367E+02 -0.24655966214E+03  0.26329388396E+03  0.90883989946E+02 0.  0.
          5    1    1    2  502    0 -0.59275631873E+02 -0.10893001375E+03  0.56399396086E+03  0.57748647285E+03  0.47000000000E+01 0. -1.
         -5    1    1    2    0  502  0.63110691047E+02  0.12497354912E+03 -0.39095293006E+02  0.14543685653E+03  0.47000000000E+01 0.  1.
        -11    1    3    3    0    0 -0.44540051039E+02 -0.18522587539E+02 -0.16789233775E+03  0.17468468585E+03  0.00000000000E+00 0.  1.
         11    1    3    3    0    0  0.40704991864E+02  0.24790521723E+01 -0.78667324395E+02  0.88609198110E+02  0.00000000000E+00 0. -1.
<mgrwt>
<rscale>  0 0.32636858E+03</rscale>
<asrwt>0</asrwt>
<pdfrwt beam="1">  1        1 0.97273555E-01 0.49709107E+03</pdfrwt>
<pdfrwt beam="2">  1       -1 0.54452170E-01 0.49709107E+03</pdfrwt>
<totfact> 0.11230217E+02</totfact>
</mgrwt>
</event>
<event>
 7    1  0.1422977E-005  0.1469357E+03  0.7546771E-02  0.1212780E+00
          2   -1    0    0  501    0  0.00000000000E+00  0.00000000000E+00  0.36960965597E+03  0.36960965597E+03  0.00000000000E+00 0. -1.
         -2   -1    0    0    0  501 -0.00000000000E+00 -0.00000000000E+00 -0.54256298157E+02  0.54256298157E+02  0.00000000000E+00 0.  1.
         23    2    1    2    0    0 -0.32206914301E+02  0.70195033981E+02  0.79709326228E+02  0.14616430607E+03  0.95109408357E+02 0.  0.
          5    1    1    2  502    0 -0.48061222228E+02 -0.20879362821E+02  0.84135482691E+02  0.99230531196E+02  0.47000000000E+01 0. -1.
         -5    1    1    2    0  502  0.80268136529E+02 -0.49315671160E+02  0.15150854889E+03  0.17847111685E+03  0.47000000000E+01 0. -1.
        -11    1    3    3    0    0  0.30792888260E+02  0.43167317493E+02  0.25881097938E+02  0.59003817651E+02  0.00000000000E+00 0.  1.
         11    1    3    3    0    0 -0.62999802561E+02  0.27027716488E+02  0.53828228290E+02  0.87160488423E+02  0.00000000000E+00 0. -1.
<mgrwt>
<rscale>  0 0.14040889E+03</rscale>
<asrwt>0</asrwt>
<pdfrwt beam="1">  1        2 0.56863022E-01 0.14693569E+03</pdfrwt>
<pdfrwt beam="2">  1       -2 0.83471231E-02 0.14693569E+03</pdfrwt>
<totfact> 0.73804596E+03</totfact>
</mgrwt>
</event>
<event>
 7    1  0.1422977E-005  0.1389644E+03  0.7546771E-02  0.1225983E+00
          1   -1    0    0  501    0  0.00000000000E+00  0.00000000000E+00  0.15162605058E+03  0.15162605058E+03  0.00000000000E+00 0. -1.
         -1   -1    0    0    0  501 -0.00000000000E+00 -0.00000000000E+00 -0.10708054058E+03  0.10708054058E+03  0.00000000000E+00 0.  1.
         23    2    1    2    0    0 -0.46241377670E+02 -0.39333425232E+02 -0.82664186911E+01  0.11004521993E+03  0.91412435713E+02 0.  0.
          5    1    1    2  502    0  0.43608371707E+02 -0.38384919080E+02  0.37382506798E+02  0.69243295056E+02  0.47000000000E+01 0.  1.
         -5    1    1    2    0  502  0.26330059630E+01  0.77718344312E+02  0.15429421886E+02  0.79418076171E+02  0.47000000000E+01 0.  1.
        -11    1    3    3    0    0  0.16470236914E+02  0.14710253967E+02 -0.15445986568E+02  0.26948817726E+02  0.00000000000E+00 0.  1.
         11    1    3    3    0    0 -0.62711614583E+02 -0.54043679199E+02  0.71795678765E+01  0.83096402208E+02  0.00000000000E+00 0. -1.
<mgrwt>
<rscale>  0 0.13099758E+03</rscale>
<asrwt>0</asrwt>
<pdfrwt beam="1">  1        1 0.23327085E-01 0.13896440E+03</pdfrwt>
<pdfrwt beam="2">  1       -1 0.16473929E-01 0.13896440E+03</pdfrwt>
<totfact> 0.55209925E+03</totfact>
</mgrwt>
</event>
<event>
 7    1  0.1422977E-005  0.2101829E+03  0.7546771E-02  0.1145086E+00
          2   -1    0    0  501    0  0.00000000000E+00  0.00000000000E+00  0.22113377764E+04  0.22113377764E+04  0.00000000000E+00 0. -1.
         -2   -1    0    0    0  501 -0.00000000000E+00 -0.00000000000E+00 -0.25412859075E+02  0.25412859075E+02  0.00000000000E+00 0.  1.
         23    2    1    2    0    0  0.16532573665E+03  0.34912781878E+02  0.46840650973E+03  0.50641935438E+03  0.92219317918E+02 0.  0.
          5    1    1    2  502    0 -0.16223738327E+03 -0.64252190527E+02  0.15795147367E+04  0.15891312740E+04  0.47000000000E+01 0. -1.
         -5    1    1    2    0  502 -0.30883533813E+01  0.29339408649E+02  0.13800367094E+03  0.14120000715E+03  0.47000000000E+01 0. -1.
        -11    1    3    3    0    0  0.20233199912E+02 -0.25274343116E+02  0.50717935534E+02  0.60170456068E+02  0.00000000000E+00 0.  1.
         11    1    3    3    0    0  0.14509253674E+03  0.60187124994E+02  0.41768857419E+03  0.44624889831E+03  0.00000000000E+00 0. -1.
<mgrwt>
<rscale>  0 0.20561522E+03</rscale>
<asrwt>0</asrwt>
<pdfrwt beam="1">  1        2 0.34020566E+00 0.21018292E+03</pdfrwt>
<pdfrwt beam="2">  1       -2 0.39096724E-02 0.21018292E+03</pdfrwt>
<totfact> 0.16432380E+03</totfact>
</mgrwt>
</event>
<event>
 7    1  0.1422977E-005  0.1487585E+03  0.7546771E-02  0.1213098E+00
          2   -1    0    0  501    0  0.00000000000E+00  0.00000000000E+00  0.10028305290E+04  0.10028305290E+04  0.00000000000E+00 0. -1.
         -2   -1    0    0    0  501 -0.00000000000E+00 -0.00000000000E+00 -0.35351719718E+02  0.35351719718E+02  0.00000000000E+00 0.  1.
         23    2    1    2    0    0  0.55439092803E+02  0.58579014558E+02  0.89060455682E+02  0.14725695075E+03  0.85134310470E+02 0.  0.
          5    1    1    2  502    0 -0.82820566977E+02 -0.66434038202E+02  0.80580018480E+03  0.81277841727E+03  0.47000000000E+01 0.  1.
         -5    1    1    2    0  502  0.27381474174E+02  0.78550236442E+01  0.72618168789E+02  0.78146880697E+02  0.47000000000E+01 0.  1.
        -11    1    3    3    0    0  0.42315663311E+02  0.22424741452E+02 -0.24901577718E+01  0.47955033900E+02  0.00000000000E+00 0.  1.
         11    1    3    3    0    0  0.13123429492E+02  0.36154273106E+02  0.91550613454E+02  0.99301916846E+02  0.00000000000E+00 0. -1.
<mgrwt>
<rscale>  0 0.14017170E+03</rscale>
<asrwt>0</asrwt>
<pdfrwt beam="1">  1        2 0.15428160E+00 0.14875847E+03</pdfrwt>
<pdfrwt beam="2">  1       -2 0.54387269E-02 0.14875847E+03</pdfrwt>
<totfact> 0.44180006E+03</totfact>
</mgrwt>
</event>
<event>
 7    1  0.1422977E-005  0.1636854E+03  0.7546771E-02  0.1189998E+00
         -1   -1    0    0    0  501 -0.00000000000E+00  0.00000000000E+00  0.34916267826E+02  0.34916267826E+02  0.00000000000E+00 0.  1.
          1   -1    0    0  501    0  0.00000000000E+00 -0.00000000000E+00 -0.71815896988E+03  0.71815896988E+03  0.00000000000E+00 0. -1.
         23    2    1    2    0    0 -0.27832826393E+02  0.10187358898E+03 -0.23912750101E+03  0.27975587178E+03  0.99641817022E+02 0.  0.
          5    1    1    2  502    0  0.70098419883E+02 -0.82831065422E+02 -0.37140342247E+03  0.38695912716E+03  0.47000000000E+01 0.  1.
         -5    1    1    2    0  502 -0.42265593490E+02 -0.19042523557E+02 -0.72711778573E+02  0.86360238766E+02  0.47000000000E+01 0.  1.
        -11    1    3    3    0    0  0.21346520989E+02  0.92549787866E+02 -0.16274535885E+03  0.18843351353E+03  0.00000000000E+00 0. -1.
         11    1    3    3    0    0 -0.49179347382E+02  0.93238011127E+01 -0.76382142159E+02  0.91322358253E+02  0.00000000000E+00 0.  1.
<mgrwt>
<rscale>  0 0.15885279E+03</rscale>
<asrwt>0</asrwt>
<pdfrwt beam="2">  1        1 0.11048599E+00 0.16368540E+03</pdfrwt>
<pdfrwt beam="1">  1       -1 0.53717337E-02 0.16368540E+03</pdfrwt>
<totfact> 0.42029214E+03</totfact>
</mgrwt>
</event>
<event>
 7    1  0.1422977E-005  0.1286202E+03  0.7546771E-02  0.1243774E+00
         -2   -1    0    0    0  501 -0.00000000000E+00  0.00000000000E+00  0.26820346338E+02  0.26820346338E+02  0.00000000000E+00 0.  1.
          2   -1    0    0  501    0  0.00000000000E+00 -0.00000000000E+00 -0.47886000614E+03  0.47886000614E+03  0.00000000000E+00 0. -1.
         23    2    1    2    0    0  0.12843899241E+01 -0.30161607081E+02 -0.22626488311E+03  0.24583922532E+03  0.91267492449E+02 0.  0.
          5    1    1    2  502    0 -0.46576356637E+02 -0.52972609116E+01 -0.18033324378E+03  0.18638558631E+03  0.47000000000E+01 0. -1.
         -5    1    1    2    0  502  0.45291966713E+02  0.35458867993E+02 -0.45441532910E+02  0.73455540848E+02  0.47000000000E+01 0. -1.
        -11    1    3    3    0    0 -0.44541383966E+02 -0.11378209762E+02 -0.12305195455E+03  0.13135898166E+03  0.00000000000E+00 0. -1.
         11    1    3    3    0    0  0.45825773891E+02 -0.18783397319E+02 -0.10321292856E+03  0.11448024366E+03  0.00000000000E+00 0.  1.
<mgrwt>
<rscale>  0 0.11959074E+03</rscale>
<asrwt>0</asrwt>
<pdfrwt beam="2">  1        2 0.73670769E-01 0.12862022E+03</pdfrwt>
<pdfrwt beam="1">  1       -2 0.41262072E-02 0.12862022E+03</pdfrwt>
<totfact> 0.16102245E+04</totfact>
</mgrwt>
</event>
<event>
 7    1  0.1422977E-005  0.1402331E+03  0.7546771E-02  0.1224338E+00
         -1   -1    0    0    0  501 -0.00000000000E+00  0.00000000000E+00  0.20375544296E+02  0.20375544296E+02  0.00000000000E+00 0.  1.
          1   -1    0    0  501    0  0.00000000000E+00 -0.00000000000E+00 -0.79520219044E+03  0.79520219044E+03  0.00000000000E+00 0. -1.
         23    2    1    2    0    0  0.22251634376E+02 -0.59543145255E+02 -0.27275152842E+03  0.29428631986E+03  0.90390931059E+02 0.  0.
          5    1    1    2  502    0 -0.62509121705E+02  0.54633604092E+00 -0.31087414115E+03  0.31713169254E+03  0.47000000000E+01 0. -1.
         -5    1    1    2    0  502  0.40257487329E+02  0.58996809214E+02 -0.19120097657E+03  0.20415972234E+03  0.47000000000E+01 0. -1.
        -11    1    3    3    0    0  0.41468564289E+02 -0.23362042656E+02 -0.55092191906E+02  0.72805057999E+02  0.00000000000E+00 0.  1.
         11    1    3    3    0    0 -0.19216929913E+02 -0.36181102599E+02 -0.21765933652E+03  0.22148126186E+03  0.00000000000E+00 0. -1.
<mgrwt>
<rscale>  0 0.13212407E+03</rscale>
<asrwt>0</asrwt>
<pdfrwt beam="2">  1        1 0.12233877E+00 0.14023308E+03</pdfrwt>
<pdfrwt beam="1">  1       -1 0.31346999E-02 0.14023308E+03</pdfrwt>
<totfact> 0.79394384E+03</totfact>
</mgrwt>
</event>
<event>
 7    1  0.1422977E-005  0.2460432E+03  0.7546771E-02  0.1145537E+00
         -1   -1    0    0    0  501 -0.00000000000E+00  0.00000000000E+00  0.86060536749E+02  0.86060536749E+02  0.00000000000E+00 0.  1.
          1   -1    0    0  501    0  0.00000000000E+00 -0.00000000000E+00 -0.58580610426E+03  0.58580610426E+03  0.00000000000E+00 0. -1.
         23    2    1    2    0    0 -0.75358470996E+02 -0.40232798360E+01 -0.44179856759E+01  0.11879641142E+03  0.91640508718E+02 0.  0.
          5    1    1    2  502    0  0.13057353165E+03 -0.68688016002E+02 -0.36642071520E+03  0.39503635432E+03  0.47000000000E+01 0. -1.
         -5    1    1    2    0  502 -0.55215060650E+02  0.72711295838E+02 -0.12890686663E+03  0.15803387526E+03  0.47000000000E+01 0.  1.
        -11    1    3    3    0    0 -0.89779974424E+02  0.93339444811E+01  0.14609789478E+02  0.91438571050E+02  0.00000000000E+00 0.  1.
         11    1    3    3    0    0  0.14421503428E+02 -0.13357224317E+02 -0.19027775154E+02  0.27357840373E+02  0.00000000000E+00 0. -1.
<mgrwt>
<rscale>  0 0.20506156E+03</rscale>
<asrwt>0</asrwt>
<pdfrwt beam="2">  1        1 0.90124013E-01 0.24604322E+03</pdfrwt>
<pdfrwt beam="1">  1       -1 0.13240083E-01 0.24604322E+03</pdfrwt>
<totfact> 0.14249159E+03</totfact>
</mgrwt>
</event>
<event>
 7    1  0.1422977E-005  0.1869324E+03  0.7546771E-02  0.1166939E+00
          2   -1    0    0  501    0  0.00000000000E+00  0.00000000000E+00  0.11723889525E+03  0.11723889525E+03  0.00000000000E+00 0. -1.
         -2   -1    0    0    0  501 -0.00000000000E+00 -0.00000000000E+00 -0.26253374506E+03  0.26253374506E+03  0.00000000000E+00 0.  1.
         23    2    1    2    0    0  0.12683704581E+03 -0.56875109488E+02 -0.66028725655E+02  0.17672869496E+03  0.86895481709E+02 0.  0.
          5    1    1    2  502    0 -0.58395575247E+01 -0.33323731579E+01  0.28795171763E+02  0.29940892769E+02  0.47000000000E+01 0.  1.
         -5    1    1    2    0  502 -0.12099748829E+03  0.60207482646E+02 -0.10806129591E+03  0.17310305258E+03  0.47000000000E+01 0.  1.
        -11    1    3    3    0    0  0.38536086946E+02  0.17198427505E+02 -0.40894985381E+02  0.58764068401E+02  0.00000000000E+00 0.  1.
         11    1    3    3    0    0  0.88300958868E+02 -0.74073536993E+02 -0.25133740274E+02  0.11796462656E+03  0.00000000000E+00 0. -1.
<mgrwt>
<rscale>  0 0.18089579E+03</rscale>
<asrwt>0</asrwt>
<pdfrwt beam="1">  1        2 0.18036753E-01 0.18693241E+03</pdfrwt>
<pdfrwt beam="2">  1       -2 0.40389806E-01 0.18693241E+03</pdfrwt>
<totfact> 0.18039241E+03</totfact>
</mgrwt>
</event>
<event>
 7    1  0.1422977E-005  0.1504621E+03  0.7546771E-02  0.1208656E+00
         -2   -1    0    0    0  501 -0.00000000000E+00  0.00000000000E+00  0.24617399165E+02  0.24617399165E+02  0.00000000000E+00 0.  1.
          2   -1    0    0  501    0  0.00000000000E+00 -0.00000000000E+00 -0.80462438592E+03  0.80462438592E+03  0.00000000000E+00 0. -1.
         23    2    1    2    0    0 -0.24044290572E+01  0.83713614087E+02 -0.26727181093E+03  0.29488590265E+03  0.92248166379E+02 0.  0.
          5    1    1    2  502    0  0.25644693821E+01 -0.67054915658E+02 -0.95782614033E+02  0.11704416845E+03  0.47000000000E+01 0. -1.
         -5    1    1    2    0  502 -0.16004032487E+00 -0.16658698429E+02 -0.41695256179E+03  0.41731171399E+03  0.47000000000E+01 0. -1.
        -11    1    3    3    0    0 -0.27934467169E+02  0.64976240874E+02 -0.24783332814E+03  0.25772777279E+03  0.00000000000E+00 0. -1.
         11    1    3    3    0    0  0.25530038112E+02  0.18737373212E+02 -0.19438482792E+02  0.37158129853E+02  0.00000000000E+00 0.  1.
<mgrwt>
<rscale>  0 0.14353043E+03</rscale>
<asrwt>0</asrwt>
<pdfrwt beam="2">  1        2 0.12378835E+00 0.15046212E+03</pdfrwt>
<pdfrwt beam="1">  1       -2 0.37872926E-02 0.15046212E+03</pdfrwt>
<totfact> 0.10151681E+04</totfact>
</mgrwt>
</event>
<event>
 7    1  0.1422977E-005  0.1397760E+03  0.7546771E-02  0.1225141E+00
         -1   -1    0    0    0  501 -0.00000000000E+00  0.00000000000E+00  0.31493440352E+03  0.31493440352E+03  0.00000000000E+00 0.  1.
          1   -1    0    0  501    0  0.00000000000E+00 -0.00000000000E+00 -0.12910014934E+03  0.12910014934E+03  0.00000000000E+00 0. -1.
         23    2    1    2    0    0  0.48644897222E+02  0.39237108661E+02  0.26257035662E+03  0.28457995968E+03  0.90203572843E+02 0.  0.
          5    1    1    2  502    0 -0.32368586505E+02  0.21046647969E+02  0.20372665841E+02  0.43906973210E+02  0.47000000000E+01 0. -1.
         -5    1    1    2    0  502 -0.16276310717E+02 -0.60283756630E+02 -0.97108768279E+02  0.11554761997E+03  0.47000000000E+01 0. -1.
        -11    1    3    3    0    0  0.11800332519E+02  0.49862123890E+02  0.22548836749E+03  0.23123685502E+03  0.00000000000E+00 0.  1.
         11    1    3    3    0    0  0.36844564703E+02 -0.10625015229E+02  0.37081989128E+02  0.53343104657E+02  0.00000000000E+00 0. -1.
<mgrwt>
<rscale>  0 0.13157227E+03</rscale>
<asrwt>0</asrwt>
<pdfrwt beam="2">  1        1 0.19861562E-01 0.13977603E+03</pdfrwt>
<pdfrwt beam="1">  1       -1 0.48451446E-01 0.13977603E+03</pdfrwt>
<totfact> 0.11081059E+03</totfact>
</mgrwt>
</event>
<event>
 7    1  0.1422977E-005  0.1410212E+03  0.7546771E-02  0.1223309E+00
         -1   -1    0    0    0  501 -0.00000000000E+00  0.00000000000E+00  0.72588915901E+02  0.72588915901E+02  0.00000000000E+00 0. -1.
          1   -1    0    0  501    0  0.00000000000E+00 -0.00000000000E+00 -0.22324661559E+03  0.22324661559E+03  0.00000000000E+00 0.  1.
         23    2    1    2    0    0  0.40624741046E+01  0.65154136159E+02 -0.45767708385E+02  0.12008316532E+03  0.89798208829E+02 0.  0.
          5    1    1    2  502    0  0.16249311905E+02  0.11627611040E+02  0.19357409724E+02  0.28214194781E+02  0.47000000000E+01 0. -1.
         -5    1    1    2    0  502 -0.20311786010E+02 -0.76781747198E+02 -0.12424740103E+03  0.14753817139E+03  0.47000000000E+01 0. -1.
        -11    1    3    3    0    0 -0.15933843378E+02  0.21765422288E+02  0.23609698141E+02  0.35847438102E+02  0.00000000000E+00 0. -1.
         11    1    3    3    0    0  0.19996317483E+02  0.43388713871E+02 -0.69377406526E+02  0.84235727221E+02  0.00000000000E+00 0.  1.
<mgrwt>
<rscale>  0 0.13283513E+03</rscale>
<asrwt>0</asrwt>
<pdfrwt beam="2">  1        1 0.34345632E-01 0.14102122E+03</pdfrwt>
<pdfrwt beam="1">  1       -1 0.11167526E-01 0.14102122E+03</pdfrwt>
<totfact> 0.62449449E+03</totfact>
</mgrwt>
</event>
<event>
 7    1  0.1422977E-005  0.1525894E+03  0.7546771E-02  0.1206132E+00
         -2   -1    0    0    0  501 -0.00000000000E+00  0.00000000000E+00  0.28354138379E+03  0.28354138379E+03  0.00000000000E+00 0.  1.
          2   -1    0    0  501    0  0.00000000000E+00 -0.00000000000E+00 -0.72996468257E+02  0.72996468257E+02  0.00000000000E+00 0. -1.
         23    2    1    2    0    0  0.44360445691E+02  0.75424526885E+02  0.14004106929E+03  0.18844766398E+03  0.90798196974E+02 0.  0.
          5    1    1    2  502    0 -0.85833276194E+02 -0.43316783734E+02  0.27521248576E+02  0.10011595367E+03  0.47000000000E+01 0. -1.
         -5    1    1    2    0  502  0.41472830503E+02 -0.32107743151E+02  0.42982597661E+02  0.67974234397E+02  0.47000000000E+01 0. -1.
        -11    1    3    3    0    0  0.19038623802E+02 -0.97651035044E+01  0.75867064058E+02  0.78826631613E+02  0.00000000000E+00 0.  1.
         11    1    3    3    0    0  0.25321821889E+02  0.85189630389E+02  0.64174005236E+02  0.10962103237E+03  0.00000000000E+00 0. -1.
<mgrwt>
<rscale>  0 0.14548605E+03</rscale>
<asrwt>0</asrwt>
<pdfrwt beam="2">  1        2 0.11230226E-01 0.15258938E+03</pdfrwt>
<pdfrwt beam="1">  1       -2 0.43621751E-01 0.15258938E+03</pdfrwt>
<totfact> 0.27040024E+03</totfact>
</mgrwt>
</event>
<event>
 7    1  0.1422977E-005  0.2248465E+03  0.7546771E-02  0.1130320E+00
         -2   -1    0    0    0  501 -0.00000000000E+00  0.00000000000E+00  0.13035551054E+03  0.13035551054E+03  0.00000000000E+00 0. -1.
          2   -1    0    0  501    0  0.00000000000E+00 -0.00000000000E+00 -0.96957867239E+02  0.96957867239E+02  0.00000000000E+00 0.  1.
         23    2    1    2    0    0  0.18844621405E+02 -0.10753784835E+02  0.23668323615E+02  0.10007095119E+03  0.94779966686E+02 0.  0.
          5    1    1    2  502    0 -0.68838656610E+02  0.25836909644E+02  0.12535925459E+02  0.74736510294E+02  0.47000000000E+01 0.  1.
         -5    1    1    2    0  502  0.49994035205E+02 -0.15083124808E+02 -0.28066057726E+01  0.52505916296E+02  0.47000000000E+01 0.  1.
        -11    1    3    3    0    0  0.38577925755E+02 -0.38326560006E+02 -0.63963805417E+01  0.54754865003E+02  0.00000000000E+00 0.  1.
         11    1    3    3    0    0 -0.19733304350E+02  0.27572775171E+02  0.30064704157E+02  0.45316086186E+02  0.00000000000E+00 0. -1.
<mgrwt>
<rscale>  0 0.22484655E+03</rscale>
<asrwt>0</asrwt>
<pdfrwt beam="2">  1        2 0.14916595E-01 0.22484655E+03</pdfrwt>
<pdfrwt beam="1">  1       -2 0.20054694E-01 0.22484655E+03</pdfrwt>
<totfact> 0.80313545E+03</totfact>
</mgrwt>
</event>
<event>
 7    1  0.1422977E-005  0.1515757E+03  0.7546771E-02  0.1207243E+00
          4   -1    0    0  501    0  0.00000000000E+00  0.00000000000E+00  0.51331685738E+02  0.51331685738E+02  0.00000000000E+00 0. -1.
         -4   -1    0    0    0  501 -0.00000000000E+00 -0.00000000000E+00 -0.53619353247E+03  0.53619353247E+03  0.00000000000E+00 0.  1.
         23    2    1    2    0    0 -0.37711097511E+02 -0.76959004994E+02 -0.38755483377E+03  0.40740348148E+03  0.91836987227E+02 0.  0.
          5    1    1    2  502    0 -0.43680874899E+02  0.20036472890E+02 -0.51655766565E+02  0.70709881186E+02  0.47000000000E+01 0.  1.
         -5    1    1    2    0  502  0.81391972410E+02  0.56922532104E+02 -0.45651246393E+02  0.10941185553E+03  0.47000000000E+01 0.  1.
        -11    1    3    3    0    0  0.12882868188E+02 -0.73331153638E+02 -0.21360917660E+03  0.22621296760E+03  0.00000000000E+00 0. -1.
         11    1    3    3    0    0 -0.50593965699E+02 -0.36278513562E+01 -0.17394565717E+03  0.18119051388E+03  0.00000000000E+00 0.  1.
<mgrwt>
<rscale>  0 0.14462106E+03</rscale>
<asrwt>0</asrwt>
<pdfrwt beam="1">  1        4 0.78971827E-02 0.15157568E+03</pdfrwt>
<pdfrwt beam="2">  1       -4 0.82491310E-01 0.15157568E+03</pdfrwt>
<totfact> 0.25469351E+02</totfact>
</mgrwt>
</event>
<event>
 7    1  0.1422977E-005  0.1972576E+03  0.7546771E-02  0.1156755E+00
         -3   -1    0    0    0  501 -0.00000000000E+00  0.00000000000E+00  0.58683533168E+02  0.58683533168E+02  0.00000000000E+00 0.  1.
          3   -1    0    0  501    0  0.00000000000E+00 -0.00000000000E+00 -0.59596512679E+03  0.59596512679E+03  0.00000000000E+00 0. -1.
         23    2    1    2    0    0 -0.18344528879E+02 -0.15147492725E+03 -0.24769651208E+03  0.30426303825E+03  0.89113742046E+02 0.  0.
          5    1    1    2  502    0  0.43428105034E+02  0.11638998709E+03 -0.27941833405E+03  0.30582564445E+03  0.47000000000E+01 0.  1.
         -5    1    1    2    0  502 -0.25083576154E+02  0.35084940165E+02 -0.10166747499E+02  0.44559977264E+02  0.47000000000E+01 0.  1.
        -11    1    3    3    0    0 -0.53822148728E+02 -0.96367747142E+02 -0.16894641638E+03  0.20180797306E+03  0.00000000000E+00 0. -1.
         11    1    3    3    0    0  0.35477619849E+02 -0.55107180112E+02 -0.78750095697E+02  0.10245506519E+03  0.00000000000E+00 0.  1.
<mgrwt>
<rscale>  0 0.19190384E+03</rscale>
<asrwt>0</asrwt>
<pdfrwt beam="2">  1        3 0.91686943E-01 0.19725761E+03</pdfrwt>
<pdfrwt beam="1">  1       -3 0.90282358E-02 0.19725761E+03</pdfrwt>
<totfact> 0.23534160E+02</totfact>
</mgrwt>
</event>
<event>
 7    1  0.1422977E-005  0.1382044E+03  0.7546771E-02  0.1217394E+00
         -1   -1    0    0    0  501 -0.00000000000E+00  0.00000000000E+00  0.23445424797E+03  0.23445424797E+03  0.00000000000E+00 0.  1.
          1   -1    0    0  501    0  0.00000000000E+00 -0.00000000000E+00 -0.79105156713E+02  0.79105156713E+02  0.00000000000E+00 0. -1.
         23    2    1    2    0    0 -0.58351389104E+02 -0.84075853388E+01  0.65658096255E+02  0.14880217728E+03  0.11981456614E+03 0.  0.
          5    1    1    2  502    0 -0.29389601398E+02 -0.28993994454E+02  0.37283563608E+02  0.55826109484E+02  0.47000000000E+01 0. -1.
         -5    1    1    2    0  502  0.87740990502E+02  0.37401579793E+02  0.52407431393E+02  0.10893111792E+03  0.47000000000E+01 0. -1.
        -11    1    3    3    0    0 -0.49044461407E+02  0.45880780038E+02  0.65369974222E+02  0.93721068610E+02  0.00000000000E+00 0.  1.
         11    1    3    3    0    0 -0.93069276970E+01 -0.54288365377E+02  0.28812203314E+00  0.55081108674E+02  0.00000000000E+00 0. -1.
<mgrwt>
<rscale>  0 0.13702152E+03</rscale>
<asrwt>0</asrwt>
<pdfrwt beam="2">  1        1 0.12170024E-01 0.13820445E+03</pdfrwt>
<pdfrwt beam="1">  1       -1 0.36069884E-01 0.13820445E+03</pdfrwt>
<totfact> 0.35146854E+03</totfact>
</mgrwt>
</event>
<event>
 7    1  0.1422977E-005  0.1348154E+03  0.7546771E-02  0.1235505E+00
         -2   -1    0    0    0  501 -0.00000000000E+00  0.00000000000E+00  0.87202418250E+02  0.87202418250E+02  0.00000000000E+00 0.  1.
          2   -1    0    0  501    0  0.00000000000E+00 -0.00000000000E+00 -0.20246790772E+03  0.20246790772E+03  0.00000000000E+00 0. -1.
         23    2    1    2    0    0  0.18019538958E+02  0.47087048281E+02  0.17687789328E+02  0.10032466945E+03  0.84913411837E+02 0.  0.
          5    1    1    2  502    0 -0.54476685403E+02  0.11715110287E+02 -0.25502695117E+02  0.61460804744E+02  0.47000000000E+01 0.  1.
         -5    1    1    2    0  502  0.36457146445E+02 -0.58802158568E+02 -0.10745058368E+03  0.12788485177E+03  0.47000000000E+01 0.  1.
        -11    1    3    3    0    0 -0.18177740354E+02  0.39862719481E+00  0.34417414960E+02  0.38924896924E+02  0.00000000000E+00 0.  1.
         11    1    3    3    0    0  0.36197279312E+02  0.46688421086E+02 -0.16729625632E+02  0.61399772531E+02  0.00000000000E+00 0. -1.
<mgrwt>
<rscale>  0 0.12472182E+03</rscale>
<asrwt>0</asrwt>
<pdfrwt beam="2">  1        2 0.31148909E-01 0.13481544E+03</pdfrwt>
<pdfrwt beam="1">  1       -2 0.13415757E-01 0.13481544E+03</pdfrwt>
<totfact> 0.65849118E+03</totfact>
</mgrwt>
</event>
<event>
 7    1  0.1422977E-005  0.1320990E+03  0.7546771E-02  0.1237064E+00
          2   -1    0    0  501    0  0.00000000000E+00  0.00000000000E+00  0.16083531494E+03  0.16083531494E+03  0.00000000000E+00 0. -1.
         -2   -1    0    0    0  501 -0.00000000000E+00 -0.00000000000E+00 -0.97862956000E+02  0.97862956000E+02  0.00000000000E+00 0.  1.
         23    2    1    2    0    0 -0.11909640966E+02  0.41026305451E+02 -0.18708158536E+02  0.10338618195E+03  0.92269768267E+02 0.  0.
          5    1    1    2  502    0  0.60790048076E+02  0.50405041134E+00  0.64469376143E+02  0.88735981834E+02  0.47000000000E+01 0.  1.
         -5    1    1    2    0  502 -0.48880407110E+02 -0.41530355862E+02  0.17211141330E+02  0.66576107149E+02  0.47000000000E+01 0.  1.
        -11    1    3    3    0    0 -0.28993760505E+02  0.31371074995E+02 -0.50426631705E+02  0.66088029776E+02  0.00000000000E+00 0.  1.
         11    1    3    3    0    0  0.17084119539E+02  0.96552304556E+01  0.31718473169E+02  0.37298152176E+02  0.00000000000E+00 0. -1.
<mgrwt>
<rscale>  0 0.12373223E+03</rscale>
<asrwt>0</asrwt>
<pdfrwt beam="1">  1        2 0.24743895E-01 0.13209897E+03</pdfrwt>
<pdfrwt beam="2">  1       -2 0.15055839E-01 0.13209897E+03</pdfrwt>
<totfact> 0.70089987E+03</totfact>
</mgrwt>
</event>
<event>
 7    1  0.1422977E-005  0.1533143E+03  0.7546771E-02  0.1204899E+00
          2   -1    0    0  501    0  0.00000000000E+00  0.00000000000E+00  0.34467040663E+03  0.34467040663E+03  0.00000000000E+00 0. -1.
         -2   -1    0    0    0  501 -0.00000000000E+00 -0.00000000000E+00 -0.59381798699E+02  0.59381798699E+02  0.00000000000E+00 0.  1.
         23    2    1    2    0    0 -0.49590600838E+02 -0.73625914648E+02  0.92079902964E+02  0.15740492553E+03  0.91747474364E+02 0.  0.
          5    1    1    2  502    0  0.67198424934E+02  0.96268923327E+02  0.12030389893E+03  0.16816198147E+03  0.47000000000E+01 0. -1.
         -5    1    1    2    0  502 -0.17607824096E+02 -0.22643008679E+02  0.72904806038E+02  0.78485298335E+02  0.47000000000E+01 0. -1.
        -11    1    3    3    0    0 -0.29897413635E+02 -0.75345652659E+02  0.10584301128E+03  0.13331753731E+03  0.00000000000E+00 0. -1.
         11    1    3    3    0    0 -0.19693187202E+02  0.17197380106E+01 -0.13763108315E+02  0.24087388225E+02  0.00000000000E+00 0.  1.
<mgrwt>
<rscale>  0 0.14645442E+03</rscale>
<asrwt>0</asrwt>
<pdfrwt beam="1">  1        2 0.53026215E-01 0.15331431E+03</pdfrwt>
<pdfrwt beam="2">  1       -2 0.91356616E-02 0.15331431E+03</pdfrwt>
<totfact> 0.69267934E+03</totfact>
</mgrwt>
</event>
<event>
 7    1  0.1422977E-005  0.1904655E+03  0.7546771E-02  0.1162805E+00
         -1   -1    0    0    0  501 -0.00000000000E+00  0.00000000000E+00  0.66168277518E+02  0.66168277518E+02  0.00000000000E+00 0.  1.
          1   -1    0    0  501    0  0.00000000000E+00 -0.00000000000E+00 -0.51970546417E+03  0.51970546417E+03  0.00000000000E+00 0. -1.
         23    2    1    2    0    0  0.13772619789E+03  0.41008615799E+02 -0.14767410252E+03  0.22555535516E+03  0.91746201735E+02 0.  0.
          5    1    1    2  502    0  0.11475226836E+02  0.18380528036E+02 -0.11522149624E+02  0.24987488345E+02  0.47000000000E+01 0. -1.
         -5    1    1    2    0  502 -0.14920142473E+03 -0.59389143835E+02 -0.29434093452E+03  0.33533089818E+03  0.47000000000E+01 0. -1.
        -11    1    3    3    0    0  0.10490818349E+03  0.56194271994E+02 -0.65657161756E+02  0.13592051375E+03  0.00000000000E+00 0.  1.
         11    1    3    3    0    0  0.32818014401E+02 -0.15185656195E+02 -0.82016940759E+02  0.89634841411E+02  0.00000000000E+00 0. -1.
<mgrwt>
<rscale>  0 0.18526287E+03</rscale>
<asrwt>0</asrwt>
<pdfrwt beam="2">  1        1 0.79954688E-01 0.19046552E+03</pdfrwt>
<pdfrwt beam="1">  1       -1 0.10179735E-01 0.19046552E+03</pdfrwt>
<totfact> 0.25118870E+03</totfact>
</mgrwt>
</event>
<event>
 7    1  0.1422977E-005  0.1240461E+03  0.7546771E-02  0.1244172E+00
          1   -1    0    0  501    0  0.00000000000E+00  0.00000000000E+00  0.52876045777E+03  0.52876045777E+03  0.00000000000E+00 0. -1.
         -1   -1    0    0    0  501 -0.00000000000E+00 -0.00000000000E+00 -0.25087616652E+02  0.25087616652E+02  0.00000000000E+00 0.  1.
         23    2    1    2    0    0  0.10251514249E+02 -0.49405596158E+02  0.23270370979E+03  0.25583514872E+03  0.93566021052E+02 0.  0.
          5    1    1    2  502    0  0.29459964194E+02  0.72122035294E+02  0.16895887889E+03  0.18611466955E+03  0.47000000000E+01 0. -1.
         -5    1    1    2    0  502 -0.39711478443E+02 -0.22716439136E+02  0.10201025244E+03  0.11189825615E+03  0.47000000000E+01 0.  1.
        -11    1    3    3    0    0 -0.27113479135E+02 -0.39261737128E+02  0.50153460891E+02  0.69224232697E+02  0.00000000000E+00 0.  1.
         11    1    3    3    0    0  0.37364993384E+02 -0.10143859029E+02  0.18255024890E+03  0.18661091602E+03  0.00000000000E+00 0. -1.
<mgrwt>
<rscale>  0 0.11935072E+03</rscale>
<asrwt>0</asrwt>
<pdfrwt beam="1">  1        1 0.81347755E-01 0.12404610E+03</pdfrwt>
<pdfrwt beam="2">  1       -1 0.38596337E-02 0.12404610E+03</pdfrwt>
<totfact> 0.10280381E+04</totfact>
</mgrwt>
</event>
<event>
 7    1  0.1422977E-005  0.1482709E+03  0.7546771E-02  0.1214342E+00
          2   -1    0    0  501    0  0.00000000000E+00  0.00000000000E+00  0.10521953497E+04  0.10521953497E+04  0.00000000000E+00 0. -1.
         -2   -1    0    0    0  501 -0.00000000000E+00 -0.00000000000E+00 -0.22605157400E+02  0.22605157400E+02  0.00000000000E+00 0.  1.
         23    2    1    2    0    0 -0.31157293197E+02 -0.73403612165E+02  0.19041622711E+03  0.22262846494E+03  0.83344025915E+02 0.  0.
          5    1    1    2  502    0  0.24759269584E+02  0.96389296260E+02  0.79917266254E+03  0.80535889665E+03  0.47000000000E+01 0. -1.
         -5    1    1    2    0  502  0.63980236128E+01 -0.22985684095E+02  0.40001302693E+02  0.46813145553E+02  0.47000000000E+01 0. -1.
        -11    1    3    3    0    0 -0.27048237164E+02 -0.83340909100E+02  0.19265532578E+03  0.21164448685E+03  0.00000000000E+00 0. -1.
         11    1    3    3    0    0 -0.41090560328E+01  0.99372969351E+01 -0.22390986656E+01  0.10983978090E+02  0.00000000000E+00 0.  1.
<mgrwt>
<rscale>  0 0.13924964E+03</rscale>
<asrwt>0</asrwt>
<pdfrwt beam="1">  1        2 0.16187617E+00 0.14827085E+03</pdfrwt>
<pdfrwt beam="2">  1       -2 0.34777173E-02 0.14827085E+03</pdfrwt>
<totfact> 0.80600036E+03</totfact>
</mgrwt>
</event>
<event>
 7    1  0.1422977E-005  0.1849843E+03  0.7546771E-02  0.1173708E+00
          2   -1    0    0  501    0  0.00000000000E+00  0.00000000000E+00  0.30095394304E+03  0.30095394304E+03  0.00000000000E+00 0. -1.
         -2   -1    0    0    0  501 -0.00000000000E+00 -0.00000000000E+00 -0.25070955454E+03  0.25070955454E+03  0.00000000000E+00 0.  1.
         23    2    1    2    0    0  0.10422645996E+03  0.42356144477E+02 -0.19595244071E+03  0.24371535478E+03  0.91337928623E+02 0.  0.
          5    1    1    2  502    0 -0.72705611900E+02 -0.73617825699E+02  0.24184898026E+03  0.26309448781E+03  0.47000000000E+01 0. -1.
         -5    1    1    2    0  502 -0.31520848060E+02  0.31261681222E+02  0.43478489483E+01  0.44853654987E+02  0.47000000000E+01 0.  1.
        -11    1    3    3    0    0  0.43422386922E+02 -0.26354124548E+02 -0.91782767674E+02  0.10490052435E+03  0.00000000000E+00 0.  1.
         11    1    3    3    0    0  0.60804073038E+02  0.68710269026E+02 -0.10416967304E+03  0.13881483043E+03  0.00000000000E+00 0. -1.
<mgrwt>
<rscale>  0 0.17403157E+03</rscale>
<asrwt>0</asrwt>
<pdfrwt beam="1">  1        2 0.46300607E-01 0.18498427E+03</pdfrwt>
<pdfrwt beam="2">  1       -2 0.38570701E-01 0.18498427E+03</pdfrwt>
<totfact> 0.69633616E+02</totfact>
</mgrwt>
</event>
<event>
 7    1  0.1422977E-005  0.1313079E+03  0.7546771E-02  0.1237501E+00
          1   -1    0    0  501    0  0.00000000000E+00  0.00000000000E+00  0.48808061486E+03  0.48808061486E+03  0.00000000000E+00 0. -1.
         -1   -1    0    0    0  501 -0.00000000000E+00 -0.00000000000E+00 -0.33624557770E+02  0.33624557770E+02  0.00000000000E+00 0.  1.
         23    2    1    2    0    0 -0.39284131791E+02  0.85592552076E+01  0.98228715169E+02  0.14204785168E+03  0.94404490484E+02 0.  0.
          5    1    1    2  502    0 -0.35677933255E+02 -0.36415926977E+02  0.13999833214E+03  0.14906595071E+03  0.47000000000E+01 0. -1.
         -5    1    1    2    0  502  0.74962065046E+02  0.27856671769E+02  0.21622900979E+03  0.23059137024E+03  0.47000000000E+01 0. -1.
        -11    1    3    3    0    0  0.21667630616E+02 -0.16786335629E+02  0.50730705463E+01  0.27874779373E+02  0.00000000000E+00 0.  1.
         11    1    3    3    0    0 -0.60951762407E+02  0.25345590836E+02  0.93155644623E+02  0.11417307231E+03  0.00000000000E+00 0. -1.
<mgrwt>
<rscale>  0 0.12345680E+03</rscale>
<asrwt>0</asrwt>
<pdfrwt beam="1">  1        1 0.75089320E-01 0.13130789E+03</pdfrwt>
<pdfrwt beam="2">  1       -1 0.51730092E-02 0.13130789E+03</pdfrwt>
<totfact> 0.74464649E+03</totfact>
</mgrwt>
</event>
<event>
 7    1  0.1422977E-005  0.1583085E+03  0.7546771E-02  0.1198801E+00
         -2   -1    0    0    0  501 -0.00000000000E+00  0.00000000000E+00  0.44848942024E+02  0.44848942024E+02  0.00000000000E+00 0.  1.
          2   -1    0    0  501    0  0.00000000000E+00 -0.00000000000E+00 -0.53833197772E+03  0.53833197772E+03  0.00000000000E+00 0. -1.
         23    2    1    2    0    0  0.25281265094E+02 -0.93798302529E+02 -0.12456303014E+03  0.18172910515E+03  0.89845730339E+02 0.  0.
          5    1    1    2  502    0 -0.18592357242E+02  0.11929785454E+03 -0.34499584493E+03  0.36554326265E+03  0.47000000000E+01 0. -1.
         -5    1    1    2    0  502 -0.66889078520E+01 -0.25499552015E+02 -0.23924160632E+02  0.35908551950E+02  0.47000000000E+01 0. -1.
        -11    1    3    3    0    0 -0.11683941851E+01 -0.79432485188E+02 -0.34209075528E+02  0.86493616508E+02  0.00000000000E+00 0.  1.
         11    1    3    3    0    0  0.26449659279E+02 -0.14365817341E+02 -0.90353954608E+02  0.95235488643E+02  0.00000000000E+00 0. -1.
<mgrwt>
<rscale>  0 0.15136920E+03</rscale>
<asrwt>0</asrwt>
<pdfrwt beam="2">  1        2 0.82820300E-01 0.15830852E+03</pdfrwt>
<pdfrwt beam="1">  1       -2 0.68998376E-02 0.15830852E+03</pdfrwt>
<totfact> 0.66070382E+03</totfact>
</mgrwt>
</event>
<event>
 7    1  0.1422977E-005  0.1926032E+03  0.7546771E-02  0.1160636E+00
         -2   -1    0    0    0  501 -0.00000000000E+00  0.00000000000E+00  0.84054975775E+02  0.84054975775E+02  0.00000000000E+00 0.  1.
          2   -1    0    0  501    0  0.00000000000E+00 -0.00000000000E+00 -0.39987584091E+03  0.39987584091E+03  0.00000000000E+00 0. -1.
         23    2    1    2    0    0 -0.38742159050E+02 -0.14455495448E+03 -0.13496526762E+03  0.21972497459E+03  0.87557702352E+02 0.  0.
          5    1    1    2  502    0  0.68155797830E+02  0.14649538839E+03 -0.16228011887E+03  0.22904811411E+03  0.47000000000E+01 0. -1.
         -5    1    1    2    0  502 -0.29413638780E+02 -0.19404339176E+01 -0.18575478639E+02  0.35157727980E+02  0.47000000000E+01 0.  1.
        -11    1    3    3    0    0 -0.94108370699E+01  0.93716199641E+01 -0.57730583340E+00  0.13293772870E+02  0.00000000000E+00 0. -1.
         11    1    3    3    0    0 -0.29331321980E+02 -0.15392657444E+03 -0.13438796179E+03  0.20643120172E+03  0.00000000000E+00 0.  1.
<mgrwt>
<rscale>  0 0.18760845E+03</rscale>
<asrwt>0</asrwt>
<pdfrwt beam="2">  1        2 0.61519360E-01 0.19260317E+03</pdfrwt>
<pdfrwt beam="1">  1       -2 0.12931535E-01 0.19260317E+03</pdfrwt>
<totfact> 0.34356482E+03</totfact>
</mgrwt>
</event>
<event>
 7    1  0.1422977E-005  0.1315275E+03  0.7546771E-02  0.1237978E+00
         -2   -1    0    0    0  501 -0.00000000000E+00  0.00000000000E+00  0.21007605356E+02  0.21007605356E+02  0.00000000000E+00 0.  1.
          2   -1    0    0  501    0  0.00000000000E+00 -0.00000000000E+00 -0.70885070077E+03  0.70885070077E+03  0.00000000000E+00 0. -1.
         23    2    1    2    0    0 -0.40228799062E+02 -0.75041077365E+01 -0.19357800205E+03  0.21839229904E+03  0.92455857001E+02 0.  0.
          5    1    1    2  502    0 -0.31406578491E+02 -0.30482986299E+02 -0.25551252335E+03  0.25927654197E+03  0.47000000000E+01 0. -1.
         -5    1    1    2    0  502  0.71635377554E+02  0.37987094035E+02 -0.23875257002E+03  0.25218946513E+03  0.47000000000E+01 0. -1.
        -11    1    3    3    0    0 -0.15882436302E+02  0.22467547373E+02 -0.77362340867E+01  0.28581318824E+02  0.00000000000E+00 0.  1.
         11    1    3    3    0    0 -0.24346362761E+02 -0.29971655110E+02 -0.18584176796E+03  0.18981098021E+03  0.00000000000E+00 0. -1.
<mgrwt>
<rscale>  0 0.12315683E+03</rscale>
<asrwt>0</asrwt>
<pdfrwt beam="2">  1        2 0.10905393E+00 0.13152754E+03</pdfrwt>
<pdfrwt beam="1">  1       -2 0.32319400E-02 0.13152754E+03</pdfrwt>
<totfact> 0.14849685E+04</totfact>
</mgrwt>
</event>
<event>
 7    1  0.1422977E-005  0.1416003E+03  0.7546771E-02  0.1221873E+00
         -2   -1    0    0    0  501 -0.00000000000E+00  0.00000000000E+00  0.47040028184E+02  0.47040028184E+02  0.00000000000E+00 0.  1.
          2   -1    0    0  501    0  0.00000000000E+00 -0.00000000000E+00 -0.41146750244E+03  0.41146750244E+03  0.00000000000E+00 0. -1.
         23    2    1    2    0    0 -0.65826622281E+02 -0.96807845598E+01 -0.73089894071E+02  0.13458126574E+03  0.91340695655E+02 0.  0.
          5    1    1    2  502    0  0.89786591516E+01  0.59117622795E+02 -0.17729094741E+03  0.18716217481E+03  0.47000000000E+01 0.  1.
         -5    1    1    2    0  502  0.56847963130E+02 -0.49436838235E+02 -0.11404663277E+03  0.13676409007E+03  0.47000000000E+01 0.  1.
        -11    1    3    3    0    0 -0.65962459996E+02 -0.20191346392E+02 -0.90772403548E+02  0.11401037604E+03  0.00000000000E+00 0. -1.
         11    1    3    3    0    0  0.13583771464E+00  0.10510561832E+02  0.17682509477E+02  0.20570889707E+02  0.00000000000E+00 0.  1.
<mgrwt>
<rscale>  0 0.13383567E+03</rscale>
<asrwt>0</asrwt>
<pdfrwt beam="2">  1        2 0.63302693E-01 0.14160028E+03</pdfrwt>
<pdfrwt beam="1">  1       -2 0.72369274E-02 0.14160028E+03</pdfrwt>
<totfact> 0.81829319E+03</totfact>
</mgrwt>
</event>
<event>
 7    1  0.1422977E-005  0.1615065E+03  0.7546771E-02  0.1194069E+00
          1   -1    0    0  501    0  0.00000000000E+00  0.00000000000E+00  0.30461367096E+03  0.30461367096E+03  0.00000000000E+00 0. -1.
         -1   -1    0    0    0  501 -0.00000000000E+00 -0.00000000000E+00 -0.74615366855E+02  0.74615366855E+02  0.00000000000E+00 0.  1.
         23    2    1    2    0    0  0.12187130478E+02 -0.10154402220E+03  0.85399192378E+02  0.16244975414E+03  0.92936461985E+02 0.  0.
          5    1    1    2  502    0  0.16201559464E+02  0.20397071550E+02 -0.18538761048E+02  0.32315734838E+02  0.47000000000E+01 0. -1.
         -5    1    1    2    0  502 -0.28388689943E+02  0.81146950653E+02  0.16313787277E+03  0.18446354884E+03  0.47000000000E+01 0. -1.
        -11    1    3    3    0    0  0.48947116301E+02 -0.82381540972E+02  0.67949995841E+02  0.11747229640E+03  0.00000000000E+00 0.  1.
         11    1    3    3    0    0 -0.36759985823E+02 -0.19162481231E+02  0.17449196537E+02  0.44977457736E+02  0.00000000000E+00 0. -1.
<mgrwt>
<rscale>  0 0.15533270E+03</rscale>
<asrwt>0</asrwt>
<pdfrwt beam="1">  1        1 0.46863641E-01 0.16150652E+03</pdfrwt>
<pdfrwt beam="2">  1       -1 0.11479287E-01 0.16150652E+03</pdfrwt>
<totfact> 0.41017425E+03</totfact>
</mgrwt>
</event>
<event>
 7    1  0.1422977E-005  0.1285551E+03  0.7546771E-02  0.1239112E+00
          2   -1    0    0  501    0  0.00000000000E+00  0.00000000000E+00  0.96442168040E+03  0.96442168040E+03  0.00000000000E+00 0. -1.
         -2   -1    0    0    0  501 -0.00000000000E+00 -0.00000000000E+00 -0.38831342970E+02  0.38831342970E+02  0.00000000000E+00 0.  1.
         23    2    1    2    0    0  0.23648067028E+01 -0.29931756286E+02  0.47819017788E+02  0.11611779732E+03  0.10146517652E+03 0.  0.
          5    1    1    2  502    0  0.54311003718E+02  0.28546385346E+02  0.28101604876E+03  0.28767462680E+03  0.47000000000E+01 0.  1.
         -5    1    1    2    0  502 -0.56675810421E+02  0.13853709404E+01  0.59675527088E+03  0.59946059926E+03  0.47000000000E+01 0.  1.
        -11    1    3    3    0    0 -0.25386275758E+02  0.30910263087E+01 -0.22208819855E+02  0.33871066116E+02  0.00000000000E+00 0.  1.
         11    1    3    3    0    0  0.27751082461E+02 -0.33022782595E+02  0.70027837643E+02  0.82246731199E+02  0.00000000000E+00 0. -1.
<mgrwt>
<rscale>  0 0.12244843E+03</rscale>
<asrwt>0</asrwt>
<pdfrwt beam="1">  1        2 0.14837255E+00 0.12855512E+03</pdfrwt>
<pdfrwt beam="2">  1       -2 0.59740535E-02 0.12855512E+03</pdfrwt>
<totfact> 0.40235289E+03</totfact>
</mgrwt>
</event>
<event>
 7    1  0.1422977E-005  0.1777053E+03  0.7546771E-02  0.1175741E+00
         -1   -1    0    0    0  501 -0.00000000000E+00  0.00000000000E+00  0.19154403864E+02  0.19154403864E+02  0.00000000000E+00 0.  1.
          1   -1    0    0  501    0  0.00000000000E+00 -0.00000000000E+00 -0.14550621533E+04  0.14550621533E+04  0.00000000000E+00 0. -1.
         23    2    1    2    0    0 -0.40072007254E+02 -0.11978360225E+03 -0.65387457802E+03  0.67224707174E+03  0.91707603605E+02 0.  0.
          5    1    1    2  502    0 -0.17389020086E+02  0.10489100056E+02 -0.16656297529E+02  0.26681856887E+02  0.47000000000E+01 0.  1.
         -5    1    1    2    0  502  0.57461027340E+02  0.10929450219E+03 -0.76537687393E+03  0.77528762858E+03  0.47000000000E+01 0.  1.
        -11    1    3    3    0    0 -0.59936223644E+02 -0.96008831655E+02 -0.59550340525E+03  0.60616363494E+03  0.00000000000E+00 0.  1.
         11    1    3    3    0    0  0.19864216391E+02 -0.23774770592E+02 -0.58371172766E+02  0.66083436802E+02  0.00000000000E+00 0. -1.
<mgrwt>
<rscale>  0 0.17203596E+03</rscale>
<asrwt>0</asrwt>
<pdfrwt beam="2">  1        1 0.22385568E+00 0.17770530E+03</pdfrwt>
<pdfrwt beam="1">  1       -1 0.29468318E-02 0.17770530E+03</pdfrwt>
<totfact> 0.29569942E+03</totfact>
</mgrwt>
</event>
<event>
 7    1  0.1422977E-005  0.1262580E+03  0.7546771E-02  0.1248069E+00
         -1   -1    0    0    0  501 -0.00000000000E+00  0.00000000000E+00  0.45814595443E+02  0.45814595443E+02  0.00000000000E+00 0.  1.
          1   -1    0    0  501    0  0.00000000000E+00 -0.00000000000E+00 -0.36063561408E+03  0.36063561408E+03  0.00000000000E+00 0. -1.
         23    2    1    2    0    0  0.17448658574E+02 -0.35553827412E+01 -0.35191520265E+02  0.99637988864E+02  0.91499668272E+02 0.  0.
          5    1    1    2  502    0 -0.36225048006E+02  0.57947740511E+02 -0.14874754084E+03  0.16376237553E+03  0.47000000000E+01 0. -1.
         -5    1    1    2    0  502  0.18776389431E+02 -0.54392357770E+02 -0.13088195753E+03  0.14304984512E+03  0.47000000000E+01 0. -1.
        -11    1    3    3    0    0  0.38019473352E+02 -0.13269407676E+02  0.16224414845E+02  0.43414158648E+02  0.00000000000E+00 0.  1.
         11    1    3    3    0    0 -0.20570814777E+02  0.97140249347E+01 -0.51415935109E+02  0.56223830217E+02  0.00000000000E+00 0. -1.
<mgrwt>
<rscale>  0 0.11703538E+03</rscale>
<asrwt>0</asrwt>
<pdfrwt beam="2">  1        1 0.55482404E-01 0.12625800E+03</pdfrwt>
<pdfrwt beam="1">  1       -1 0.70483991E-02 0.12625800E+03</pdfrwt>
<totfact> 0.68785017E+03</totfact>
</mgrwt>
</event>
<event>
 7    1  0.1422977E-005  0.1944230E+03  0.7546771E-02  0.1159251E+00
         -1   -1    0    0    0  501 -0.00000000000E+00  0.00000000000E+00  0.35359277788E+02  0.35359277788E+02  0.00000000000E+00 0.  1.
          1   -1    0    0  501    0  0.00000000000E+00 -0.00000000000E+00 -0.96745151492E+03  0.96745151492E+03  0.00000000000E+00 0. -1.
         23    2    1    2    0    0 -0.14846517027E+03 -0.11518484689E+02 -0.39704557000E+03  0.43353474308E+03  0.90180965454E+02 0.  0.
          5    1    1    2  502    0 -0.15341196258E+02  0.17202220002E+02 -0.29082930344E+02  0.37405554574E+02  0.47000000000E+01 0. -1.
         -5    1    1    2    0  502  0.16380636653E+03 -0.56837353130E+01 -0.50596373679E+03  0.53187049505E+03  0.47000000000E+01 0. -1.
        -11    1    3    3    0    0 -0.28269432441E+02  0.29497891180E+02 -0.15375070468E+03  0.15908666061E+03  0.00000000000E+00 0. -1.
         11    1    3    3    0    0 -0.12019573783E+03 -0.41016375869E+02 -0.24329486532E+03  0.27444808248E+03  0.00000000000E+00 0.  1.
<mgrwt>
<rscale>  0 0.18912714E+03</rscale>
<asrwt>0</asrwt>
<pdfrwt beam="2">  1        1 0.14883868E+00 0.19442295E+03</pdfrwt>
<pdfrwt beam="1">  1       -1 0.54398894E-02 0.19442295E+03</pdfrwt>
<totfact> 0.26074358E+03</totfact>
</mgrwt>
</event>
<event>
 7    1  0.1422977E-005  0.1617448E+03  0.7546771E-02  0.1193912E+00
          1   -1    0    0  501    0  0.00000000000E+00  0.00000000000E+00  0.31934028513E+03  0.31934028513E+03  0.00000000000E+00 0. -1.
         -1   -1    0    0    0  501 -0.00000000000E+00 -0.00000000000E+00 -0.72103029540E+02  0.72103029540E+02  0.00000000000E+00 0.  1.
         23    2    1    2    0    0 -0.10219183601E+03  0.96485464298E+01  0.83791987296E+02  0.16149606882E+03  0.92323438595E+02 0.  0.
          5    1    1    2  502    0  0.37598448303E+02 -0.44852403021E+02  0.97906530547E+01  0.59525862100E+02  0.47000000000E+01 0.  1.
         -5    1    1    2    0  502  0.64593387708E+02  0.35203856591E+02  0.15365461524E+03  0.17042138375E+03  0.47000000000E+01 0.  1.
        -11    1    3    3    0    0 -0.24901000885E+02 -0.24526195841E+02  0.66661084948E+02  0.75268149797E+02  0.00000000000E+00 0. -1.
         11    1    3    3    0    0 -0.77290835126E+02  0.34174742271E+02  0.17130902348E+02  0.86227919023E+02  0.00000000000E+00 0.  1.
<mgrwt>
<rscale>  0 0.15546684E+03</rscale>
<asrwt>0</asrwt>
<pdfrwt beam="1">  1        1 0.49129274E-01 0.16174480E+03</pdfrwt>
<pdfrwt beam="2">  1       -1 0.11092774E-01 0.16174480E+03</pdfrwt>
<totfact> 0.40775738E+03</totfact>
</mgrwt>
</event>
<event>
 7    1  0.1422977E-005  0.1281390E+03  0.7546771E-02  0.1241797E+00
         -1   -1    0    0    0  501 -0.00000000000E+00  0.00000000000E+00  0.14099443641E+03  0.14099443641E+03  0.00000000000E+00 0.  1.
          1   -1    0    0  501    0  0.00000000000E+00 -0.00000000000E+00 -0.11175503054E+03  0.11175503054E+03  0.00000000000E+00 0. -1.
         23    2    1    2    0    0  0.86267762666E+01 -0.26842146981E+02  0.64319560615E+02  0.11989529783E+03  0.97174865273E+02 0.  0.
          5    1    1    2  502    0 -0.38332407099E+02  0.16276201414E+02 -0.72472865149E+02  0.83717945205E+02  0.47000000000E+01 0.  1.
         -5    1    1    2    0  502  0.29705630832E+02  0.10565945567E+02  0.37392710408E+02  0.49136223914E+02  0.47000000000E+01 0.  1.
        -11    1    3    3    0    0 -0.35172295842E+02 -0.21811030920E+02  0.63505388533E+02  0.75800698132E+02  0.00000000000E+00 0.  1.
         11    1    3    3    0    0  0.43799072109E+02 -0.50311160610E+01  0.81417208230E+00  0.44094599699E+02  0.00000000000E+00 0. -1.
<mgrwt>
<rscale>  0 0.12079177E+03</rscale>
<asrwt>0</asrwt>
<pdfrwt beam="2">  1        1 0.17193082E-01 0.12813904E+03</pdfrwt>
<pdfrwt beam="1">  1       -1 0.21691452E-01 0.12813904E+03</pdfrwt>
<totfact> 0.52154020E+03</totfact>
</mgrwt>
</event>
<event>
 7    1  0.1422977E-005  0.2523335E+03  0.7546771E-02  0.1114283E+00
          2   -1    0    0  501    0  0.00000000000E+00  0.00000000000E+00  0.34608378765E+03  0.34608378765E+03  0.00000000000E+00 0. -1.
         -2   -1    0    0    0  501 -0.00000000000E+00 -0.00000000000E+00 -0.26728863950E+03  0.26728863950E+03  0.00000000000E+00 0.  1.
         23    2    1    2    0    0 -0.21078632886E+03  0.60061125086E+02 -0.14339202598E+03  0.27715919089E+03  0.90651689439E+02 0.  0.
          5    1    1    2  502    0  0.52107582001E+02  0.10069452197E+02 -0.12495913058E+01  0.53293953203E+02  0.47000000000E+01 0. -1.
         -5    1    1    2    0  502  0.15867874686E+03 -0.70130577283E+02  0.22343676544E+03  0.28291928306E+03  0.47000000000E+01 0. -1.
        -11    1    3    3    0    0 -0.25652064087E+02  0.43852032205E+02 -0.38631010487E+02  0.63823068648E+02  0.00000000000E+00 0.  1.
         11    1    3    3    0    0 -0.18513426477E+03  0.16209092881E+02 -0.10476101549E+03  0.21333612224E+03  0.00000000000E+00 0. -1.
<mgrwt>
<rscale>  0 0.24845758E+03</rscale>
<asrwt>0</asrwt>
<pdfrwt beam="1">  1        2 0.53243660E-01 0.25233351E+03</pdfrwt>
<pdfrwt beam="2">  1       -2 0.41121329E-01 0.25233351E+03</pdfrwt>
<totfact> 0.53083633E+02</totfact>
</mgrwt>
</event>
<event>
 7    1  0.1422977E-005  0.2489961E+03  0.7546771E-02  0.1116567E+00
          2   -1    0    0  501    0  0.00000000000E+00  0.00000000000E+00  0.54340179570E+03  0.54340179570E+03  0.00000000000E+00 0.  1.
         -2   -1    0    0    0  501 -0.00000000000E+00 -0.00000000000E+00 -0.12401212796E+03  0.12401212796E+03  0.00000000000E+00 0. -1.
         23    2    1    2    0    0 -0.20424939674E+03 -0.68228893030E+02  0.79795659879E+02  0.24631634506E+03  0.89058388699E+02 0.  0.
          5    1    1    2  502    0  0.90494378766E+02  0.69098779690E+02  0.84874499940E+02  0.14209026949E+03  0.47000000000E+01 0. -1.
         -5    1    1    2    0  502  0.11375501797E+03 -0.86988666005E+00  0.25471950792E+03  0.27900730910E+03  0.47000000000E+01 0. -1.
        -11    1    3    3    0    0 -0.11370836518E+03 -0.19807099194E+02 -0.13781980510E+01  0.11542882188E+03  0.00000000000E+00 0. -1.
         11    1    3    3    0    0 -0.90541031555E+02 -0.48421793835E+02  0.81173857930E+02  0.13088752318E+03  0.00000000000E+00 0.  1.
<mgrwt>
<rscale>  0 0.24490567E+03</rscale>
<asrwt>0</asrwt>
<pdfrwt beam="1">  1        2 0.83600275E-01 0.24899615E+03</pdfrwt>
<pdfrwt beam="2">  1       -2 0.19078789E-01 0.24899615E+03</pdfrwt>
<totfact> 0.12902068E+03</totfact>
</mgrwt>
</event>
<event>
 7    1  0.1422977E-005  0.1366809E+03  0.7546771E-02  0.1230252E+00
         -1   -1    0    0    0  501 -0.00000000000E+00  0.00000000000E+00  0.56570070221E+02  0.56570070221E+02  0.00000000000E+00 0.  1.
          1   -1    0    0  501    0  0.00000000000E+00 -0.00000000000E+00 -0.27264556325E+03  0.27264556325E+03  0.00000000000E+00 0. -1.
         23    2    1    2    0    0  0.55263940484E+02 -0.14348848453E+01 -0.58762411320E+02  0.12081916591E+03  0.89933797062E+02 0.  0.
          5    1    1    2  502    0  0.21666418919E+02 -0.35742912939E+02 -0.19931776125E+02  0.46544121365E+02  0.47000000000E+01 0.  1.
         -5    1    1    2    0  502 -0.76930359403E+02  0.37177797784E+02 -0.13738130558E+03  0.16185234620E+03  0.47000000000E+01 0.  1.
        -11    1    3    3    0    0  0.86426804955E+01 -0.39865185478E+02 -0.72687255909E+01  0.41433842581E+02  0.00000000000E+00 0.  1.
         11    1    3    3    0    0  0.46621259988E+02  0.38430300632E+02 -0.51493685730E+02  0.79385323326E+02  0.00000000000E+00 0. -1.
<mgrwt>
<rscale>  0 0.12813340E+03</rscale>
<asrwt>0</asrwt>
<pdfrwt beam="2">  1        1 0.41945472E-01 0.13668095E+03</pdfrwt>
<pdfrwt beam="1">  1       -1 0.87030875E-02 0.13668095E+03</pdfrwt>
<totfact> 0.71194558E+03</totfact>
</mgrwt>
</event>
<event>
 7    1  0.1422977E-005  0.2413016E+03  0.7546771E-02  0.1121836E+00
          2   -1    0    0  501    0  0.00000000000E+00  0.00000000000E+00  0.12464079135E+03  0.12464079135E+03  0.00000000000E+00 0. -1.
         -2   -1    0    0    0  501 -0.00000000000E+00 -0.00000000000E+00 -0.49278603205E+03  0.49278603205E+03  0.00000000000E+00 0.  1.
         23    2    1    2    0    0 -0.35382358379E+02 -0.20334950791E+03 -0.28383806523E+03  0.36182134048E+03  0.88021028750E+02 0.  0.
          5    1    1    2  502    0 -0.14788046072E+02  0.17206503051E+03 -0.92107761054E+02  0.19578301938E+03  0.47000000000E+01 0.  1.
         -5    1    1    2    0  502  0.50170404451E+02  0.31284477393E+02  0.78005855866E+01  0.59822463540E+02  0.47000000000E+01 0.  1.
        -11    1    3    3    0    0  0.24923393722E+02 -0.23835959960E+02 -0.35194982641E+02  0.49274895687E+02  0.00000000000E+00 0. -1.
         11    1    3    3    0    0 -0.60305752101E+02 -0.17951354795E+03 -0.24864308259E+03  0.31254644480E+03  0.00000000000E+00 0.  1.
<mgrwt>
<rscale>  0 0.23695767E+03</rscale>
<asrwt>0</asrwt>
<pdfrwt beam="1">  1        2 0.19175506E-01 0.24130160E+03</pdfrwt>
<pdfrwt beam="2">  1       -2 0.75813236E-01 0.24130160E+03</pdfrwt>
<totfact> 0.46820447E+02</totfact>
</mgrwt>
</event>
<event>
 7    1  0.1422977E-005  0.1298900E+03  0.7546771E-02  0.1239913E+00
          1   -1    0    0  501    0  0.00000000000E+00  0.00000000000E+00  0.54618982178E+03  0.54618982178E+03  0.00000000000E+00 0. -1.
         -1   -1    0    0    0  501 -0.00000000000E+00 -0.00000000000E+00 -0.35299195681E+02  0.35299195681E+02  0.00000000000E+00 0.  1.
         23    2    1    2    0    0  0.40049377850E+01  0.35081260427E+02  0.72523260390E+02  0.12428297390E+03  0.94551044115E+02 0.  0.
          5    1    1    2  502    0  0.50479405870E+02 -0.51852874639E+02  0.25662554869E+03  0.26667518307E+03  0.47000000000E+01 0. -1.
         -5    1    1    2    0  502 -0.54484343655E+02  0.16771614211E+02  0.18174181702E+03  0.19053086050E+03  0.47000000000E+01 0. -1.
        -11    1    3    3    0    0  0.47507605352E+02  0.14639525569E+02  0.21430971852E+02  0.54134783917E+02  0.00000000000E+00 0.  1.
         11    1    3    3    0    0 -0.43502667567E+02  0.20441734859E+02  0.51092288538E+02  0.70148189980E+02  0.00000000000E+00 0. -1.
<mgrwt>
<rscale>  0 0.12195109E+03</rscale>
<asrwt>0</asrwt>
<pdfrwt beam="1">  1        1 0.84029197E-01 0.12989003E+03</pdfrwt>
<pdfrwt beam="2">  1       -1 0.54306459E-02 0.12989003E+03</pdfrwt>
<totfact> 0.59752302E+03</totfact>
</mgrwt>
</event>
<event>
 7    1  0.1422977E-005  0.1304974E+03  0.7546771E-02  0.1240916E+00
          2   -1    0    0  501    0  0.00000000000E+00  0.00000000000E+00  0.47637567148E+03  0.47637567148E+03  0.00000000000E+00 0. -1.
         -2   -1    0    0    0  501 -0.00000000000E+00 -0.00000000000E+00 -0.37493566799E+02  0.37493566799E+02  0.00000000000E+00 0.  1.
         23    2    1    2    0    0 -0.37112748408E+02 -0.51368357744E+01  0.63300251057E+02  0.11626225530E+03  0.90034699128E+02 0.  0.
          5    1    1    2  502    0  0.35985457217E+02 -0.57326006106E+02  0.19558349231E+03  0.20701743060E+03  0.47000000000E+01 0.  1.
         -5    1    1    2    0  502  0.11272911913E+01  0.62462841880E+02  0.17999836131E+03  0.19058955238E+03  0.47000000000E+01 0.  1.
        -11    1    3    3    0    0 -0.10840995589E+02 -0.46007440372E+02  0.41926478180E+02  0.63182603045E+02  0.00000000000E+00 0.  1.
         11    1    3    3    0    0 -0.26271752819E+02  0.40870604598E+02  0.21373772877E+02  0.53079652254E+02  0.00000000000E+00 0. -1.
<mgrwt>
<rscale>  0 0.12133163E+03</rscale>
<asrwt>0</asrwt>
<pdfrwt beam="1">  1        2 0.73288560E-01 0.13049745E+03</pdfrwt>
<pdfrwt beam="2">  1       -2 0.57682414E-02 0.13049745E+03</pdfrwt>
<totfact> 0.98144988E+03</totfact>
</mgrwt>
</event>
<event>
 7    1  0.1422977E-005  0.1288924E+03  0.7546771E-02  0.1243121E+00
         -2   -1    0    0    0  501 -0.00000000000E+00  0.00000000000E+00  0.32487763837E+02  0.32487763837E+02  0.00000000000E+00 0.  1.
          2   -1    0    0  501    0  0.00000000000E+00 -0.00000000000E+00 -0.39543495511E+03  0.39543495511E+03  0.00000000000E+00 0. -1.
         23    2    1    2    0    0  0.10638199058E+02 -0.29588601626E+02 -0.13596371377E+03  0.16689638153E+03  0.91540232025E+02 0.  0.
          5    1    1    2  502    0  0.25434795552E+02  0.37588569010E+02 -0.18490312546E+02  0.49232215093E+02  0.47000000000E+01 0. -1.
         -5    1    1    2    0  502 -0.36072994609E+02 -0.79999673838E+01 -0.20849316496E+03  0.21179412233E+03  0.47000000000E+01 0. -1.
        -11    1    3    3    0    0 -0.30718779975E+02  0.14809250507E+02 -0.65980086843E+02  0.74271994746E+02  0.00000000000E+00 0. -1.
         11    1    3    3    0    0  0.41356979032E+02 -0.44397852133E+02 -0.69983626927E+02  0.92624386781E+02  0.00000000000E+00 0.  1.
<mgrwt>
<rscale>  0 0.11998526E+03</rscale>
<asrwt>0</asrwt>
<pdfrwt beam="2">  1        2 0.60836147E-01 0.12889240E+03</pdfrwt>
<pdfrwt beam="1">  1       -2 0.49981175E-02 0.12889240E+03</pdfrwt>
<totfact> 0.14864392E+04</totfact>
</mgrwt>
</event>
<event>
 7    1  0.1422977E-005  0.1313531E+03  0.7546771E-02  0.1236447E+00
          2   -1    0    0  501    0  0.00000000000E+00  0.00000000000E+00  0.56078564707E+03  0.56078564707E+03  0.00000000000E+00 0. -1.
         -2   -1    0    0    0  501 -0.00000000000E+00 -0.00000000000E+00 -0.25132586823E+02  0.25132586823E+02  0.00000000000E+00 0.  1.
         23    2    1    2    0    0 -0.39801254437E+02 -0.67013600916E+01  0.20696335520E+03  0.23195416651E+03  0.96642934992E+02 0.  0.
          5    1    1    2  502    0 -0.29188239341E+02  0.31778343964E+02  0.20915226814E+03  0.21360846830E+03  0.47000000000E+01 0. -1.
         -5    1    1    2    0  502  0.68989493778E+02 -0.25076983873E+02  0.11953743690E+03  0.14035559908E+03  0.47000000000E+01 0. -1.
        -11    1    3    3    0    0 -0.64044325601E+02 -0.30337540329E+02  0.13872844044E+03  0.15578068616E+03  0.00000000000E+00 0. -1.
         11    1    3    3    0    0  0.24243071164E+02  0.23636180238E+02  0.68234914765E+02  0.76173480350E+02  0.00000000000E+00 0.  1.
<mgrwt>
<rscale>  0 0.12412255E+03</rscale>
<asrwt>0</asrwt>
<pdfrwt beam="1">  1        2 0.86274705E-01 0.13135311E+03</pdfrwt>
<pdfrwt beam="2">  1       -2 0.38665523E-02 0.13135311E+03</pdfrwt>
<totfact> 0.14923371E+04</totfact>
</mgrwt>
</event>
<event>
 7    1  0.1422977E-005  0.1575557E+03  0.7546771E-02  0.1198922E+00
          2   -1    0    0  501    0  0.00000000000E+00  0.00000000000E+00  0.50447683257E+03  0.50447683257E+03  0.00000000000E+00 0.  1.
         -2   -1    0    0    0  501 -0.00000000000E+00 -0.00000000000E+00 -0.42204320273E+02  0.42204320273E+02  0.00000000000E+00 0. -1.
         23    2    1    2    0    0  0.25055625796E+02 -0.92559481920E+02  0.19815742946E+03  0.23914162241E+03  0.93420054814E+02 0.  0.
          5    1    1    2  502    0  0.29046414553E+02  0.69130042414E+02  0.63448976619E+02  0.98338800056E+02  0.47000000000E+01 0.  1.
         -5    1    1    2    0  502 -0.54102040349E+02  0.23429439506E+02  0.20066610622E+03  0.20920073038E+03  0.47000000000E+01 0.  1.
        -11    1    3    3    0    0  0.40921756649E+02 -0.35860114891E+01  0.84289150743E+02  0.93766255011E+02  0.00000000000E+00 0.  1.
         11    1    3    3    0    0 -0.15866130853E+02 -0.88973470431E+02  0.11386827872E+03  0.14537536740E+03  0.00000000000E+00 0. -1.
<mgrwt>
<rscale>  0 0.15126898E+03</rscale>
<asrwt>0</asrwt>
<pdfrwt beam="1">  1        2 0.77611816E-01 0.15755566E+03</pdfrwt>
<pdfrwt beam="2">  1       -2 0.64929727E-02 0.15755566E+03</pdfrwt>
<totfact> 0.77929339E+03</totfact>
</mgrwt>
</event>
<event>
 7    1  0.1422977E-005  0.1457859E+03  0.7546771E-02  0.1215544E+00
         -2   -1    0    0    0  501 -0.00000000000E+00  0.00000000000E+00  0.22469245111E+02  0.22469245111E+02  0.00000000000E+00 0.  1.
          2   -1    0    0  501    0  0.00000000000E+00 -0.00000000000E+00 -0.90944912317E+03  0.90944912317E+03  0.00000000000E+00 0. -1.
         23    2    1    2    0    0  0.44186610733E+02 -0.60624608471E+02 -0.22641091629E+03  0.25545337288E+03  0.91469792721E+02 0.  0.
          5    1    1    2  502    0 -0.95925252545E+01  0.76984310468E+02 -0.20453512540E+03  0.21880426897E+03  0.47000000000E+01 0. -1.
         -5    1    1    2    0  502 -0.34594085478E+02 -0.16359701997E+02 -0.45603383637E+03  0.45766072643E+03  0.47000000000E+01 0. -1.
        -11    1    3    3    0    0  0.65653322785E+02 -0.47345314079E+02 -0.11138311872E+03  0.13768854961E+03  0.00000000000E+00 0.  1.
         11    1    3    3    0    0 -0.21466712053E+02 -0.13279294391E+02 -0.11502779757E+03  0.11776482327E+03  0.00000000000E+00 0. -1.
<mgrwt>
<rscale>  0 0.13836666E+03</rscale>
<asrwt>0</asrwt>
<pdfrwt beam="2">  1        2 0.13991527E+00 0.14578593E+03</pdfrwt>
<pdfrwt beam="1">  1       -2 0.34568065E-02 0.14578593E+03</pdfrwt>
<totfact> 0.99156011E+03</totfact>
</mgrwt>
</event>
<event>
 7    1  0.1422977E-005  0.1267671E+03  0.7546771E-02  0.1246420E+00
         -1   -1    0    0    0  501 -0.00000000000E+00  0.00000000000E+00  0.37916668929E+02  0.37916668929E+02  0.00000000000E+00 0.  1.
          1   -1    0    0  501    0  0.00000000000E+00 -0.00000000000E+00 -0.36153347351E+03  0.36153347351E+03  0.00000000000E+00 0. -1.
         23    2    1    2    0    0 -0.21155591643E+02  0.35789851887E+00 -0.78087957650E+02  0.12312729474E+03  0.92816563340E+02 0.  0.
          5    1    1    2  502    0 -0.34803930482E+02  0.12332002901E+02 -0.19856847839E+03  0.20202703404E+03  0.47000000000E+01 0.  1.
         -5    1    1    2    0  502  0.55959522125E+02 -0.12689901420E+02 -0.46960368546E+02  0.74295813667E+02  0.47000000000E+01 0.  1.
        -11    1    3    3    0    0 -0.11382931490E+02 -0.36445381046E+02 -0.75927717211E+02  0.84987382415E+02  0.00000000000E+00 0. -1.
         11    1    3    3    0    0 -0.97726601523E+01  0.36803279565E+02 -0.21602404388E+01  0.38139912322E+02  0.00000000000E+00 0.  1.
<mgrwt>
<rscale>  0 0.11800803E+03</rscale>
<asrwt>0</asrwt>
<pdfrwt beam="2">  1        1 0.55620533E-01 0.12676712E+03</pdfrwt>
<pdfrwt beam="1">  1       -1 0.58333339E-02 0.12676712E+03</pdfrwt>
<totfact> 0.90947071E+03</totfact>
</mgrwt>
</event>
<event>
 7    1  0.1422977E-005  0.2224435E+03  0.7546771E-02  0.1132074E+00
         -2   -1    0    0    0  501 -0.00000000000E+00  0.00000000000E+00  0.69087983695E+02  0.69087983695E+02  0.00000000000E+00 0.  1.
          2   -1    0    0  501    0  0.00000000000E+00 -0.00000000000E+00 -0.17905108811E+03  0.17905108811E+03  0.00000000000E+00 0. -1.
         23    2    1    2    0    0  0.10282509360E+02  0.98436058096E+01 -0.42790807508E+02  0.10552345349E+03  0.95401883916E+02 0.  0.
          5    1    1    2  502    0 -0.60151503699E+02 -0.25846552798E+02 -0.12609173989E+02  0.66838080145E+02  0.47000000000E+01 0. -1.
         -5    1    1    2    0  502  0.49868994339E+02  0.16002946988E+02 -0.54563122917E+02  0.75777538171E+02  0.47000000000E+01 0. -1.
        -11    1    3    3    0    0 -0.31187196877E+02  0.11369968360E+02  0.13291687100E+02  0.35757326180E+02  0.00000000000E+00 0.  1.
         11    1    3    3    0    0  0.41469706237E+02 -0.15263625502E+01 -0.56082494608E+02  0.69766127307E+02  0.00000000000E+00 0. -1.
<mgrwt>
<rscale>  0 0.22244351E+03</rscale>
<asrwt>0</asrwt>
<pdfrwt beam="2">  1        2 0.27546321E-01 0.22244351E+03</pdfrwt>
<pdfrwt beam="1">  1       -2 0.10628921E-01 0.22244351E+03</pdfrwt>
<totfact> 0.11326562E+04</totfact>
</mgrwt>
</event>
<event>
 7    1  0.1422977E-005  0.2410981E+03  0.7546771E-02  0.1158615E+00
         -2   -1    0    0    0  501 -0.00000000000E+00  0.00000000000E+00  0.34030410197E+02  0.34030410197E+02  0.00000000000E+00 0.  1.
          2   -1    0    0  501    0  0.00000000000E+00 -0.00000000000E+00 -0.11858736400E+04  0.11858736400E+04  0.00000000000E+00 0. -1.
         23    2    1    2    0    0  0.33449589214E+02 -0.97728181849E+01 -0.83618100559E+02  0.12480897059E+03  0.85854000522E+02 0.  0.
          5    1    1    2  502    0 -0.85765519032E+01 -0.74951352887E+02 -0.91552794124E+03  0.91864289239E+03  0.47000000000E+01 0. -1.
         -5    1    1    2    0  502 -0.24873037311E+02  0.84724171071E+02 -0.15269718799E+03  0.17645218720E+03  0.47000000000E+01 0.  1.
        -11    1    3    3    0    0  0.10603904562E+02  0.29318698686E+02 -0.17159045555E+01  0.31224561055E+02  0.00000000000E+00 0. -1.
         11    1    3    3    0    0  0.22845684652E+02 -0.39091516871E+02 -0.81902196003E+02  0.93584409539E+02  0.00000000000E+00 0.  1.
<mgrwt>
<rscale>  0 0.18982996E+03</rscale>
<asrwt>0</asrwt>
<pdfrwt beam="2">  1        2 0.18244207E+00 0.24109813E+03</pdfrwt>
<pdfrwt beam="1">  1       -2 0.52354486E-02 0.24109813E+03</pdfrwt>
<totfact> 0.37042222E+03</totfact>
</mgrwt>
</event>
<event>
 7    1  0.1422977E-005  0.1255117E+03  0.7546771E-02  0.1249672E+00
         -1   -1    0    0    0  501 -0.00000000000E+00  0.00000000000E+00  0.43597379058E+02  0.43597379058E+02  0.00000000000E+00 0.  1.
          1   -1    0    0  501    0  0.00000000000E+00 -0.00000000000E+00 -0.39533627656E+03  0.39533627656E+03  0.00000000000E+00 0. -1.
         23    2    1    2    0    0  0.10659620572E+02 -0.76838524537E+01 -0.35173195519E+02  0.98394315601E+02  0.90948439021E+02 0.  0.
          5    1    1    2  502    0  0.35214020828E+02 -0.91219149851E+01 -0.23880846409E+02  0.43767812615E+02  0.47000000000E+01 0. -1.
         -5    1    1    2    0  502 -0.45873641400E+02  0.16805767439E+02 -0.29268485557E+03  0.29677152740E+03  0.47000000000E+01 0. -1.
        -11    1    3    3    0    0 -0.27912216623E+02 -0.41457297988E+01  0.17355893098E+02  0.33128627162E+02  0.00000000000E+00 0.  1.
         11    1    3    3    0    0  0.38571837196E+02 -0.35381226549E+01 -0.52529088617E+02  0.65265688440E+02  0.00000000000E+00 0. -1.
<mgrwt>
<rscale>  0 0.11610038E+03</rscale>
<asrwt>0</asrwt>
<pdfrwt beam="2">  1        1 0.60820967E-01 0.12551175E+03</pdfrwt>
<pdfrwt beam="1">  1       -1 0.67072889E-02 0.12551175E+03</pdfrwt>
<totfact> 0.66013122E+03</totfact>
</mgrwt>
</event>
<event>
 7    1  0.1422977E-005  0.1948638E+03  0.7546771E-02  0.1158657E+00
         -2   -1    0    0    0  501 -0.00000000000E+00  0.00000000000E+00  0.69674756444E+02  0.69674756444E+02  0.00000000000E+00 0. -1.
          2   -1    0    0  501    0  0.00000000000E+00 -0.00000000000E+00 -0.55779728185E+03  0.55779728185E+03  0.00000000000E+00 0.  1.
         23    2    1    2    0    0 -0.83700798260E+02  0.12382887270E+03 -0.12484635873E+03  0.21523245722E+03  0.91645971047E+02 0.  0.
          5    1    1    2  502    0 -0.43956854220E+01  0.14349887555E+02 -0.24499325935E+01  0.15916453527E+02  0.47000000000E+01 0. -1.
         -5    1    1    2    0  502  0.88096483682E+02 -0.13817876026E+03 -0.36082623408E+03  0.39632312754E+03  0.47000000000E+01 0. -1.
        -11    1    3    3    0    0  0.14195278939E+02  0.45769274956E+02 -0.50490741994E+02  0.69610685252E+02  0.00000000000E+00 0.  1.
         11    1    3    3    0    0 -0.97896077199E+02  0.78059597749E+02 -0.74355616735E+02  0.14562177197E+03  0.00000000000E+00 0. -1.
<mgrwt>
<rscale>  0 0.18978353E+03</rscale>
<asrwt>0</asrwt>
<pdfrwt beam="2">  1        2 0.85814965E-01 0.19486380E+03</pdfrwt>
<pdfrwt beam="1">  1       -2 0.10719194E-01 0.19486380E+03</pdfrwt>
<totfact> 0.32172112E+03</totfact>
</mgrwt>
</event>
<event>
 7    1  0.1422977E-005  0.1413666E+03  0.7546771E-02  0.1222959E+00
         -3   -1    0    0    0  501 -0.00000000000E+00  0.00000000000E+00  0.56574191840E+02  0.56574191840E+02  0.00000000000E+00 0.  1.
          3   -1    0    0  501    0  0.00000000000E+00 -0.00000000000E+00 -0.28871657165E+03  0.28871657165E+03  0.00000000000E+00 0. -1.
         23    2    1    2    0    0  0.51662344128E+02 -0.41134707556E+02 -0.12961528202E+03  0.17065884208E+03  0.89237083541E+02 0.  0.
          5    1    1    2  502    0  0.44459309135E+01  0.47675867850E+02  0.95359249086E+01  0.49048736384E+02  0.47000000000E+01 0. -1.
         -5    1    1    2    0  502 -0.56108275041E+02 -0.65411602941E+01 -0.11206302269E+03  0.12558318503E+03  0.47000000000E+01 0. -1.
        -11    1    3    3    0    0  0.27372678025E+02  0.24542780032E+02 -0.68376722370E+02  0.77633676430E+02  0.00000000000E+00 0. -1.
         11    1    3    3    0    0  0.24289666103E+02 -0.65677487589E+02 -0.61238559653E+02  0.93025165648E+02  0.00000000000E+00 0.  1.
<mgrwt>
<rscale>  0 0.13307772E+03</rscale>
<asrwt>0</asrwt>
<pdfrwt beam="2">  1        3 0.44417934E-01 0.14136655E+03</pdfrwt>
<pdfrwt beam="1">  1       -3 0.87037218E-02 0.14136655E+03</pdfrwt>
<totfact> 0.10900651E+03</totfact>
</mgrwt>
</event>
<event>
 7    1  0.1422977E-005  0.1961969E+03  0.7546771E-02  0.1157386E+00
          2   -1    0    0  501    0  0.00000000000E+00  0.00000000000E+00  0.24290246280E+04  0.24290246280E+04  0.00000000000E+00 0.  1.
         -2   -1    0    0    0  501 -0.00000000000E+00 -0.00000000000E+00 -0.15129872196E+02  0.15129872196E+02  0.00000000000E+00 0. -1.
         23    2    1    2    0    0  0.14138298871E+03 -0.53651690091E+02  0.86744025906E+03  0.88530404457E+03  0.91885771220E+02 0.  0.
          5    1    1    2  502    0 -0.16124610682E+03  0.63186980852E+02  0.13333369661E+04  0.13445454461E+04  0.47000000000E+01 0.  1.
         -5    1    1    2    0  502  0.19863118104E+02 -0.95352907604E+01  0.21311753070E+03  0.21430500956E+03  0.47000000000E+01 0.  1.
        -11    1    3    3    0    0  0.12890339019E+03 -0.68385682194E+02  0.83417011916E+03  0.84683674533E+03  0.00000000000E+00 0.  1.
         11    1    3    3    0    0  0.12479598519E+02  0.14733992103E+02  0.33270139897E+02  0.38467299246E+02  0.00000000000E+00 0. -1.
<mgrwt>
<rscale>  0 0.19119681E+03</rscale>
<asrwt>0</asrwt>
<pdfrwt beam="1">  1        2 0.37369579E+00 0.19619692E+03</pdfrwt>
<pdfrwt beam="2">  1       -2 0.23276746E-02 0.19619692E+03</pdfrwt>
<totfact> 0.27220977E+03</totfact>
</mgrwt>
</event>
<event>
 7    1  0.1422977E-005  0.1520905E+03  0.7546771E-02  0.1206484E+00
         -2   -1    0    0    0  501 -0.00000000000E+00  0.00000000000E+00  0.22853276531E+03  0.22853276531E+03  0.00000000000E+00 0.  1.
          2   -1    0    0  501    0  0.00000000000E+00 -0.00000000000E+00 -0.85462284590E+02  0.85462284590E+02  0.00000000000E+00 0. -1.
         23    2    1    2    0    0 -0.79819521359E+02  0.33583512144E+02  0.78389787023E+02  0.14872221141E+03  0.92056119723E+02 0.  0.
          5    1    1    2  502    0  0.20559878157E+02 -0.12867476911E+02  0.93013599864E+02  0.96238767196E+02  0.47000000000E+01 0. -1.
         -5    1    1    2    0  502  0.59259643202E+02 -0.20716035233E+02 -0.28332906165E+02  0.69034071298E+02  0.47000000000E+01 0. -1.
        -11    1    3    3    0    0 -0.38062026422E+02  0.30089676019E+02 -0.11219483339E+02  0.49799430365E+02  0.00000000000E+00 0. -1.
         11    1    3    3    0    0 -0.41757494937E+02  0.34938361247E+01  0.89609270362E+02  0.98922781042E+02  0.00000000000E+00 0.  1.
<mgrwt>
<rscale>  0 0.14521150E+03</rscale>
<asrwt>0</asrwt>
<pdfrwt beam="2">  1        2 0.13148044E-01 0.15209050E+03</pdfrwt>
<pdfrwt beam="1">  1       -2 0.35158887E-01 0.15209050E+03</pdfrwt>
<totfact> 0.33609040E+03</totfact>
</mgrwt>
</event>
<event>
 7    1  0.1422977E-005  0.1269786E+03  0.7546771E-02  0.1241908E+00
          2   -1    0    0  501    0  0.00000000000E+00  0.00000000000E+00  0.43155442519E+02  0.43155442519E+02  0.00000000000E+00 0. -1.
         -2   -1    0    0    0  501 -0.00000000000E+00 -0.00000000000E+00 -0.34020679770E+03  0.34020679770E+03  0.00000000000E+00 0.  1.
         23    2    1    2    0    0 -0.18288270276E+02  0.47893499385E+02 -0.19332072681E+03  0.21940003813E+03  0.90195483267E+02 0.  0.
          5    1    1    2  502    0 -0.22299338385E+02 -0.36115790009E+02  0.88557244938E+01  0.43613353881E+02  0.47000000000E+01 0. -1.
         -5    1    1    2    0  502  0.40587608662E+02 -0.11777709376E+02 -0.11258635286E+03  0.12034884821E+03  0.47000000000E+01 0.  1.
        -11    1    3    3    0    0  0.13475671903E+02 -0.20809701247E+02 -0.26939525171E+02  0.36611137863E+02  0.00000000000E+00 0. -1.
         11    1    3    3    0    0 -0.31763942180E+02  0.68703200631E+02 -0.16638120164E+03  0.18278890026E+03  0.00000000000E+00 0.  1.
<mgrwt>
<rscale>  0 0.12072353E+03</rscale>
<asrwt>0</asrwt>
<pdfrwt beam="1">  1        2 0.66392986E-02 0.12697858E+03</pdfrwt>
<pdfrwt beam="2">  1       -2 0.52339509E-01 0.12697858E+03</pdfrwt>
<totfact> 0.36005503E+03</totfact>
</mgrwt>
</event>
<event>
 7    1  0.1422977E-005  0.1309617E+03  0.7546771E-02  0.1232807E+00
         -1   -1    0    0    0  501 -0.00000000000E+00  0.00000000000E+00  0.85270139787E+02  0.85270139787E+02  0.00000000000E+00 0.  1.
          1   -1    0    0  501    0  0.00000000000E+00 -0.00000000000E+00 -0.19238675281E+03  0.19238675281E+03  0.00000000000E+00 0. -1.
         23    2    1    2    0    0  0.37130115917E+02 -0.58340088787E+02 -0.93759417741E+01  0.11424266542E+03  0.90450355726E+02 0.  0.
          5    1    1    2  502    0 -0.59955209796E+02  0.55951539954E+02 -0.10975322085E+03  0.13708778754E+03  0.47000000000E+01 0. -1.
         -5    1    1    2    0  502  0.22825093879E+02  0.23885488324E+01  0.12012549602E+02  0.26326439639E+02  0.47000000000E+01 0.  1.
        -11    1    3    3    0    0  0.51654011636E+02 -0.75280072054E+02 -0.10507761340E+02  0.91900158950E+02  0.00000000000E+00 0.  1.
         11    1    3    3    0    0 -0.14523895718E+02  0.16939983268E+02  0.11318195660E+01  0.22342506473E+02  0.00000000000E+00 0. -1.
<mgrwt>
<rscale>  0 0.12645863E+03</rscale>
<asrwt>0</asrwt>
<pdfrwt beam="2">  1        1 0.29597962E-01 0.13096172E+03</pdfrwt>
<pdfrwt beam="1">  1       -1 0.13118483E-01 0.13096172E+03</pdfrwt>
<totfact> 0.58307052E+03</totfact>
</mgrwt>
</event>
<event>
 7    1  0.1422977E-005  0.1745023E+03  0.7546771E-02  0.1179573E+00
         -1   -1    0    0    0  501 -0.00000000000E+00  0.00000000000E+00  0.23738306431E+03  0.23738306431E+03  0.00000000000E+00 0.  1.
          1   -1    0    0  501    0  0.00000000000E+00 -0.00000000000E+00 -0.16139424937E+03  0.16139424937E+03  0.00000000000E+00 0. -1.
         23    2    1    2    0    0  0.12087595647E+03 -0.14539772370E+02  0.14654348792E+03  0.21055138505E+03  0.89635317039E+02 0.  0.
          5    1    1    2  502    0 -0.10824941420E+03 -0.75965021266E+01 -0.10094839766E+03  0.14828456261E+03  0.47000000000E+01 0. -1.
         -5    1    1    2    0  502 -0.12626542278E+02  0.22136274497E+02  0.30393724691E+02  0.39941366014E+02  0.47000000000E+01 0. -1.
        -11    1    3    3    0    0  0.16656087831E+02  0.17130826965E+01 -0.11663409633E+02  0.20405759932E+02  0.00000000000E+00 0. -1.
         11    1    3    3    0    0  0.10421986864E+03 -0.16252855067E+02  0.15820689756E+03  0.19014562512E+03  0.00000000000E+00 0.  1.
<mgrwt>
<rscale>  0 0.16835574E+03</rscale>
<asrwt>0</asrwt>
<pdfrwt beam="2">  1        1 0.24829885E-01 0.17450226E+03</pdfrwt>
<pdfrwt beam="1">  1       -1 0.36520471E-01 0.17450226E+03</pdfrwt>
<totfact> 0.13861908E+03</totfact>
</mgrwt>
</event>
<event>
 7    1  0.1422977E-005  0.1412959E+03  0.7546771E-02  0.1221944E+00
         -2   -1    0    0    0  501 -0.00000000000E+00  0.00000000000E+00  0.21260245703E+03  0.21260245703E+03  0.00000000000E+00 0. -1.
          2   -1    0    0  501    0  0.00000000000E+00 -0.00000000000E+00 -0.95687036065E+02  0.95687036065E+02  0.00000000000E+00 0.  1.
         23    2    1    2    0    0 -0.27356166164E+02  0.59925342571E+02  0.12229135127E+03  0.16689136765E+03  0.92510256139E+02 0.  0.
          5    1    1    2  502    0  0.31654174283E+02  0.20999265172E+02  0.33982759988E+02  0.51184703415E+02  0.47000000000E+01 0. -1.
         -5    1    1    2    0  502 -0.42980081188E+01 -0.80924607743E+02 -0.39358690297E+02  0.90213422028E+02  0.47000000000E+01 0. -1.
        -11    1    3    3    0    0 -0.15780694765E+02  0.25136684782E+02  0.12654739900E+03  0.12998125804E+03  0.00000000000E+00 0. -1.
         11    1    3    3    0    0 -0.11575471398E+02  0.34788657788E+02 -0.42560477290E+01  0.36910109605E+02  0.00000000000E+00 0.  1.
<mgrwt>
<rscale>  0 0.13378597E+03</rscale>
<asrwt>0</asrwt>
<pdfrwt beam="2">  1        2 0.14721083E-01 0.14129589E+03</pdfrwt>
<pdfrwt beam="1">  1       -2 0.32708070E-01 0.14129589E+03</pdfrwt>
<totfact> 0.33438526E+03</totfact>
</mgrwt>
</event>
<event>
 7    1  0.1422977E-005  0.1479608E+03  0.7546771E-02  0.1211228E+00
         -3   -1    0    0    0  501 -0.00000000000E+00  0.00000000000E+00  0.10586473846E+03  0.10586473846E+03  0.00000000000E+00 0.  1.
          3   -1    0    0  501    0  0.00000000000E+00 -0.00000000000E+00 -0.20209077396E+03  0.20209077396E+03  0.00000000000E+00 0. -1.
         23    2    1    2    0    0  0.78997370926E+02  0.47537796911E+01  0.12062609978E+02  0.12460109673E+03  0.95481640706E+02 0.  0.
          5    1    1    2  502    0 -0.71831340925E+02  0.51018690508E+02 -0.46711296639E+02  0.99833278790E+02  0.47000000000E+01 0.  1.
         -5    1    1    2    0  502 -0.71660300014E+01 -0.55772470199E+02 -0.61577348838E+02  0.83521136893E+02  0.47000000000E+01 0.  1.
        -11    1    3    3    0    0  0.55191249295E+02 -0.43080815032E+02  0.92005965045E+00  0.70020547930E+02  0.00000000000E+00 0. -1.
         11    1    3    3    0    0  0.23806121631E+02  0.47834594723E+02  0.11142550327E+02  0.54580548799E+02  0.00000000000E+00 0.  1.
<mgrwt>
<rscale>  0 0.14157266E+03</rscale>
<asrwt>0</asrwt>
<pdfrwt beam="2">  1        3 0.31090888E-01 0.14796084E+03</pdfrwt>
<pdfrwt beam="1">  1       -3 0.16286883E-01 0.14796084E+03</pdfrwt>
<totfact> 0.75694669E+02</totfact>
</mgrwt>
</event>
<event>
 7    1  0.1810952E-005  0.3362235E+03  0.7546771E-02  0.1069784E+00
         -4   -1    0    0    0  501 -0.00000000000E+00  0.00000000000E+00  0.10061937296E+04  0.10061937296E+04  0.00000000000E+00 0.  1.
          4   -1    0    0  501    0  0.00000000000E+00 -0.00000000000E+00 -0.11663996019E+03  0.11663996019E+03  0.00000000000E+00 0. -1.
         23    2    1    2    0    0  0.97086491947E+02 -0.29664117522E+03  0.58764056943E+03  0.67095116865E+03  0.86210545257E+02 0.  0.
          5    1    1    2  502    0 -0.40955501406E+01  0.16488795383E+03  0.20693705828E+03  0.26466931620E+03  0.47000000000E+01 0. -1.
         -5    1    1    2    0  502 -0.92990941807E+02  0.13175322139E+03  0.94976141648E+02  0.18721320490E+03  0.47000000000E+01 0. -1.
        -11    1    3    3    0    0  0.68729153634E+02 -0.11280532643E+03  0.18392387311E+03  0.22644365597E+03  0.00000000000E+00 0.  1.
         11    1    3    3    0    0  0.28357338314E+02 -0.18383584879E+03  0.40371669632E+03  0.44450751268E+03  0.00000000000E+00 0. -1.
<mgrwt>
<rscale>  0 0.33307664E+03</rscale>
<asrwt>0</asrwt>
<pdfrwt beam="2">  1        4 0.17944610E-01 0.33622349E+03</pdfrwt>
<pdfrwt beam="1">  1       -4 0.15479903E+00 0.33622349E+03</pdfrwt>
<totfact> 0.14820733E+01</totfact>
</mgrwt>
</event>
<event>
 7    1  0.1422977E-005  0.1546131E+03  0.7546771E-02  0.1203662E+00
          2   -1    0    0  501    0  0.00000000000E+00  0.00000000000E+00  0.19649168329E+04  0.19649168329E+04  0.00000000000E+00 0. -1.
         -2   -1    0    0    0  501 -0.00000000000E+00 -0.00000000000E+00 -0.13412400310E+02  0.13412400310E+02  0.00000000000E+00 0.  1.
         23    2    1    2    0    0 -0.69803311275E+02 -0.58383028150E+02  0.41956741326E+03  0.43860969766E+03  0.89780690422E+02 0.  0.
          5    1    1    2  502    0  0.83136535045E+02  0.46529679448E+02  0.59472908796E+03  0.60233003627E+03  0.47000000000E+01 0. -1.
         -5    1    1    2    0  502 -0.13333223770E+02  0.11853348702E+02  0.93720793137E+03  0.93738949928E+03  0.47000000000E+01 0. -1.
        -11    1    3    3    0    0 -0.86211902174E+02 -0.30246991682E+02  0.35105349036E+03  0.36274774386E+03  0.00000000000E+00 0. -1.
         11    1    3    3    0    0  0.16408590898E+02 -0.28136036468E+02  0.68513922899E+02  0.75861953801E+02  0.00000000000E+00 0.  1.
<mgrwt>
<rscale>  0 0.14743370E+03</rscale>
<asrwt>0</asrwt>
<pdfrwt beam="1">  1        2 0.30229467E+00 0.15461312E+03</pdfrwt>
<pdfrwt beam="2">  1       -2 0.20634478E-02 0.15461312E+03</pdfrwt>
<totfact> 0.56844400E+03</totfact>
</mgrwt>
</event>
<event>
 7    1  0.1422977E-005  0.2073516E+03  0.7546771E-02  0.1146138E+00
          1   -1    0    0  501    0  0.00000000000E+00  0.00000000000E+00  0.15127866900E+03  0.15127866900E+03  0.00000000000E+00 0. -1.
         -1   -1    0    0    0  501 -0.00000000000E+00 -0.00000000000E+00 -0.51519654529E+03  0.51519654529E+03  0.00000000000E+00 0.  1.
         23    2    1    2    0    0 -0.10628304477E+03 -0.13640710339E+03 -0.40984953595E+03  0.45409721072E+03  0.91239526559E+02 0.  0.
          5    1    1    2  502    0  0.63573035986E+02  0.14777051495E+03  0.23656538406E+02  0.16266338802E+03  0.47000000000E+01 0. -1.
         -5    1    1    2    0  502  0.42710008780E+02 -0.11363411562E+02  0.22275121252E+02  0.49714615548E+02  0.47000000000E+01 0.  1.
        -11    1    3    3    0    0 -0.38914211338E+02 -0.46673616378E+02 -0.25933752808E+03  0.26636196384E+03  0.00000000000E+00 0.  1.
         11    1    3    3    0    0 -0.67368833428E+02 -0.89733487008E+02 -0.15051200787E+03  0.18773524688E+03  0.00000000000E+00 0. -1.
<mgrwt>
<rscale>  0 0.20432795E+03</rscale>
<asrwt>0</asrwt>
<pdfrwt beam="1">  1        1 0.23273642E-01 0.20735163E+03</pdfrwt>
<pdfrwt beam="2">  1       -1 0.79261006E-01 0.20735163E+03</pdfrwt>
<totfact> 0.35135746E+02</totfact>
</mgrwt>
</event>
<event>
 7    1  0.1422977E-005  0.1355207E+03  0.7546771E-02  0.1224183E+00
         -2   -1    0    0    0  501 -0.00000000000E+00  0.00000000000E+00  0.70906535641E+02  0.70906535641E+02  0.00000000000E+00 0.  1.
          2   -1    0    0  501    0  0.00000000000E+00 -0.00000000000E+00 -0.23573698162E+03  0.23573698162E+03  0.00000000000E+00 0. -1.
         23    2    1    2    0    0 -0.52019328848E+02  0.57545326895E+01 -0.72028807395E+02  0.14239373397E+03  0.11112470993E+03 0.  0.
          5    1    1    2  502    0  0.33391774414E+02  0.50700694862E+02 -0.84331734141E+02  0.10401683730E+03  0.47000000000E+01 0. -1.
         -5    1    1    2    0  502  0.18627554434E+02 -0.56455227552E+02 -0.84699044424E+01  0.60232945996E+02  0.47000000000E+01 0. -1.
        -11    1    3    3    0    0 -0.65967313338E+02  0.36690126181E+02 -0.77311344513E+02  0.10805043164E+03  0.00000000000E+00 0.  1.
         11    1    3    3    0    0  0.13947984490E+02 -0.30935593491E+02  0.52825371179E+01  0.34343302322E+02  0.00000000000E+00 0. -1.
<mgrwt>
<rscale>  0 0.13223075E+03</rscale>
<asrwt>0</asrwt>
<pdfrwt beam="2">  1        2 0.36267228E-01 0.13552065E+03</pdfrwt>
<pdfrwt beam="1">  1       -2 0.10908698E-01 0.13552065E+03</pdfrwt>
<totfact> 0.77860938E+03</totfact>
</mgrwt>
</event>
<event>
 7    1  0.1422977E-005  0.1241725E+03  0.7546771E-02  0.1244956E+00
         -1   -1    0    0    0  501 -0.00000000000E+00  0.00000000000E+00  0.19255863201E+02  0.19255863201E+02  0.00000000000E+00 0.  1.
          1   -1    0    0  501    0  0.00000000000E+00 -0.00000000000E+00 -0.12787111410E+04  0.12787111410E+04  0.00000000000E+00 0. -1.
         23    2    1    2    0    0 -0.21199720392E+01 -0.49083838065E+02 -0.15673170465E+03  0.18827421118E+03  0.92025180869E+02 0.  0.
          5    1    1    2  502    0 -0.25237637029E+01 -0.30069584032E+02 -0.59598943077E+03  0.59677134722E+03  0.47000000000E+01 0. -1.
         -5    1    1    2    0  502  0.46437357421E+01  0.79153422097E+02 -0.50673414237E+03  0.51292144579E+03  0.47000000000E+01 0.  1.
        -11    1    3    3    0    0 -0.14251101193E+02 -0.74628281414E+02 -0.11708603870E+03  0.13957655509E+03  0.00000000000E+00 0.  1.
         11    1    3    3    0    0  0.12131129154E+02  0.25544443349E+02 -0.39645665948E+02  0.48697656094E+02  0.00000000000E+00 0. -1.
<mgrwt>
<rscale>  0 0.11888019E+03</rscale>
<asrwt>0</asrwt>
<pdfrwt beam="2">  1        1 0.19672479E+00 0.12417253E+03</pdfrwt>
<pdfrwt beam="1">  1       -1 0.29624406E-02 0.12417253E+03</pdfrwt>
<totfact> 0.38123641E+03</totfact>
</mgrwt>
</event>
<event>
 7    1  0.2744996E-005  0.1274598E+03  0.7546771E-02  0.1246174E+00
          1   -1    0    0  501    0  0.00000000000E+00  0.00000000000E+00  0.34879983319E+03  0.34879983319E+03  0.00000000000E+00 0. -1.
         -1   -1    0    0    0  501 -0.00000000000E+00 -0.00000000000E+00 -0.35828293264E+02  0.35828293264E+02  0.00000000000E+00 0.  1.
         23    2    1    2    0    0 -0.71901029573E+01 -0.23847009084E+02  0.10796557205E+03  0.14322919264E+03  0.90761552727E+02 0.  0.
          5    1    1    2  502    0 -0.14812986450E+02  0.58745006238E+01 -0.13250557684E+02  0.21250920076E+02  0.47000000000E+01 0.  1.
         -5    1    1    2    0  502  0.22003089407E+02  0.17972508460E+02  0.21825652556E+03  0.22014801374E+03  0.47000000000E+01 0.  1.
        -11    1    3    3    0    0 -0.20761772385E+02  0.20121974620E+02  0.35577966450E+01  0.29130790792E+02  0.00000000000E+00 0. -1.
         11    1    3    3    0    0  0.13571669428E+02 -0.43968983705E+02  0.10440777541E+03  0.11409840185E+03  0.00000000000E+00 0.  1.
<mgrwt>
<rscale>  0 0.11815364E+03</rscale>
<asrwt>0</asrwt>
<pdfrwt beam="1">  1        1 0.53661511E-01 0.12745979E+03</pdfrwt>
<pdfrwt beam="2">  1       -1 0.55120453E-02 0.12745979E+03</pdfrwt>
<totfact> 0.10348424E+04</totfact>
</mgrwt>
</event>
<event>
 7    1  0.1422977E-005  0.2665478E+03  0.7546771E-02  0.1105046E+00
         -2   -1    0    0    0  501 -0.00000000000E+00  0.00000000000E+00  0.16990227474E+03  0.16990227474E+03  0.00000000000E+00 0.  1.
          2   -1    0    0  501    0  0.00000000000E+00 -0.00000000000E+00 -0.63468719341E+03  0.63468719341E+03  0.00000000000E+00 0. -1.
         23    2    1    2    0    0  0.54782593221E+02  0.23145725783E+03  0.15693016383E+02  0.25512901490E+03  0.90944756616E+02 0.  0.
          5    1    1    2  502    0 -0.57780762086E+02 -0.60898641118E+02 -0.24218761363E+03  0.25636729736E+03  0.47000000000E+01 0. -1.
         -5    1    1    2    0  502  0.29981688656E+01 -0.17055861671E+03 -0.23829032142E+03  0.29309315590E+03  0.47000000000E+01 0.  1.
        -11    1    3    3    0    0 -0.24773408956E+02  0.45160528171E+02 -0.36303394682E+01  0.51636948599E+02  0.00000000000E+00 0. -1.
         11    1    3    3    0    0  0.79556002177E+02  0.18629672966E+03  0.19323355851E+02  0.20349206630E+03  0.00000000000E+00 0.  1.
<mgrwt>
<rscale>  0 0.26352119E+03</rscale>
<asrwt>0</asrwt>
<pdfrwt beam="2">  1        2 0.97644184E-01 0.26654783E+03</pdfrwt>
<pdfrwt beam="1">  1       -2 0.26138811E-01 0.26654783E+03</pdfrwt>
<totfact> 0.62259596E+02</totfact>
</mgrwt>
</event>
<event>
 7    1  0.1422977E-005  0.1552160E+03  0.7546771E-02  0.1202383E+00
          1   -1    0    0  501    0  0.00000000000E+00  0.00000000000E+00  0.58228390236E+03  0.58228390236E+03  0.00000000000E+00 0. -1.
         -1   -1    0    0    0  501 -0.00000000000E+00 -0.00000000000E+00 -0.34938654502E+02  0.34938654502E+02  0.00000000000E+00 0.  1.
         23    2    1    2    0    0  0.16139565121E+02 -0.90578103289E+02  0.23919934507E+03  0.27219224657E+03  0.91691951951E+02 0.  0.
          5    1    1    2  502    0  0.14897017323E+02  0.17695077716E+02  0.23784626074E+03  0.23901458251E+03  0.47000000000E+01 0.  1.
         -5    1    1    2    0  502 -0.31036582445E+02  0.72883025573E+02  0.70299642038E+02  0.10601572778E+03  0.47000000000E+01 0.  1.
        -11    1    3    3    0    0  0.12302507818E+02 -0.48868871739E+01 -0.43859640526E+01  0.13945251720E+02  0.00000000000E+00 0.  1.
         11    1    3    3    0    0  0.38370573034E+01 -0.85691216115E+02  0.24358530912E+03  0.25824699485E+03  0.00000000000E+00 0. -1.
<mgrwt>
<rscale>  0 0.14845649E+03</rscale>
<asrwt>0</asrwt>
<pdfrwt beam="1">  1        1 0.89582132E-01 0.15521604E+03</pdfrwt>
<pdfrwt beam="2">  1       -1 0.53751780E-02 0.15521604E+03</pdfrwt>
<totfact> 0.56207905E+03</totfact>
</mgrwt>
</event>
<event>
 7    1  0.1422977E-005  0.2232870E+03  0.7546771E-02  0.1134759E+00
          1   -1    0    0  501    0  0.00000000000E+00  0.00000000000E+00  0.92763293177E+03  0.92763293177E+03  0.00000000000E+00 0. -1.
         -1   -1    0    0    0  501 -0.00000000000E+00 -0.00000000000E+00 -0.49977239744E+02  0.49977239744E+02  0.00000000000E+00 0.  1.
         23    2    1    2    0    0 -0.17983134424E+01 -0.18501466378E+03  0.46004182758E+03  0.50405087153E+03  0.90527002763E+02 0.  0.
          5    1    1    2  502    0 -0.13988919824E+02  0.97390961456E+02  0.87954484784E+02  0.13205593756E+03  0.47000000000E+01 0. -1.
         -5    1    1    2    0  502  0.15787233266E+02  0.87623702322E+02  0.32965937967E+03  0.34150336242E+03  0.47000000000E+01 0. -1.
        -11    1    3    3    0    0 -0.30456711017E+02 -0.13657040250E+03  0.24889712657E+03  0.28553260006E+03  0.00000000000E+00 0.  1.
         11    1    3    3    0    0  0.28658397575E+02 -0.48444261278E+02  0.21114470101E+03  0.21851827147E+03  0.00000000000E+00 0. -1.
<mgrwt>
<rscale>  0 0.21882913E+03</rscale>
<asrwt>0</asrwt>
<pdfrwt beam="1">  1        1 0.14271275E+00 0.22328697E+03</pdfrwt>
<pdfrwt beam="2">  1       -1 0.76888068E-02 0.22328697E+03</pdfrwt>
<totfact> 0.16607404E+03</totfact>
</mgrwt>
</event>
<event>
 7    1  0.1422977E-005  0.1463426E+03  0.7546771E-02  0.1211292E+00
          1   -1    0    0  501    0  0.00000000000E+00  0.00000000000E+00  0.97052429978E+02  0.97052429978E+02  0.00000000000E+00 0. -1.
         -1   -1    0    0    0  501 -0.00000000000E+00 -0.00000000000E+00 -0.19835133015E+03  0.19835133015E+03  0.00000000000E+00 0.  1.
         23    2    1    2    0    0 -0.41129578813E+02 -0.64023514953E+02 -0.69475815746E+02  0.14564104189E+03  0.10292604815E+03 0.  0.
          5    1    1    2  502    0  0.47147902367E+02  0.83508167727E+02  0.16206490970E+02  0.97371860023E+02  0.47000000000E+01 0.  1.
         -5    1    1    2    0  502 -0.60183235546E+01 -0.19484652774E+02 -0.48029575395E+02  0.52390858218E+02  0.47000000000E+01 0.  1.
        -11    1    3    3    0    0 -0.73803402879E+02 -0.52842194181E+02 -0.36319444541E+02  0.97766772546E+02  0.00000000000E+00 0. -1.
         11    1    3    3    0    0  0.32673824066E+02 -0.11181320772E+02 -0.33156371206E+02  0.47874269340E+02  0.00000000000E+00 0.  1.
<mgrwt>
<rscale>  0 0.14152463E+03</rscale>
<asrwt>0</asrwt>
<pdfrwt beam="1">  1        1 0.14931143E-01 0.14634262E+03</pdfrwt>
<pdfrwt beam="2">  1       -1 0.30515589E-01 0.14634262E+03</pdfrwt>
<totfact> 0.35909154E+03</totfact>
</mgrwt>
</event>
<event>
 7    1  0.1422977E-005  0.2068622E+03  0.7546771E-02  0.1147886E+00
         -1   -1    0    0    0  501 -0.00000000000E+00  0.00000000000E+00  0.11315532133E+03  0.11315532133E+03  0.00000000000E+00 0.  1.
          1   -1    0    0  501    0  0.00000000000E+00 -0.00000000000E+00 -0.35539516022E+03  0.35539516022E+03  0.00000000000E+00 0. -1.
         23    2    1    2    0    0 -0.15117739552E+03  0.65675737427E+02 -0.77735715173E+02  0.20425218671E+03  0.92239942325E+02 0.  0.
          5    1    1    2  502    0  0.34273891276E+02  0.11358735588E+02  0.12565248529E+02  0.38518774227E+02  0.47000000000E+01 0.  1.
         -5    1    1    2    0  502  0.11690350424E+03 -0.77034473014E+02 -0.17706937224E+03  0.22577952060E+03  0.47000000000E+01 0.  1.
        -11    1    3    3    0    0 -0.75007800751E+02  0.58497224796E+02  0.85651204366E-01  0.95121516065E+02  0.00000000000E+00 0.  1.
         11    1    3    3    0    0 -0.76169594769E+02  0.71785126310E+01 -0.77821366378E+02  0.10913067065E+03  0.00000000000E+00 0. -1.
<mgrwt>
<rscale>  0 0.20221254E+03</rscale>
<asrwt>0</asrwt>
<pdfrwt beam="2">  1        1 0.54676177E-01 0.20686223E+03</pdfrwt>
<pdfrwt beam="1">  1       -1 0.17408511E-01 0.20686223E+03</pdfrwt>
<totfact> 0.17715449E+03</totfact>
</mgrwt>
</event>
<event>
 7    1  0.1422977E-005  0.2807069E+03  0.7546771E-02  0.1097268E+00
          2   -1    0    0  501    0  0.00000000000E+00  0.00000000000E+00  0.16530265386E+04  0.16530265386E+04  0.00000000000E+00 0. -1.
         -2   -1    0    0    0  501 -0.00000000000E+00 -0.00000000000E+00 -0.49582626641E+02  0.49582626641E+02  0.00000000000E+00 0.  1.
         23    2    1    2    0    0 -0.18868221251E+03  0.16605054332E+03  0.10326588664E+04  0.10665337399E+04  0.89084923478E+02 0.  0.
          5    1    1    2  502    0  0.95327407392E+02 -0.39276814559E+02  0.11847532871E+03  0.15712567032E+03  0.47000000000E+01 0.  1.
         -5    1    1    2    0  502  0.93354805116E+02 -0.12677372876E+03  0.45230971685E+03  0.47894975509E+03  0.47000000000E+01 0.  1.
        -11    1    3    3    0    0 -0.24119029510E+02  0.72783613128E+02  0.33741178917E+03  0.34601430230E+03  0.00000000000E+00 0. -1.
         11    1    3    3    0    0 -0.16456318300E+03  0.93266930188E+02  0.69524707727E+03  0.72051943757E+03  0.00000000000E+00 0.  1.
<mgrwt>
<rscale>  0 0.27712844E+03</rscale>
<asrwt>0</asrwt>
<pdfrwt beam="1">  1        2 0.25431173E+00 0.28070693E+03</pdfrwt>
<pdfrwt beam="2">  1       -2 0.76280977E-02 0.28070693E+03</pdfrwt>
<totfact> 0.11525584E+03</totfact>
</mgrwt>
</event>
<event>
 7    1  0.1422977E-005  0.1648434E+03  0.7546771E-02  0.1186913E+00
         -1   -1    0    0    0  501 -0.00000000000E+00  0.00000000000E+00  0.70526174477E+02  0.70526174477E+02  0.00000000000E+00 0.  1.
          1   -1    0    0  501    0  0.00000000000E+00 -0.00000000000E+00 -0.35690409328E+03  0.35690409328E+03  0.00000000000E+00 0. -1.
         23    2    1    2    0    0 -0.78645918918E+01 -0.10717917155E+03 -0.14601769940E+03  0.21092545915E+03  0.10779218043E+03 0.  0.
          5    1    1    2  502    0  0.14946110324E+01  0.12653996185E+03 -0.73436504501E+02  0.14638854463E+03  0.47000000000E+01 0.  1.
         -5    1    1    2    0  502  0.63699808594E+01 -0.19360790298E+02 -0.66923714905E+02  0.70116263975E+02  0.47000000000E+01 0.  1.
        -11    1    3    3    0    0  0.16453364964E+02  0.16623974702E+02 -0.10108724276E+02  0.25480503528E+02  0.00000000000E+00 0. -1.
         11    1    3    3    0    0 -0.24317956856E+02 -0.12380314625E+03 -0.13590897512E+03  0.18544495562E+03  0.00000000000E+00 0.  1.
<mgrwt>
<rscale>  0 0.16159042E+03</rscale>
<asrwt>0</asrwt>
<pdfrwt beam="2">  1        1 0.54908322E-01 0.16484338E+03</pdfrwt>
<pdfrwt beam="1">  1       -1 0.10850181E-01 0.16484338E+03</pdfrwt>
<totfact> 0.36736572E+03</totfact>
</mgrwt>
</event>
<event>
 7    1  0.1422977E-005  0.1708585E+03  0.7546771E-02  0.1191530E+00
          1   -1    0    0  501    0  0.00000000000E+00  0.00000000000E+00  0.83261028773E+03  0.83261028773E+03  0.00000000000E+00 0. -1.
         -1   -1    0    0    0  501 -0.00000000000E+00 -0.00000000000E+00 -0.26562337628E+02  0.26562337628E+02  0.00000000000E+00 0.  1.
         23    2    1    2    0    0  0.78803286301E+02  0.26311754139E+02  0.27787480204E+03  0.30405146309E+03  0.91272231585E+02 0.  0.
          5    1    1    2  502    0 -0.88122431696E+02  0.44494689066E+02  0.28608696287E+03  0.30267669326E+03  0.47000000000E+01 0. -1.
         -5    1    1    2    0  502  0.93191453951E+01 -0.70806443204E+02  0.24208618520E+03  0.25244446901E+03  0.47000000000E+01 0.  1.
        -11    1    3    3    0    0  0.28803642876E+02  0.29907327671E+02  0.23331454741E+03  0.23698053955E+03  0.00000000000E+00 0. -1.
         11    1    3    3    0    0  0.49999643425E+02 -0.35955735326E+01  0.44560254631E+02  0.67070923540E+02  0.00000000000E+00 0.  1.
<mgrwt>
<rscale>  0 0.15751620E+03</rscale>
<asrwt>0</asrwt>
<pdfrwt beam="1">  1        1 0.12809387E+00 0.17085851E+03</pdfrwt>
<pdfrwt beam="2">  1       -1 0.40865141E-02 0.17085851E+03</pdfrwt>
<totfact> 0.50617731E+03</totfact>
</mgrwt>
</event>
<event>
 7    1  0.1422977E-005  0.1651977E+03  0.7546771E-02  0.1189280E+00
         -2   -1    0    0    0  501 -0.00000000000E+00  0.00000000000E+00  0.29355799904E+02  0.29355799904E+02  0.00000000000E+00 0.  1.
          2   -1    0    0  501    0  0.00000000000E+00 -0.00000000000E+00 -0.11750822992E+04  0.11750822992E+04  0.00000000000E+00 0. -1.
         23    2    1    2    0    0  0.10344254996E+03 -0.31069931400E+02 -0.21067824567E+03  0.25490899726E+03  0.94485829138E+02 0.  0.
          5    1    1    2  502    0 -0.20344859541E+02 -0.43125404326E+01 -0.17636462740E+02  0.27670311395E+02  0.47000000000E+01 0.  1.
         -5    1    1    2    0  502 -0.83097690415E+02  0.35382471833E+02 -0.91741179086E+03  0.92185879042E+03  0.47000000000E+01 0.  1.
        -11    1    3    3    0    0  0.97289208965E+02 -0.58595475736E+02 -0.15140489498E+03  0.18926717144E+03  0.00000000000E+00 0.  1.
         11    1    3    3    0    0  0.61533409903E+01  0.27525544336E+02 -0.59273350684E+02  0.65641825825E+02  0.00000000000E+00 0. -1.
<mgrwt>
<rscale>  0 0.15948457E+03</rscale>
<asrwt>0</asrwt>
<pdfrwt beam="2">  1        2 0.18078189E+00 0.16519770E+03</pdfrwt>
<pdfrwt beam="1">  1       -2 0.45162771E-02 0.16519770E+03</pdfrwt>
<totfact> 0.46602321E+03</totfact>
</mgrwt>
</event>
<event>
 7    1  0.1422977E-005  0.1321722E+03  0.7546771E-02  0.1235470E+00
         -1   -1    0    0    0  501 -0.00000000000E+00  0.00000000000E+00  0.65680931417E+03  0.65680931417E+03  0.00000000000E+00 0.  1.
          1   -1    0    0  501    0  0.00000000000E+00 -0.00000000000E+00 -0.27103667684E+02  0.27103667684E+02  0.00000000000E+00 0. -1.
         23    2    1    2    0    0  0.12297972831E+02  0.41140406213E+02  0.44245589008E+03  0.45471447909E+03  0.95677947658E+02 0.  0.
          5    1    1    2  502    0 -0.18927685542E+02 -0.18413348949E+01 -0.13941624502E+02  0.24043849275E+02  0.47000000000E+01 0. -1.
         -5    1    1    2    0  502  0.66297127114E+01 -0.39299071319E+02  0.20119138091E+03  0.20515465349E+03  0.47000000000E+01 0. -1.
        -11    1    3    3    0    0  0.30371058671E+02  0.60167476344E+02  0.39290206462E+03  0.39864088952E+03  0.00000000000E+00 0. -1.
         11    1    3    3    0    0 -0.18073085840E+02 -0.19027070130E+02  0.49553825459E+02  0.56073589569E+02  0.00000000000E+00 0.  1.
<mgrwt>
<rscale>  0 0.12474394E+03</rscale>
<asrwt>0</asrwt>
<pdfrwt beam="2">  1        1 0.41697955E-02 0.13217217E+03</pdfrwt>
<pdfrwt beam="1">  1       -1 0.10104757E+00 0.13217217E+03</pdfrwt>
<totfact> 0.20471274E+03</totfact>
</mgrwt>
</event>
<event>
 7    1  0.1422977E-005  0.1571829E+03  0.7546771E-02  0.1200220E+00
         -3   -1    0    0    0  501 -0.00000000000E+00  0.00000000000E+00  0.30914780447E+02  0.30914780447E+02  0.00000000000E+00 0.  1.
          3   -1    0    0  501    0  0.00000000000E+00 -0.00000000000E+00 -0.67887612761E+03  0.67887612761E+03  0.00000000000E+00 0. -1.
         23    2    1    2    0    0  0.20860347250E+02 -0.92988482581E+02 -0.33060647084E+03  0.35564320854E+03  0.89996895715E+02 0.  0.
          5    1    1    2  502    0 -0.16946076739E+01  0.12195324672E+03 -0.24178586057E+03  0.27084674348E+03  0.47000000000E+01 0. -1.
         -5    1    1    2    0  502 -0.19165739576E+02 -0.28964764142E+02 -0.75569015754E+02  0.83300956041E+02  0.47000000000E+01 0. -1.
        -11    1    3    3    0    0  0.48048872126E+02 -0.38299124553E+02 -0.22893876240E+03  0.23704108079E+03  0.00000000000E+00 0. -1.
         11    1    3    3    0    0 -0.27188524876E+02 -0.54689358028E+02 -0.10166770844E+03  0.11860212775E+03  0.00000000000E+00 0.  1.
<mgrwt>
<rscale>  0 0.15020574E+03</rscale>
<asrwt>0</asrwt>
<pdfrwt beam="2">  1        3 0.10444248E+00 0.15718294E+03</pdfrwt>
<pdfrwt beam="1">  1       -3 0.47561202E-02 0.15718294E+03</pdfrwt>
<totfact> 0.47996177E+02</totfact>
</mgrwt>
</event>
<event>
 7    1  0.1422977E-005  0.2502278E+03  0.7546771E-02  0.1115462E+00
          1   -1    0    0  501    0  0.00000000000E+00  0.00000000000E+00  0.84140031793E+02  0.84140031793E+02  0.00000000000E+00 0. -1.
         -1   -1    0    0    0  501 -0.00000000000E+00 -0.00000000000E+00 -0.70725246268E+03  0.70725246268E+03  0.00000000000E+00 0.  1.
         23    2    1    2    0    0  0.18831527763E+03 -0.10736099602E+03 -0.33419942248E+03  0.40918222488E+03  0.93551119258E+02 0.  0.
          5    1    1    2  502    0 -0.18084478205E+03  0.97880748812E+02 -0.18240220960E+03  0.27491477270E+03  0.47000000000E+01 0.  1.
         -5    1    1    2    0  502 -0.74704955837E+01  0.94802472061E+01 -0.10651079881E+03  0.10729549689E+03  0.47000000000E+01 0.  1.
        -11    1    3    3    0    0  0.58470400585E+01  0.11264737735E+02 -0.47893094222E+02  0.49546247768E+02  0.00000000000E+00 0.  1.
         11    1    3    3    0    0  0.18246823757E+03 -0.11862573375E+03 -0.28630632826E+03  0.35963597711E+03  0.00000000000E+00 0. -1.
<mgrwt>
<rscale>  0 0.24661721E+03</rscale>
<asrwt>0</asrwt>
<pdfrwt beam="1">  1        1 0.12944621E-01 0.25022782E+03</pdfrwt>
<pdfrwt beam="2">  1       -1 0.10880807E+00 0.25022782E+03</pdfrwt>
<totfact> 0.37806701E+02</totfact>
</mgrwt>
</event>
<event>
 7    1  0.1422977E-005  0.2013106E+03  0.7546771E-02  0.1152857E+00
          1   -1    0    0  501    0  0.00000000000E+00  0.00000000000E+00  0.10713379268E+04  0.10713379268E+04  0.00000000000E+00 0. -1.
         -1   -1    0    0    0  501 -0.00000000000E+00 -0.00000000000E+00 -0.54283668016E+02  0.54283668016E+02  0.00000000000E+00 0.  1.
         23    2    1    2    0    0 -0.51890843656E+01  0.15771833875E+03  0.15143563874E+03  0.23690253989E+03  0.91038781579E+02 0.  0.
          5    1    1    2  502    0  0.10617329671E+02  0.15811462461E+02  0.19467929685E+03  0.19566514421E+03  0.47000000000E+01 0. -1.
         -5    1    1    2    0  502 -0.54282453056E+01 -0.17352980121E+03  0.67093932321E+03  0.69305391074E+03  0.47000000000E+01 0. -1.
        -11    1    3    3    0    0  0.16643208963E+02  0.15044591138E+03  0.10243444170E+03  0.18276701973E+03  0.00000000000E+00 0.  1.
         11    1    3    3    0    0 -0.21832293329E+02  0.72724273730E+01  0.49001197033E+02  0.54135520156E+02  0.00000000000E+00 0. -1.
<mgrwt>
<rscale>  0 0.19634779E+03</rscale>
<asrwt>0</asrwt>
<pdfrwt beam="1">  1        1 0.16482120E+00 0.20131061E+03</pdfrwt>
<pdfrwt beam="2">  1       -1 0.83513343E-02 0.20131061E+03</pdfrwt>
<totfact> 0.11440148E+03</totfact>
</mgrwt>
</event>
<event>
 6    1  0.1422977E-005  0.1395726E+03  0.7546771E-02  0.1243236E+00
         -1   -1    0    0    0  501 -0.00000000000E+00  0.00000000000E+00  0.24595436988E+02  0.24595436988E+02  0.00000000000E+00 0.  1.
          1   -1    0    0  501    0  0.00000000000E+00 -0.00000000000E+00 -0.47328136059E+03  0.47328136059E+03  0.00000000000E+00 0. -1.
          5    1    1    2  502    0 -0.91254442535E+02  0.22833648728E+02 -0.15132888639E+03  0.17824497371E+03  0.47000000000E+01 0.  1.
         -5    1    1    2    0  502  0.34335767639E+02  0.19849630364E+01 -0.14812938961E+03  0.15214233824E+03  0.47000000000E+01 0.  1.
        -11    1    1    2    0    0  0.32450711912E+02 -0.19404261058E+02 -0.38499393625E+02  0.53960887320E+02  0.00000000000E+00 0.  1.
         11    1    1    2    0    0  0.24467962984E+02 -0.54143507065E+01 -0.11072825398E+03  0.11352859831E+03  0.00000000000E+00 0. -1.
<mgrwt>
<rscale>  0 0.11991601E+03</rscale>
<asrwt>0</asrwt>
<pdfrwt beam="2">  1        1 0.72812515E-01 0.13957262E+03</pdfrwt>
<pdfrwt beam="1">  1       -1 0.37839135E-02 0.13957262E+03</pdfrwt>
<totfact> 0.12334713E+04</totfact>
</mgrwt>
</event>
<event>
 7    1  0.1422977E-005  0.4486685E+03  0.7546771E-02  0.1067659E+00
          1   -1    0    0  501    0  0.00000000000E+00  0.00000000000E+00  0.29918607510E+03  0.29918607510E+03  0.00000000000E+00 0. -1.
         -1   -1    0    0    0  501 -0.00000000000E+00 -0.00000000000E+00 -0.62005033188E+03  0.62005033188E+03  0.00000000000E+00 0.  1.
         23    2    1    2    0    0  0.98660735653E+02  0.50157346990E+02 -0.43325179891E+03  0.45670595982E+03  0.92862868044E+02 0.  0.
          5    1    1    2  502    0  0.76334744760E+02 -0.15322500634E+03  0.17997957348E+03  0.24843436295E+03  0.47000000000E+01 0. -1.
         -5    1    1    2    0  502 -0.17499548041E+03  0.10306765935E+03 -0.67592031346E+02  0.21409608420E+03  0.47000000000E+01 0.  1.
        -11    1    3    3    0    0  0.69629120379E+02  0.75275527121E+02 -0.26540479914E+03  0.28452473846E+03  0.00000000000E+00 0.  1.
         11    1    3    3    0    0  0.29031615275E+02 -0.25118180132E+02 -0.16784699977E+03  0.17218122136E+03  0.00000000000E+00 0. -1.
<mgrwt>
<rscale>  0 0.33798146E+03</rscale>
<asrwt>0</asrwt>
<pdfrwt beam="1">  1        1 0.46028628E-01 0.44866854E+03</pdfrwt>
<pdfrwt beam="2">  1       -1 0.95392357E-01 0.44866854E+03</pdfrwt>
<totfact> 0.97182296E+01</totfact>
</mgrwt>
</event>
<event>
 6    1  0.1422977E-005  0.1356810E+03  0.7546771E-02  0.1273877E+00
          4   -1    0    0  501    0  0.00000000000E+00  0.00000000000E+00  0.78756028437E+03  0.78756028437E+03  0.00000000000E+00 0.  1.
         -4   -1    0    0    0  501 -0.00000000000E+00 -0.00000000000E+00 -0.10941803106E+02  0.10941803106E+02  0.00000000000E+00 0. -1.
          5    1    1    2  502    0 -0.63576220839E+02  0.19765904645E+02  0.30899433100E+03  0.31612056788E+03  0.47000000000E+01 0.  1.
         -5    1    1    2    0  502  0.64784758445E+02  0.22856376962E+02  0.34171374995E+03  0.34858263841E+03  0.47000000000E+01 0. -1.
        -11    1    1    2    0    0  0.41109220526E+01 -0.33343786513E+02  0.82234465137E+02  0.88832511141E+02  0.00000000000E+00 0. -1.
         11    1    1    2    0    0 -0.53194596587E+01 -0.92784950946E+01  0.43675935173E+02  0.44966370051E+02  0.00000000000E+00 0.  1.
<mgrwt>
<rscale>  0 0.10311563E+03</rscale>
<asrwt>0</asrwt>
<pdfrwt beam="1">  1        4 0.12116308E+00 0.13568104E+03</pdfrwt>
<pdfrwt beam="2">  1       -4 0.16833549E-02 0.13568104E+03</pdfrwt>
<totfact> 0.11901926E+03</totfact>
</mgrwt>
</event>
<event>
 7    1  0.1422977E-005  0.1455642E+03  0.7546771E-02  0.1215953E+00
          1   -1    0    0  501    0  0.00000000000E+00  0.00000000000E+00  0.22174135254E+03  0.22174135254E+03  0.00000000000E+00 0.  1.
         -1   -1    0    0    0  501 -0.00000000000E+00 -0.00000000000E+00 -0.14184327693E+03  0.14184327693E+03  0.00000000000E+00 0. -1.
         23    2    1    2    0    0  0.73662702632E+02  0.11751185039E+02 -0.83761303654E+02  0.14455648111E+03  0.91193947888E+02 0.  0.
          5    1    1    2  502    0  0.31991177727E+02 -0.21466248865E+02  0.52511522591E+02  0.65297666862E+02  0.47000000000E+01 0.  1.
         -5    1    1    2    0  502 -0.10565388036E+03  0.97150638263E+01  0.11114785667E+03  0.15373048150E+03  0.47000000000E+01 0.  1.
        -11    1    3    3    0    0  0.89247309401E+02  0.25147249832E+02 -0.50835687704E+02  0.10574371638E+03  0.00000000000E+00 0.  1.
         11    1    3    3    0    0 -0.15584606769E+02 -0.13396064793E+02 -0.32925615950E+02  0.38812764727E+02  0.00000000000E+00 0. -1.
<mgrwt>
<rscale>  0 0.13806769E+03</rscale>
<asrwt>0</asrwt>
<pdfrwt beam="1">  1        1 0.34114054E-01 0.14556420E+03</pdfrwt>
<pdfrwt beam="2">  1       -1 0.21822043E-01 0.14556420E+03</pdfrwt>
<totfact> 0.21947414E+03</totfact>
</mgrwt>
</event>
<event>
 7    1  0.1422977E-005  0.1522405E+03  0.7546771E-02  0.1206471E+00
         -2   -1    0    0    0  501 -0.00000000000E+00  0.00000000000E+00  0.10558266485E+03  0.10558266485E+03  0.00000000000E+00 0.  1.
          2   -1    0    0  501    0  0.00000000000E+00 -0.00000000000E+00 -0.20038875364E+03  0.20038875364E+03  0.00000000000E+00 0. -1.
         23    2    1    2    0    0  0.58934518632E+02  0.63860117121E+02  0.10807868800E+01  0.12605066558E+03  0.91302848520E+02 0.  0.
          5    1    1    2  502    0 -0.11976034778E+02 -0.32264982992E+01 -0.10198518524E+03  0.10284407474E+03  0.47000000000E+01 0.  1.
         -5    1    1    2    0  502 -0.46958483854E+02 -0.60633618822E+02  0.60983095759E+01  0.77076678165E+02  0.47000000000E+01 0.  1.
        -11    1    3    3    0    0  0.72668014474E+01  0.72816159968E+02 -0.45014863202E+01  0.73316184672E+02  0.00000000000E+00 0.  1.
         11    1    3    3    0    0  0.51667717184E+02 -0.89560428472E+01  0.55822732002E+01  0.52734480908E+02  0.00000000000E+00 0. -1.
<mgrwt>
<rscale>  0 0.14522121E+03</rscale>
<asrwt>0</asrwt>
<pdfrwt beam="2">  1        2 0.30829039E-01 0.15224055E+03</pdfrwt>
<pdfrwt beam="1">  1       -2 0.16243487E-01 0.15224055E+03</pdfrwt>
<totfact> 0.49093499E+03</totfact>
</mgrwt>
</event>
<event>
 7    1  0.1422977E-005  0.1296828E+03  0.7546771E-02  0.1237113E+00
         -2   -1    0    0    0  501 -0.00000000000E+00  0.00000000000E+00  0.51381030520E+02  0.51381030520E+02  0.00000000000E+00 0.  1.
          2   -1    0    0  501    0  0.00000000000E+00 -0.00000000000E+00 -0.27363411091E+03  0.27363411091E+03  0.00000000000E+00 0. -1.
         23    2    1    2    0    0  0.94962088286E+01  0.33174173364E+02 -0.95943631873E+02  0.14398557814E+03  0.10166593556E+03 0.  0.
          5    1    1    2  502    0  0.35245696574E+02 -0.47622914611E+02 -0.16801529702E+02  0.61762306655E+02  0.47000000000E+01 0. -1.
         -5    1    1    2    0  502 -0.44741905402E+02  0.14448741248E+02 -0.10950791881E+03  0.11926725664E+03  0.47000000000E+01 0. -1.
        -11    1    3    3    0    0 -0.20180297698E+02 -0.95363643832E+01  0.11135978855E+02  0.24943870708E+02  0.00000000000E+00 0.  1.
         11    1    3    3    0    0  0.29676506527E+02  0.42710537747E+02 -0.10707961073E+03  0.11904170743E+03  0.00000000000E+00 0. -1.
<mgrwt>
<rscale>  0 0.12370143E+03</rscale>
<asrwt>0</asrwt>
<pdfrwt beam="2">  1        2 0.42097556E-01 0.12968279E+03</pdfrwt>
<pdfrwt beam="1">  1       -2 0.79047739E-02 0.12968279E+03</pdfrwt>
<totfact> 0.10950116E+04</totfact>
</mgrwt>
</event>
<event>
 7    1  0.1422977E-005  0.1417186E+03  0.7546771E-02  0.1221167E+00
          1   -1    0    0  501    0  0.00000000000E+00  0.00000000000E+00  0.72962032484E+03  0.72962032484E+03  0.00000000000E+00 0. -1.
         -1   -1    0    0    0  501 -0.00000000000E+00 -0.00000000000E+00 -0.22603374019E+02  0.22603374019E+02  0.00000000000E+00 0.  1.
         23    2    1    2    0    0 -0.67586281070E+01  0.66424133394E+02  0.28797279550E+03  0.30986391761E+03  0.92894951103E+02 0.  0.
          5    1    1    2  502    0  0.23383928972E+02 -0.10000105775E+03  0.32990370036E+03  0.34555109781E+03  0.47000000000E+01 0.  1.
         -5    1    1    2    0  502 -0.16625300865E+02  0.33576924356E+02  0.89140454965E+02  0.96808683440E+02  0.47000000000E+01 0.  1.
        -11    1    3    3    0    0 -0.17896292198E+02  0.18331395474E+01  0.40055144208E+01  0.18430459050E+02  0.00000000000E+00 0.  1.
         11    1    3    3    0    0  0.11137664091E+02  0.64590993846E+02  0.28396728108E+03  0.29143345856E+03  0.00000000000E+00 0. -1.
<mgrwt>
<rscale>  0 0.13433109E+03</rscale>
<asrwt>0</asrwt>
<pdfrwt beam="1">  1        1 0.11224926E+00 0.14171864E+03</pdfrwt>
<pdfrwt beam="2">  1       -1 0.34774427E-02 0.14171864E+03</pdfrwt>
<totfact> 0.77525031E+03</totfact>
</mgrwt>
</event>
<event>
 7    1  0.1422977E-005  0.1412137E+03  0.7546771E-02  0.1222260E+00
          2   -1    0    0  501    0  0.00000000000E+00  0.00000000000E+00  0.13047199716E+04  0.13047199716E+04  0.00000000000E+00 0.  1.
         -2   -1    0    0    0  501 -0.00000000000E+00 -0.00000000000E+00 -0.18135919536E+02  0.18135919536E+02  0.00000000000E+00 0. -1.
         23    2    1    2    0    0 -0.48333765976E+02 -0.44502130204E+02  0.22365257967E+03  0.25058511637E+03  0.91955595938E+02 0.  0.
          5    1    1    2  502    0  0.19867310219E+01  0.25010139163E+02  0.36178411965E+02  0.44276649076E+02  0.47000000000E+01 0.  1.
         -5    1    1    2    0  502  0.46347034955E+02  0.19491991041E+02  0.10267530604E+04  0.10279941257E+04  0.47000000000E+01 0.  1.
        -11    1    3    3    0    0  0.59078383557E+01 -0.54252722824E+02  0.81116788303E+02  0.97766015734E+02  0.00000000000E+00 0.  1.
         11    1    3    3    0    0 -0.54241604332E+02  0.97505926206E+01  0.14253579137E+03  0.15281910063E+03  0.00000000000E+00 0. -1.
<mgrwt>
<rscale>  0 0.13356471E+03</rscale>
<asrwt>0</asrwt>
<pdfrwt beam="1">  1        2 0.20072607E+00 0.14121367E+03</pdfrwt>
<pdfrwt beam="2">  1       -2 0.27901425E-02 0.14121367E+03</pdfrwt>
<totfact> 0.80359359E+03</totfact>
</mgrwt>
</event>
<event>
 7    1  0.1462782E-005  0.1510955E+03  0.7546771E-02  0.1208019E+00
         -1   -1    0    0    0  501 -0.00000000000E+00  0.00000000000E+00  0.64949330020E+02  0.64949330020E+02  0.00000000000E+00 0.  1.
          1   -1    0    0  501    0  0.00000000000E+00 -0.00000000000E+00 -0.33482803039E+03  0.33482803039E+03  0.00000000000E+00 0. -1.
         23    2    1    2    0    0  0.83331573119E+02  0.16157931628E+02 -0.53141821870E+02  0.13557151519E+03  0.91380264099E+02 0.  0.
          5    1    1    2  502    0 -0.11005542386E+02 -0.20557051250E+02  0.10240059292E+02  0.25897164586E+02  0.47000000000E+01 0. -1.
         -5    1    1    2    0  502 -0.72326030733E+02  0.43991196221E+01 -0.22697693779E+03  0.23830868063E+03  0.47000000000E+01 0. -1.
        -11    1    3    3    0    0  0.42542671252E+02  0.48167541807E+02 -0.44106004194E+01  0.64416180864E+02  0.00000000000E+00 0.  1.
         11    1    3    3    0    0  0.40788901866E+02 -0.32009610179E+02 -0.48731221450E+02  0.71155334328E+02  0.00000000000E+00 0. -1.
<mgrwt>
<rscale>  0 0.14402055E+03</rscale>
<asrwt>0</asrwt>
<pdfrwt beam="2">  1        1 0.51512005E-01 0.15109551E+03</pdfrwt>
<pdfrwt beam="1">  1       -1 0.99922045E-02 0.15109551E+03</pdfrwt>
<totfact> 0.44973345E+03</totfact>
</mgrwt>
</event>
<event>
 7    1  0.1422977E-005  0.1279040E+03  0.7546771E-02  0.1238361E+00
         -2   -1    0    0    0  501 -0.00000000000E+00  0.00000000000E+00  0.31119628307E+02  0.31119628307E+02  0.00000000000E+00 0.  1.
          2   -1    0    0  501    0  0.00000000000E+00 -0.00000000000E+00 -0.45188989980E+03  0.45188989980E+03  0.00000000000E+00 0. -1.
         23    2    1    2    0    0  0.55921873368E+02  0.23637138460E+02 -0.20297532612E+03  0.23043463473E+03  0.90637561947E+02 0.  0.
          5    1    1    2  502    0 -0.16606905591E+02  0.10153127343E+02 -0.19453213525E+03  0.19556000857E+03  0.47000000000E+01 0. -1.
         -5    1    1    2    0  502 -0.39314967777E+02 -0.33790265803E+02 -0.23262810128E+02  0.57014884805E+02  0.47000000000E+01 0.  1.
        -11    1    3    3    0    0 -0.99886164902E+01 -0.24516911966E+02 -0.37273013959E+02  0.45717928664E+02  0.00000000000E+00 0.  1.
         11    1    3    3    0    0  0.65910489858E+02  0.48154050426E+02 -0.16570231216E+03  0.18471670607E+03  0.00000000000E+00 0. -1.
<mgrwt>
<rscale>  0 0.12291693E+03</rscale>
<asrwt>0</asrwt>
<pdfrwt beam="2">  1        2 0.69521518E-01 0.12790402E+03</pdfrwt>
<pdfrwt beam="1">  1       -2 0.47876355E-02 0.12790402E+03</pdfrwt>
<totfact> 0.13731256E+04</totfact>
</mgrwt>
</event>
<event>
 7    1  0.1422977E-005  0.1500041E+03  0.7546771E-02  0.1216317E+00
         -2   -1    0    0    0  501 -0.00000000000E+00  0.00000000000E+00  0.81872531607E+02  0.81872531607E+02  0.00000000000E+00 0.  1.
          2   -1    0    0  501    0  0.00000000000E+00 -0.00000000000E+00 -0.33553042064E+03  0.33553042064E+03  0.00000000000E+00 0. -1.
         23    2    1    2    0    0  0.69268473297E+02 -0.45586726189E+02  0.16784159400E+02  0.10814554514E+03  0.67360818954E+02 0.  0.
          5    1    1    2  502    0 -0.14333461153E+02 -0.32645423472E+02 -0.15589153346E+03  0.15998572432E+03  0.47000000000E+01 0.  1.
         -5    1    1    2    0  502 -0.54935012144E+02  0.78232149661E+02 -0.11455051497E+03  0.14927168278E+03  0.47000000000E+01 0.  1.
        -11    1    3    3    0    0  0.48832920961E+02 -0.35560079993E+02 -0.21067470123E+02  0.63976650085E+02  0.00000000000E+00 0. -1.
         11    1    3    3    0    0  0.20435552335E+02 -0.10026646196E+02  0.37851629523E+02  0.44168895059E+02  0.00000000000E+00 0.  1.
<mgrwt>
<rscale>  0 0.13780215E+03</rscale>
<asrwt>0</asrwt>
<pdfrwt beam="2">  1        2 0.51620064E-01 0.15000414E+03</pdfrwt>
<pdfrwt beam="1">  1       -2 0.12595774E-01 0.15000414E+03</pdfrwt>
<totfact> 0.42786597E+03</totfact>
</mgrwt>
</event>
<event>
 7    1  0.1422977E-005  0.1751389E+03  0.7546771E-02  0.1178520E+00
          1   -1    0    0  501    0  0.00000000000E+00  0.00000000000E+00  0.19798507948E+03  0.19798507948E+03  0.00000000000E+00 0. -1.
         -1   -1    0    0    0  501 -0.00000000000E+00 -0.00000000000E+00 -0.15016730847E+03  0.15016730847E+03  0.00000000000E+00 0.  1.
         23    2    1    2    0    0  0.93770030718E+02 -0.79094665387E+02 -0.30766778591E+02  0.15619098364E+03  0.91652844762E+02 0.  0.
          5    1    1    2  502    0 -0.42843936057E+02  0.26111550942E+02  0.10276309504E+03  0.11445418145E+03  0.47000000000E+01 0. -1.
         -5    1    1    2    0  502 -0.50926094661E+02  0.52983114444E+02 -0.24178545441E+02  0.77507222846E+02  0.47000000000E+01 0. -1.
        -11    1    3    3    0    0  0.54408020998E+02 -0.86853318449E+01 -0.48724848367E+02  0.73551197044E+02  0.00000000000E+00 0.  1.
         11    1    3    3    0    0  0.39362009720E+02 -0.70409333542E+02  0.17958069777E+02  0.82639786599E+02  0.00000000000E+00 0. -1.
<mgrwt>
<rscale>  0 0.16935680E+03</rscale>
<asrwt>0</asrwt>
<pdfrwt beam="1">  1        1 0.30459243E-01 0.17513894E+03</pdfrwt>
<pdfrwt beam="2">  1       -1 0.23102663E-01 0.17513894E+03</pdfrwt>
<totfact> 0.23190010E+03</totfact>
</mgrwt>
</event>
<event>
 7    1  0.1422977E-005  0.1688409E+03  0.7546771E-02  0.1185991E+00
         -1   -1    0    0    0  501 -0.00000000000E+00  0.00000000000E+00  0.33388665009E+03  0.33388665009E+03  0.00000000000E+00 0.  1.
          1   -1    0    0  501    0  0.00000000000E+00 -0.00000000000E+00 -0.73615238056E+02  0.73615238056E+02  0.00000000000E+00 0. -1.
         23    2    1    2    0    0 -0.25869503622E+02  0.11050818713E+03  0.12584408833E+03  0.19168263688E+03  0.89577944121E+02 0.  0.
          5    1    1    2  502    0  0.57750373496E+01  0.21459743060E+02  0.57162479208E+02  0.61510248397E+02  0.47000000000E+01 0. -1.
         -5    1    1    2    0  502  0.20094466273E+02 -0.13196793019E+03  0.77264844498E+02  0.15430900287E+03  0.47000000000E+01 0. -1.
        -11    1    3    3    0    0 -0.13450835083E+01  0.73432521255E+02  0.18855439389E+02  0.75826591787E+02  0.00000000000E+00 0. -1.
         11    1    3    3    0    0 -0.24524420114E+02  0.37075665872E+02  0.10698864894E+03  0.11585604509E+03  0.00000000000E+00 0.  1.
<mgrwt>
<rscale>  0 0.16242048E+03</rscale>
<asrwt>0</asrwt>
<pdfrwt beam="2">  1        1 0.11325421E-01 0.16884088E+03</pdfrwt>
<pdfrwt beam="1">  1       -1 0.51367176E-01 0.16884088E+03</pdfrwt>
<totfact> 0.20776788E+03</totfact>
</mgrwt>
</event>
<event>
 7    1  0.1422977E-005  0.1191991E+03  0.7546771E-02  0.1255008E+00
          2   -1    0    0  501    0  0.00000000000E+00  0.00000000000E+00  0.10762049868E+03  0.10762049868E+03  0.00000000000E+00 0. -1.
         -2   -1    0    0    0  501 -0.00000000000E+00 -0.00000000000E+00 -0.13828714652E+03  0.13828714652E+03  0.00000000000E+00 0.  1.
         23    2    1    2    0    0  0.21492612871E+01 -0.29450433461E+02 -0.71313303611E+02  0.11996890167E+03  0.91842270994E+02 0.  0.
          5    1    1    2  502    0 -0.16465283644E+02  0.52423040088E+02  0.67742087231E+02  0.87351938044E+02  0.47000000000E+01 0. -1.
         -5    1    1    2    0  502  0.14316022357E+02 -0.22972606627E+02 -0.27095431457E+02  0.38586805480E+02  0.47000000000E+01 0.  1.
        -11    1    3    3    0    0 -0.21160583728E+02 -0.54087408953E+02 -0.61657768316E+02  0.84704772620E+02  0.00000000000E+00 0.  1.
         11    1    3    3    0    0  0.23309845015E+02  0.24636975491E+02 -0.96555352957E+01  0.35264129052E+02  0.00000000000E+00 0. -1.
<mgrwt>
<rscale>  0 0.11305911E+03</rscale>
<asrwt>0</asrwt>
<pdfrwt beam="1">  1        2 0.16557000E-01 0.11919906E+03</pdfrwt>
<pdfrwt beam="2">  1       -2 0.21274946E-01 0.11919906E+03</pdfrwt>
<totfact> 0.61503250E+03</totfact>
</mgrwt>
</event>
<event>
 7    1  0.1422977E-005  0.1251308E+03  0.7546771E-02  0.1268487E+00
         -2   -1    0    0    0  501 -0.00000000000E+00  0.00000000000E+00  0.24277360895E+02  0.24277360895E+02  0.00000000000E+00 0.  1.
          2   -1    0    0  501    0  0.00000000000E+00 -0.00000000000E+00 -0.43304528092E+03  0.43304528092E+03  0.00000000000E+00 0. -1.
         23    2    1    2    0    0 -0.56701526061E+01  0.76698914140E+00 -0.63923514938E+02  0.90477477801E+02  0.63774754600E+02 0.  0.
          5    1    1    2  502    0  0.11141915136E+02 -0.39261725049E+02 -0.33394648569E+02  0.52942590415E+02  0.47000000000E+01 0. -1.
         -5    1    1    2    0  502 -0.54717625302E+01  0.38494735908E+02 -0.31144975652E+03  0.31390257360E+03  0.47000000000E+01 0. -1.
        -11    1    3    3    0    0  0.36566178346E+00  0.24085053340E+02 -0.61763260400E+02  0.66294221756E+02  0.00000000000E+00 0. -1.
         11    1    3    3    0    0 -0.60358143895E+01 -0.23318064198E+02 -0.21602545378E+01  0.24183256046E+02  0.00000000000E+00 0.  1.
<mgrwt>
<rscale>  0 0.10583286E+03</rscale>
<asrwt>0</asrwt>
<pdfrwt beam="2">  1        2 0.66622352E-01 0.12513077E+03</pdfrwt>
<pdfrwt beam="1">  1       -2 0.37349785E-02 0.12513077E+03</pdfrwt>
<totfact> 0.20756851E+04</totfact>
</mgrwt>
</event>
<event>
 7    1  0.1422977E-005  0.2359823E+03  0.7546771E-02  0.1122499E+00
          2   -1    0    0  501    0  0.00000000000E+00  0.00000000000E+00  0.58305192569E+03  0.58305192569E+03  0.00000000000E+00 0. -1.
         -2   -1    0    0    0  501 -0.00000000000E+00 -0.00000000000E+00 -0.23877648776E+02  0.23877648776E+02  0.00000000000E+00 0.  1.
         23    2    1    2    0    0  0.86896116428E+01 -0.22727805392E+01  0.24901237222E+03  0.26772772255E+03  0.97930061877E+02 0.  0.
          5    1    1    2  502    0  0.22911999130E+02 -0.46975061381E+02  0.24883209357E+03  0.25430516488E+03  0.47000000000E+01 0. -1.
         -5    1    1    2    0  502 -0.31601610773E+02  0.49247841920E+02  0.61329811121E+02  0.84896687034E+02  0.47000000000E+01 0.  1.
        -11    1    3    3    0    0  0.22709238480E+02  0.43974572322E+02  0.13976577146E+03  0.14826983306E+03  0.00000000000E+00 0.  1.
         11    1    3    3    0    0 -0.14019626837E+02 -0.46247352861E+02  0.10924660076E+03  0.11945788949E+03  0.00000000000E+00 0. -1.
<mgrwt>
<rscale>  0 0.23598228E+03</rscale>
<asrwt>0</asrwt>
<pdfrwt beam="1">  1        2 0.89700285E-01 0.23598228E+03</pdfrwt>
<pdfrwt beam="2">  1       -2 0.36734849E-02 0.23598228E+03</pdfrwt>
<totfact> 0.16067456E+04</totfact>
</mgrwt>
</event>
<event>
 7    1  0.1422977E-005  0.2292163E+03  0.7546771E-02  0.1130158E+00
         -2   -1    0    0    0  501 -0.00000000000E+00  0.00000000000E+00  0.46247615690E+03  0.46247615690E+03  0.00000000000E+00 0.  1.
          2   -1    0    0  501    0  0.00000000000E+00 -0.00000000000E+00 -0.10790410695E+03  0.10790410695E+03  0.00000000000E+00 0. -1.
         23    2    1    2    0    0 -0.16518231899E+03  0.98135352091E+02  0.21122838993E+03  0.30003322881E+03  0.92123611735E+02 0.  0.
          5    1    1    2  502    0 -0.12477489428E+02 -0.21946556028E+02  0.48716437608E+02  0.55070140340E+02  0.47000000000E+01 0. -1.
         -5    1    1    2    0  502  0.17765980842E+03 -0.76188796063E+02  0.94627222404E+02  0.21527689470E+03  0.47000000000E+01 0. -1.
        -11    1    3    3    0    0 -0.11783281158E+03  0.68851124989E+02  0.20172726850E+03  0.24355479826E+03  0.00000000000E+00 0.  1.
         11    1    3    3    0    0 -0.47349507409E+02  0.29284227102E+02  0.95011214274E+01  0.56478430548E+02  0.00000000000E+00 0. -1.
<mgrwt>
<rscale>  0 0.22507078E+03</rscale>
<asrwt>0</asrwt>
<pdfrwt beam="2">  1        2 0.16600632E-01 0.22921631E+03</pdfrwt>
<pdfrwt beam="1">  1       -2 0.71150177E-01 0.22921631E+03</pdfrwt>
<totfact> 0.63504937E+02</totfact>
</mgrwt>
</event>
<event>
 7    1  0.1422977E-005  0.1404586E+03  0.7546771E-02  0.1223816E+00
         -1   -1    0    0    0  501 -0.00000000000E+00  0.00000000000E+00  0.20406176141E+02  0.20406176141E+02  0.00000000000E+00 0.  1.
          1   -1    0    0  501    0  0.00000000000E+00 -0.00000000000E+00 -0.11124527855E+04  0.11124527855E+04  0.00000000000E+00 0. -1.
         23    2    1    2    0    0 -0.36536496439E+02  0.52624198549E+02 -0.19156183045E+03  0.22148557335E+03  0.90860896276E+02 0.  0.
          5    1    1    2  502    0  0.35806905182E+01 -0.81154560649E+02 -0.35850321678E+03  0.36762145000E+03  0.47000000000E+01 0. -1.
         -5    1    1    2    0  502  0.32955805921E+02  0.28530362100E+02 -0.54198156213E+03  0.54375193829E+03  0.47000000000E+01 0. -1.
        -11    1    3    3    0    0  0.18438658403E+02  0.51216845581E+02 -0.75751403891E+02  0.93281426803E+02  0.00000000000E+00 0.  1.
         11    1    3    3    0    0 -0.54975154842E+02  0.14073529686E+01 -0.11581042656E+03  0.12820414655E+03  0.00000000000E+00 0. -1.
<mgrwt>
<rscale>  0 0.13248393E+03</rscale>
<asrwt>0</asrwt>
<pdfrwt beam="2">  1        1 0.17114658E+00 0.14045859E+03</pdfrwt>
<pdfrwt beam="1">  1       -1 0.31394118E-02 0.14045859E+03</pdfrwt>
<totfact> 0.45709570E+03</totfact>
</mgrwt>
</event>
<event>
 7    1  0.1422977E-005  0.1627789E+03  0.7546771E-02  0.1192821E+00
         -2   -1    0    0    0  501 -0.00000000000E+00  0.00000000000E+00  0.18230940551E+02  0.18230940551E+02  0.00000000000E+00 0.  1.
          2   -1    0    0  501    0  0.00000000000E+00 -0.00000000000E+00 -0.12486210121E+04  0.12486210121E+04  0.00000000000E+00 0. -1.
         23    2    1    2    0    0 -0.44209662742E+02 -0.94434005185E+02 -0.59169627447E+03  0.60774139850E+03  0.91503281990E+02 0.  0.
          5    1    1    2  502    0  0.78294351840E+02  0.21775323352E+02 -0.28514403838E+03  0.29653563506E+03  0.47000000000E+01 0. -1.
         -5    1    1    2    0  502 -0.34084689098E+02  0.72658681833E+02 -0.35354975872E+03  0.36257491911E+03  0.47000000000E+01 0. -1.
        -11    1    3    3    0    0  0.25231349866E+02 -0.45992826984E+02 -0.27271428389E+03  0.27771395677E+03  0.00000000000E+00 0. -1.
         11    1    3    3    0    0 -0.69441012609E+02 -0.48441178201E+02 -0.31898199058E+03  0.33002744173E+03  0.00000000000E+00 0.  1.
<mgrwt>
<rscale>  0 0.15640066E+03</rscale>
<asrwt>0</asrwt>
<pdfrwt beam="2">  1        2 0.19209552E+00 0.16277886E+03</pdfrwt>
<pdfrwt beam="1">  1       -2 0.28047604E-02 0.16277886E+03</pdfrwt>
<totfact> 0.86058994E+03</totfact>
</mgrwt>
</event>
<event>
 7    1  0.1422977E-005  0.1537549E+03  0.7546771E-02  0.1215497E+00
          2   -1    0    0  501    0  0.00000000000E+00  0.00000000000E+00  0.90759733517E+03  0.90759733517E+03  0.00000000000E+00 0. -1.
         -2   -1    0    0    0  501 -0.00000000000E+00 -0.00000000000E+00 -0.23856358938E+02  0.23856358938E+02  0.00000000000E+00 0.  1.
         23    2    1    2    0    0 -0.30630402867E+01 -0.39761955388E+02  0.14370207277E+03  0.17561101842E+03  0.92728360062E+02 0.  0.
          5    1    1    2  502    0 -0.56195432794E+02  0.31614320026E+01  0.55842953505E+03  0.56127850212E+03  0.47000000000E+01 0. -1.
         -5    1    1    2    0  502  0.59258473080E+02  0.36600523385E+02  0.18160936841E+03  0.19456417357E+03  0.47000000000E+01 0.  1.
        -11    1    3    3    0    0  0.38277197358E+02 -0.40568001948E+02  0.58061108996E+02  0.80510862605E+02  0.00000000000E+00 0.  1.
         11    1    3    3    0    0 -0.41340237645E+02  0.80604655957E+00  0.85640963775E+02  0.95100155815E+02  0.00000000000E+00 0. -1.
<mgrwt>
<rscale>  0 0.13840057E+03</rscale>
<asrwt>0</asrwt>
<pdfrwt beam="1">  1        2 0.13963033E+00 0.15375491E+03</pdfrwt>
<pdfrwt beam="2">  1       -2 0.36702098E-02 0.15375491E+03</pdfrwt>
<totfact> 0.91236130E+03</totfact>
</mgrwt>
</event>
<event>
 7    1  0.1422977E-005  0.3649338E+03  0.7546771E-02  0.1071607E+00
         -2   -1    0    0    0  501 -0.00000000000E+00  0.00000000000E+00  0.19291663547E+03  0.19291663547E+03  0.00000000000E+00 0.  1.
          2   -1    0    0  501    0  0.00000000000E+00 -0.00000000000E+00 -0.48693554820E+03  0.48693554820E+03  0.00000000000E+00 0. -1.
         23    2    1    2    0    0 -0.13504481748E+03  0.17752494751E+03 -0.66870977763E+02  0.25000006158E+03  0.90973036712E+02 0.  0.
          5    1    1    2  502    0 -0.56836605494E+01 -0.15052475010E+03 -0.24265274943E+03  0.28564392378E+03  0.47000000000E+01 0. -1.
         -5    1    1    2    0  502  0.14072847803E+03 -0.27000197412E+02  0.15504814463E+02  0.14420819831E+03  0.47000000000E+01 0.  1.
        -11    1    3    3    0    0  0.12057142518E+02  0.22454293199E+02  0.16577820480E+01  0.25540520944E+02  0.00000000000E+00 0. -1.
         11    1    3    3    0    0 -0.14710195999E+03  0.15507065431E+03 -0.68528759811E+02  0.22445954064E+03  0.00000000000E+00 0.  1.
<mgrwt>
<rscale>  0 0.32893912E+03</rscale>
<asrwt>0</asrwt>
<pdfrwt beam="2">  1        2 0.74913161E-01 0.36493378E+03</pdfrwt>
<pdfrwt beam="1">  1       -2 0.29679483E-01 0.36493378E+03</pdfrwt>
<totfact> 0.67066572E+02</totfact>
</mgrwt>
</event>
<event>
 7    1  0.1422977E-005  0.1945123E+03  0.7546771E-02  0.1158858E+00
          1   -1    0    0  501    0  0.00000000000E+00  0.00000000000E+00  0.68776059916E+02  0.68776059916E+02  0.00000000000E+00 0. -1.
         -1   -1    0    0    0  501 -0.00000000000E+00 -0.00000000000E+00 -0.50326236270E+03  0.50326236270E+03  0.00000000000E+00 0.  1.
         23    2    1    2    0    0  0.11571360035E+03 -0.93918793090E+02 -0.23667474160E+03  0.29461375773E+03  0.92584858009E+02 0.  0.
          5    1    1    2  502    0 -0.42715675594E+01  0.18821333901E+02 -0.12089157503E+03  0.12251265980E+03  0.47000000000E+01 0.  1.
         -5    1    1    2    0  502 -0.11144203279E+03  0.75097459190E+02 -0.76919986158E+02  0.15491200508E+03  0.47000000000E+01 0.  1.
        -11    1    3    3    0    0  0.75727255586E+02 -0.10669124314E+03 -0.19931199351E+03  0.23841751059E+03  0.00000000000E+00 0.  1.
         11    1    3    3    0    0  0.39986344760E+02  0.12772450047E+02 -0.37362748087E+02  0.56196247135E+02  0.00000000000E+00 0. -1.
<mgrwt>
<rscale>  0 0.18956056E+03</rscale>
<asrwt>0</asrwt>
<pdfrwt beam="1">  1        1 0.10580933E-01 0.19451229E+03</pdfrwt>
<pdfrwt beam="2">  1       -1 0.77424977E-01 0.19451229E+03</pdfrwt>
<totfact> 0.10309571E+03</totfact>
</mgrwt>
</event>
<event>
 7    1  0.1422977E-005  0.1459713E+03  0.7546771E-02  0.1232444E+00
         -2   -1    0    0    0  501 -0.00000000000E+00  0.00000000000E+00  0.33112591488E+02  0.33112591488E+02  0.00000000000E+00 0.  1.
          2   -1    0    0  501    0  0.00000000000E+00 -0.00000000000E+00 -0.63261577388E+03  0.63261577388E+03  0.00000000000E+00 0. -1.
         23    2    1    2    0    0 -0.73130444105E+00  0.27952681223E+02 -0.49098129460E+02  0.96295880488E+02  0.77976811224E+02 0.  0.
          5    1    1    2  502    0  0.62841083781E+02 -0.10285347406E+02 -0.40844006942E+03  0.41340073838E+03  0.47000000000E+01 0. -1.
         -5    1    1    2    0  502 -0.62109779340E+02 -0.17667333817E+02 -0.14196498351E+03  0.15603174651E+03  0.47000000000E+01 0.  1.
        -11    1    3    3    0    0  0.38602270808E+02  0.15172656268E+02 -0.25062500108E+02  0.48461053655E+02  0.00000000000E+00 0. -1.
         11    1    3    3    0    0 -0.39333575249E+02  0.12780024956E+02 -0.24035629353E+02  0.47834826832E+02  0.00000000000E+00 0.  1.
<mgrwt>
<rscale>  0 0.12669491E+03</rscale>
<asrwt>0</asrwt>
<pdfrwt beam="2">  1        2 0.97325503E-01 0.14597134E+03</pdfrwt>
<pdfrwt beam="1">  1       -2 0.50942449E-02 0.14597134E+03</pdfrwt>
<totfact> 0.86813112E+03</totfact>
</mgrwt>
</event>
<event>
 7    1  0.1422977E-005  0.1253581E+03  0.7546771E-02  0.1250511E+00
         -1   -1    0    0    0  501 -0.00000000000E+00  0.00000000000E+00  0.36940496898E+02  0.36940496898E+02  0.00000000000E+00 0.  1.
          1   -1    0    0  501    0  0.00000000000E+00 -0.00000000000E+00 -0.33630897632E+03  0.33630897632E+03  0.00000000000E+00 0. -1.
         23    2    1    2    0    0  0.61160118200E+01 -0.72412083431E+01 -0.81733404591E+02  0.12209279636E+03  0.90202332549E+02 0.  0.
          5    1    1    2  502    0  0.38239030777E+02 -0.17709036452E+02 -0.18661570077E+03  0.19137226346E+03  0.47000000000E+01 0.  1.
         -5    1    1    2    0  502 -0.44355042597E+02  0.24950244795E+02 -0.31019374066E+02  0.59784413408E+02  0.47000000000E+01 0.  1.
        -11    1    3    3    0    0 -0.27764783591E+02  0.27366127029E+02 -0.52952517631E+02  0.65755282981E+02  0.00000000000E+00 0.  1.
         11    1    3    3    0    0  0.33880795411E+02 -0.34607335372E+02 -0.28780886960E+02  0.56337513376E+02  0.00000000000E+00 0. -1.
<mgrwt>
<rscale>  0 0.11561518E+03</rscale>
<asrwt>0</asrwt>
<pdfrwt beam="2">  1        1 0.51739842E-01 0.12535809E+03</pdfrwt>
<pdfrwt beam="1">  1       -1 0.56831534E-02 0.12535809E+03</pdfrwt>
<totfact> 0.10334942E+04</totfact>
</mgrwt>
</event>
<event>
 7    1  0.1642402E-005  0.1837560E+03  0.7546771E-02  0.1169367E+00
          3   -1    0    0  501    0  0.00000000000E+00  0.00000000000E+00  0.15515510549E+03  0.15515510549E+03  0.00000000000E+00 0. -1.
         -3   -1    0    0    0  501 -0.00000000000E+00 -0.00000000000E+00 -0.20306567397E+03  0.20306567397E+03  0.00000000000E+00 0.  1.
         23    2    1    2    0    0  0.13468434574E+03 -0.10459950192E+01 -0.60391943731E+02  0.17404138032E+03  0.92207635816E+02 0.  0.
          5    1    1    2  502    0 -0.16414522444E+02 -0.50486501750E+02  0.13894586211E+02  0.55076972793E+02  0.47000000000E+01 0.  1.
         -5    1    1    2    0  502 -0.11826982329E+03  0.51532496769E+02 -0.14132109674E+01  0.12910242635E+03  0.47000000000E+01 0.  1.
        -11    1    3    3    0    0  0.10880243708E+03  0.22966500881E+02 -0.76765907839E+02  0.13512377690E+03  0.00000000000E+00 0.  1.
         11    1    3    3    0    0  0.25881908654E+02 -0.24012495901E+02  0.16373964108E+02  0.38917603415E+02  0.00000000000E+00 0. -1.
<mgrwt>
<rscale>  0 0.17839368E+03</rscale>
<asrwt>0</asrwt>
<pdfrwt beam="1">  1        3 0.23870016E-01 0.18375600E+03</pdfrwt>
<pdfrwt beam="2">  1       -3 0.31240873E-01 0.18375600E+03</pdfrwt>
<totfact> 0.39308577E+02</totfact>
</mgrwt>
</event>
<event>
 7    1  0.1422977E-005  0.1570178E+03  0.7546771E-02  0.1200277E+00
         -1   -1    0    0    0  501 -0.00000000000E+00  0.00000000000E+00  0.17867237464E+02  0.17867237464E+02  0.00000000000E+00 0.  1.
          1   -1    0    0  501    0  0.00000000000E+00 -0.00000000000E+00 -0.19550600330E+04  0.19550600330E+04  0.00000000000E+00 0. -1.
         23    2    1    2    0    0 -0.84989308274E+02 -0.42620291874E+02 -0.29099832261E+03  0.31926139116E+03  0.90598787640E+02 0.  0.
          5    1    1    2  502    0  0.72814923850E+02  0.62733831302E+02 -0.15853514666E+04  0.15882691552E+04  0.47000000000E+01 0. -1.
         -5    1    1    2    0  502  0.12174384424E+02 -0.20113539429E+02 -0.60843006326E+02  0.65396724102E+02  0.47000000000E+01 0. -1.
        -11    1    3    3    0    0 -0.24572711684E+02 -0.56472306447E+02 -0.91026803232E+02  0.10990367811E+03  0.00000000000E+00 0.  1.
         11    1    3    3    0    0 -0.60416596590E+02  0.13852014573E+02 -0.19997151938E+03  0.20935771305E+03  0.00000000000E+00 0. -1.
<mgrwt>
<rscale>  0 0.15015973E+03</rscale>
<asrwt>0</asrwt>
<pdfrwt beam="2">  1        1 0.30077859E+00 0.15701783E+03</pdfrwt>
<pdfrwt beam="1">  1       -1 0.27488047E-02 0.15701783E+03</pdfrwt>
<totfact> 0.15580982E+03</totfact>
</mgrwt>
</event>
<event>
 7    1  0.1422977E-005  0.2194956E+03  0.7546771E-02  0.1134260E+00
         -3   -1    0    0    0  501 -0.00000000000E+00  0.00000000000E+00  0.29886403539E+02  0.29886403539E+02  0.00000000000E+00 0.  1.
          3   -1    0    0  501    0  0.00000000000E+00 -0.00000000000E+00 -0.40301192406E+03  0.40301192406E+03  0.00000000000E+00 0. -1.
         23    2    1    2    0    0  0.13294026934E+02 -0.45519817510E+01 -0.13430847879E+03  0.16298050566E+03  0.91249252382E+02 0.  0.
          5    1    1    2  502    0  0.13083909119E+02 -0.22213983387E+02  0.18672077502E+01  0.26272156374E+02  0.47000000000E+01 0.  1.
         -5    1    1    2    0  502 -0.26377936053E+02  0.26765965138E+02 -0.24068424948E+03  0.24364566556E+03  0.47000000000E+01 0.  1.
        -11    1    3    3    0    0 -0.27799724925E+02 -0.22778506262E+02 -0.22321912702E+02  0.42307834264E+02  0.00000000000E+00 0.  1.
         11    1    3    3    0    0  0.41093751859E+02  0.18226524511E+02 -0.11198656609E+03  0.12067267140E+03  0.00000000000E+00 0. -1.
<mgrwt>
<rscale>  0 0.21949558E+03</rscale>
<asrwt>0</asrwt>
<pdfrwt beam="2">  1        3 0.62001837E-01 0.21949558E+03</pdfrwt>
<pdfrwt beam="1">  1       -3 0.45979080E-02 0.21949558E+03</pdfrwt>
<totfact> 0.16596083E+03</totfact>
</mgrwt>
</event>
<event>
 7    1  0.1422977E-005  0.1717444E+03  0.7546771E-02  0.1182531E+00
          2   -1    0    0  501    0  0.00000000000E+00  0.00000000000E+00  0.20388901544E+03  0.20388901544E+03  0.00000000000E+00 0.  1.
         -2   -1    0    0    0  501 -0.00000000000E+00 -0.00000000000E+00 -0.12603012259E+03  0.12603012259E+03  0.00000000000E+00 0. -1.
         23    2    1    2    0    0 -0.10660090876E+03 -0.50068008833E+02  0.27358103818E+02  0.15090388424E+03  0.90293727229E+02 0.  0.
          5    1    1    2  502    0 -0.13365006506E+02  0.40977737935E+02  0.38558570515E+02  0.58022855543E+02  0.47000000000E+01 0.  1.
         -5    1    1    2    0  502  0.11996591527E+03  0.90902708982E+01  0.11942218520E+02  0.12099239825E+03  0.47000000000E+01 0.  1.
        -11    1    3    3    0    0 -0.14007144018E+02 -0.15425269445E+02 -0.30061628214E+02  0.36576502182E+02  0.00000000000E+00 0. -1.
         11    1    3    3    0    0 -0.92593764742E+02 -0.34642739388E+02  0.57419732032E+02  0.11432738206E+03  0.00000000000E+00 0.  1.
<mgrwt>
<rscale>  0 0.16558566E+03</rscale>
<asrwt>0</asrwt>
<pdfrwt beam="1">  1        2 0.31367541E-01 0.17174438E+03</pdfrwt>
<pdfrwt beam="2">  1       -2 0.19389250E-01 0.17174438E+03</pdfrwt>
<totfact> 0.36059235E+03</totfact>
</mgrwt>
</event>
<event>
 7    1  0.1422977E-005  0.1319501E+03  0.7546771E-02  0.1237070E+00
          1   -1    0    0  501    0  0.00000000000E+00  0.00000000000E+00  0.13689675620E+03  0.13689675620E+03  0.00000000000E+00 0. -1.
         -1   -1    0    0    0  501 -0.00000000000E+00 -0.00000000000E+00 -0.10047702044E+03  0.10047702044E+03  0.00000000000E+00 0.  1.
         23    2    1    2    0    0 -0.22648507323E+02  0.35703196118E+02  0.74608310857E+01  0.10228323154E+03  0.92835997093E+02 0.  0.
          5    1    1    2  502    0  0.32260900373E+02  0.21866245571E+02  0.57758754878E+02  0.69835966044E+02  0.47000000000E+01 0. -1.
         -5    1    1    2    0  502 -0.96123930496E+01 -0.57569441689E+02 -0.28799850202E+02  0.65254579059E+02  0.47000000000E+01 0. -1.
        -11    1    3    3    0    0  0.22608572610E+02  0.17372816685E+02  0.35846780674E+02  0.45803427817E+02  0.00000000000E+00 0.  1.
         11    1    3    3    0    0 -0.45257079933E+02  0.18330379433E+02 -0.28385949589E+02  0.56479803721E+02  0.00000000000E+00 0. -1.
<mgrwt>
<rscale>  0 0.12372825E+03</rscale>
<asrwt>0</asrwt>
<pdfrwt beam="1">  1        1 0.21061039E-01 0.13195013E+03</pdfrwt>
<pdfrwt beam="2">  1       -1 0.15458003E-01 0.13195013E+03</pdfrwt>
<totfact> 0.69201167E+03</totfact>
</mgrwt>
</event>
<event>
 7    1  0.1422977E-005  0.1335263E+03  0.7546771E-02  0.1235792E+00
         -4   -1    0    0    0  501 -0.00000000000E+00  0.00000000000E+00  0.14587475248E+03  0.14587475248E+03  0.00000000000E+00 0.  1.
          4   -1    0    0  501    0  0.00000000000E+00 -0.00000000000E+00 -0.95373912216E+02  0.95373912216E+02  0.00000000000E+00 0. -1.
         23    2    1    2    0    0  0.28246142453E+02 -0.37506125681E+02  0.91146856680E+01  0.10145566058E+03  0.89474127782E+02 0.  0.
          5    1    1    2  502    0  0.42525250545E+02  0.34883620309E+02 -0.43234412083E+01  0.55371888569E+02  0.47000000000E+01 0. -1.
         -5    1    1    2    0  502 -0.70771392999E+02  0.26225053718E+01  0.45709595807E+02  0.84421115547E+02  0.47000000000E+01 0. -1.
        -11    1    3    3    0    0  0.22521042842E+02 -0.59825183360E+02 -0.17477071373E+02  0.66269887268E+02  0.00000000000E+00 0. -1.
         11    1    3    3    0    0  0.57250996119E+01  0.22319057679E+02  0.26591757041E+02  0.35185773315E+02  0.00000000000E+00 0.  1.
<mgrwt>
<rscale>  0 0.12453867E+03</rscale>
<asrwt>0</asrwt>
<pdfrwt beam="2">  1        4 0.14672910E-01 0.13352629E+03</pdfrwt>
<pdfrwt beam="1">  1       -4 0.22442270E-01 0.13352629E+03</pdfrwt>
<totfact> 0.11773928E+03</totfact>
</mgrwt>
</event>
<event>
 7    1  0.1422977E-005  0.1275549E+03  0.7546771E-02  0.1245651E+00
          2   -1    0    0  501    0  0.00000000000E+00  0.00000000000E+00  0.96769571726E+03  0.96769571726E+03  0.00000000000E+00 0. -1.
         -2   -1    0    0    0  501 -0.00000000000E+00 -0.00000000000E+00 -0.15212562111E+02  0.15212562111E+02  0.00000000000E+00 0.  1.
         23    2    1    2    0    0 -0.11001686626E+02 -0.22945768474E+02  0.22294422085E+03  0.24230224181E+03  0.91425955691E+02 0.  0.
          5    1    1    2  502    0  0.51264354203E+02 -0.30750305704E+02  0.36973820352E+03  0.37456914510E+03  0.47000000000E+01 0. -1.
         -5    1    1    2    0  502 -0.40262667577E+02  0.53696074178E+02  0.35980073077E+03  0.36603689247E+03  0.47000000000E+01 0. -1.
        -11    1    3    3    0    0 -0.34192156105E+02 -0.29694520286E+02  0.21014239612E+03  0.21496672933E+03  0.00000000000E+00 0. -1.
         11    1    3    3    0    0  0.23190469478E+02  0.67487518113E+01  0.12801824732E+02  0.27335512472E+02  0.00000000000E+00 0.  1.
<mgrwt>
<rscale>  0 0.11846520E+03</rscale>
<asrwt>0</asrwt>
<pdfrwt beam="1">  1        2 0.14887622E+00 0.12755488E+03</pdfrwt>
<pdfrwt beam="2">  1       -2 0.23403949E-02 0.12755488E+03</pdfrwt>
<totfact> 0.16044583E+04</totfact>
</mgrwt>
</event>
<event>
 7    1  0.1422977E-005  0.1243036E+03  0.7546771E-02  0.1246399E+00
          2   -1    0    0  501    0  0.00000000000E+00  0.00000000000E+00  0.87826389290E+03  0.87826389290E+03  0.00000000000E+00 0. -1.
         -2   -1    0    0    0  501 -0.00000000000E+00 -0.00000000000E+00 -0.14507104561E+02  0.14507104561E+02  0.00000000000E+00 0.  1.
         23    2    1    2    0    0  0.39908848834E+02 -0.11228708890E+02  0.35983360739E+03  0.37374310087E+03  0.92113410129E+02 0.  0.
          5    1    1    2  502    0 -0.39811986714E+02 -0.30302149345E+02  0.43865476611E+03  0.44152384802E+03  0.47000000000E+01 0. -1.
         -5    1    1    2    0  502 -0.96862120099E-01  0.41530858235E+02  0.65268414834E+02  0.77504048559E+02  0.47000000000E+01 0.  1.
        -11    1    3    3    0    0 -0.16643142236E+02 -0.28139735346E+02  0.61740748169E+02  0.69862428195E+02  0.00000000000E+00 0. -1.
         11    1    3    3    0    0  0.56551991070E+02  0.16911026456E+02  0.29809285922E+03  0.30388067268E+03  0.00000000000E+00 0.  1.
<mgrwt>
<rscale>  0 0.11802048E+03</rscale>
<asrwt>0</asrwt>
<pdfrwt beam="1">  1        2 0.13511748E+00 0.12430360E+03</pdfrwt>
<pdfrwt beam="2">  1       -2 0.22318629E-02 0.12430360E+03</pdfrwt>
<totfact> 0.19496647E+04</totfact>
</mgrwt>
</event>
<event>
 7    1  0.1422977E-005  0.1693295E+03  0.7546771E-02  0.1185119E+00
          2   -1    0    0  501    0  0.00000000000E+00  0.00000000000E+00  0.18282978629E+04  0.18282978629E+04  0.00000000000E+00 0. -1.
         -2   -1    0    0    0  501 -0.00000000000E+00 -0.00000000000E+00 -0.19634799223E+02  0.19634799223E+02  0.00000000000E+00 0.  1.
         23    2    1    2    0    0  0.38758224616E+02 -0.10745279681E+03  0.34738711191E+03  0.37687865158E+03  0.91166929191E+02 0.  0.
          5    1    1    2  502    0  0.11822118588E+02  0.63255924194E+01  0.80267778011E+03  0.80280351537E+03  0.47000000000E+01 0. -1.
         -5    1    1    2    0  502 -0.50580343204E+02  0.10112720439E+03  0.65859817161E+03  0.66825049513E+03  0.47000000000E+01 0. -1.
        -11    1    3    3    0    0  0.61890307973E+02 -0.99961205623E+02  0.31608496795E+03  0.33724228652E+03  0.00000000000E+00 0. -1.
         11    1    3    3    0    0 -0.23132083357E+02 -0.74915911913E+01  0.31302143951E+02  0.39636365057E+02  0.00000000000E+00 0.  1.
<mgrwt>
<rscale>  0 0.16321083E+03</rscale>
<asrwt>0</asrwt>
<pdfrwt beam="1">  1        2 0.28127646E+00 0.16932954E+03</pdfrwt>
<pdfrwt beam="2">  1       -2 0.30207398E-02 0.16932954E+03</pdfrwt>
<totfact> 0.38240605E+03</totfact>
</mgrwt>
</event>
<event>
 7    1  0.1422977E-005  0.1610698E+03  0.7546771E-02  0.1194248E+00
          2   -1    0    0  501    0  0.00000000000E+00  0.00000000000E+00  0.17427652124E+04  0.17427652124E+04  0.00000000000E+00 0. -1.
         -2   -1    0    0    0  501 -0.00000000000E+00 -0.00000000000E+00 -0.21541873234E+02  0.21541873234E+02  0.00000000000E+00 0.  1.
         23    2    1    2    0    0  0.71917306360E+02 -0.71568900699E+02  0.26438872601E+03  0.29859545500E+03  0.94676506087E+02 0.  0.
          5    1    1    2  502    0  0.18852049610E+02  0.15397274424E+02  0.61736739894E+02  0.66528121024E+02  0.47000000000E+01 0. -1.
         -5    1    1    2    0  502 -0.90769355970E+02  0.56171626276E+02  0.13950978733E+04  0.13991835096E+04  0.47000000000E+01 0. -1.
        -11    1    3    3    0    0 -0.38216140589E+01  0.19663206712E+02  0.43607556723E+02  0.47988180166E+02  0.00000000000E+00 0. -1.
         11    1    3    3    0    0  0.75738920419E+02 -0.91232107412E+02  0.22078116928E+03  0.25060727483E+03  0.00000000000E+00 0.  1.
<mgrwt>
<rscale>  0 0.15518032E+03</rscale>
<asrwt>0</asrwt>
<pdfrwt beam="1">  1        2 0.26811761E+00 0.16106984E+03</pdfrwt>
<pdfrwt beam="2">  1       -2 0.33141357E-02 0.16106984E+03</pdfrwt>
<totfact> 0.36884994E+03</totfact>
</mgrwt>
</event>
<event>
 7    1  0.1422977E-005  0.2014370E+03  0.7546771E-02  0.1152802E+00
         -1   -1    0    0    0  501 -0.00000000000E+00  0.00000000000E+00  0.11819026526E+03  0.11819026526E+03  0.00000000000E+00 0.  1.
          1   -1    0    0  501    0  0.00000000000E+00 -0.00000000000E+00 -0.32595804303E+03  0.32595804303E+03  0.00000000000E+00 0. -1.
         23    2    1    2    0    0  0.15440091287E+02  0.15720467204E+03 -0.51549072066E+02  0.18923430577E+03  0.90557221255E+02 0.  0.
          5    1    1    2  502    0  0.18845867200E+02 -0.36695453888E+02  0.13721467566E+02  0.43727470985E+02  0.47000000000E+01 0.  1.
         -5    1    1    2    0  502 -0.34285958487E+02 -0.12050921815E+03 -0.16994017328E+03  0.21118653153E+03  0.47000000000E+01 0.  1.
        -11    1    3    3    0    0  0.14032750533E+02  0.56366953174E+02 -0.65364068720E+02  0.87444913959E+02  0.00000000000E+00 0. -1.
         11    1    3    3    0    0  0.14073407542E+01  0.10083771886E+03  0.13814996654E+02  0.10178939181E+03  0.00000000000E+00 0.  1.
<mgrwt>
<rscale>  0 0.19641229E+03</rscale>
<asrwt>0</asrwt>
<pdfrwt beam="2">  1        1 0.50147391E-01 0.20143700E+03</pdfrwt>
<pdfrwt beam="1">  1       -1 0.18183118E-01 0.20143700E+03</pdfrwt>
<totfact> 0.18412706E+03</totfact>
</mgrwt>
</event>
<event>
 7    1  0.1422977E-005  0.1414514E+03  0.7546771E-02  0.1230457E+00
         -1   -1    0    0    0  501 -0.00000000000E+00  0.00000000000E+00  0.27670954731E+02  0.27670954731E+02  0.00000000000E+00 0.  1.
          1   -1    0    0  501    0  0.00000000000E+00 -0.00000000000E+00 -0.62506451295E+03  0.62506451295E+03  0.00000000000E+00 0. -1.
         23    2    1    2    0    0  0.24015988533E+02  0.36257729424E+01 -0.11004532622E+03  0.14527433730E+03  0.91677398090E+02 0.  0.
          5    1    1    2  502    0  0.45557560309E+01 -0.65119370078E+02 -0.15529536228E+03  0.16852307503E+03  0.47000000000E+01 0. -1.
         -5    1    1    2    0  502 -0.28571744564E+02  0.61493597136E+02 -0.33205286972E+03  0.33893805535E+03  0.47000000000E+01 0.  1.
        -11    1    3    3    0    0  0.55985129677E+02  0.96897013811E+01 -0.91823535508E+02  0.10798049236E+03  0.00000000000E+00 0.  1.
         11    1    3    3    0    0 -0.31969141144E+02 -0.60639284387E+01 -0.18221790717E+02  0.37293844941E+02  0.00000000000E+00 0. -1.
<mgrwt>
<rscale>  0 0.12799810E+03</rscale>
<asrwt>0</asrwt>
<pdfrwt beam="2">  1        1 0.96163758E-01 0.14145140E+03</pdfrwt>
<pdfrwt beam="1">  1       -1 0.42570705E-02 0.14145140E+03</pdfrwt>
<totfact> 0.71689706E+03</totfact>
</mgrwt>
</event>
<event>
 7    1  0.1422977E-005  0.1284469E+03  0.7546771E-02  0.1248576E+00
         -2   -1    0    0    0  501 -0.00000000000E+00  0.00000000000E+00  0.11267741200E+02  0.11267741200E+02  0.00000000000E+00 0.  1.
          2   -1    0    0  501    0  0.00000000000E+00 -0.00000000000E+00 -0.13496172917E+04  0.13496172917E+04  0.00000000000E+00 0. -1.
         23    2    1    2    0    0 -0.25392929058E+02 -0.15165138769E+02 -0.24866113977E+03  0.26365240135E+03  0.82495115167E+02 0.  0.
          5    1    1    2  502    0  0.71179590806E+02 -0.50064145508E+01 -0.45806450549E+03  0.46361274737E+03  0.47000000000E+01 0.  1.
         -5    1    1    2    0  502 -0.45786661748E+02  0.20171553320E+02 -0.63162390523E+03  0.63361988417E+03  0.47000000000E+01 0.  1.
        -11    1    3    3    0    0 -0.25655665885E+02  0.24563146011E+02 -0.51705709650E+02  0.62729911082E+02  0.00000000000E+00 0.  1.
         11    1    3    3    0    0  0.26273682617E+00 -0.39728284780E+02 -0.19695543012E+03  0.20092249026E+03  0.00000000000E+00 0. -1.
<mgrwt>
<rscale>  0 0.11673862E+03</rscale>
<asrwt>0</asrwt>
<pdfrwt beam="2">  1        2 0.20763336E+00 0.12844694E+03</pdfrwt>
<pdfrwt beam="1">  1       -2 0.17334992E-02 0.12844694E+03</pdfrwt>
<totfact> 0.15128961E+04</totfact>
</mgrwt>
</event>
<event>
 7    1  0.1422977E-005  0.2382297E+03  0.7546771E-02  0.1123736E+00
         -1   -1    0    0    0  501 -0.00000000000E+00  0.00000000000E+00  0.13459188563E+03  0.13459188563E+03  0.00000000000E+00 0.  1.
          1   -1    0    0  501    0  0.00000000000E+00 -0.00000000000E+00 -0.45452022531E+03  0.45452022531E+03  0.00000000000E+00 0. -1.
         23    2    1    2    0    0 -0.12468886632E+03 -0.15994040263E+03 -0.47900217743E+02  0.22751471820E+03  0.91325080696E+02 0.  0.
          5    1    1    2  502    0  0.15457930813E+02 -0.13291059558E+02  0.17993045899E+00  0.20921813118E+02  0.47000000000E+01 0. -1.
         -5    1    1    2    0  502  0.10923093550E+03  0.17323146218E+03 -0.27220805240E+03  0.34067557962E+03  0.47000000000E+01 0. -1.
        -11    1    3    3    0    0 -0.10947685888E+03 -0.74734128101E+02 -0.47954956055E+02  0.14096116608E+03  0.00000000000E+00 0.  1.
         11    1    3    3    0    0 -0.15212007439E+02 -0.85206274525E+02  0.54738311711E-01  0.86553552122E+02  0.00000000000E+00 0. -1.
<mgrwt>
<rscale>  0 0.23417363E+03</rscale>
<asrwt>0</asrwt>
<pdfrwt beam="2">  1        1 0.69926187E-01 0.23822967E+03</pdfrwt>
<pdfrwt beam="1">  1       -1 0.20706444E-01 0.23822967E+03</pdfrwt>
<totfact> 0.97772033E+02</totfact>
</mgrwt>
</event>
<event>
 7    1  0.1422977E-005  0.1260962E+03  0.7546771E-02  0.1248526E+00
          1   -1    0    0  501    0  0.00000000000E+00  0.00000000000E+00  0.29850118491E+03  0.29850118491E+03  0.00000000000E+00 0. -1.
         -1   -1    0    0    0  501 -0.00000000000E+00 -0.00000000000E+00 -0.41636642875E+02  0.41636642875E+02  0.00000000000E+00 0.  1.
         23    2    1    2    0    0  0.14823646913E+02 -0.73517025237E+01  0.77284096781E+02  0.12070812213E+03  0.91235032166E+02 0.  0.
          5    1    1    2  502    0  0.17329210618E+02  0.36115786985E+01  0.18531832689E+03  0.18622115165E+03  0.47000000000E+01 0. -1.
         -5    1    1    2    0  502 -0.32152857531E+02  0.37401238252E+01 -0.57378816348E+01  0.33208554007E+02  0.47000000000E+01 0. -1.
        -11    1    3    3    0    0  0.17536465965E+02  0.40410941972E+02  0.29018390773E+02  0.52750723907E+02  0.00000000000E+00 0.  1.
         11    1    3    3    0    0 -0.27128190518E+01 -0.47762644496E+02  0.48265706008E+02  0.67957398220E+02  0.00000000000E+00 0. -1.
<mgrwt>
<rscale>  0 0.11676800E+03</rscale>
<asrwt>0</asrwt>
<pdfrwt beam="1">  1        1 0.45923258E-01 0.12609623E+03</pdfrwt>
<pdfrwt beam="2">  1       -1 0.64056376E-02 0.12609623E+03</pdfrwt>
<totfact> 0.10030367E+04</totfact>
</mgrwt>
</event>
<event>
 7    1  0.1422977E-005  0.2344873E+03  0.7546771E-02  0.1159692E+00
         -2   -1    0    0    0  501 -0.00000000000E+00  0.00000000000E+00  0.67426989510E+02  0.67426989510E+02  0.00000000000E+00 0.  1.
          2   -1    0    0  501    0  0.00000000000E+00 -0.00000000000E+00 -0.49596674921E+03  0.49596674921E+03  0.00000000000E+00 0. -1.
         23    2    1    2    0    0  0.35047920229E+02  0.90628380963E+01 -0.33079190560E+02  0.10364015474E+03  0.91304748396E+02 0.  0.
          5    1    1    2  502    0 -0.33227649758E+02 -0.92533519684E+02 -0.35201636139E+03  0.36551899767E+03  0.47000000000E+01 0. -1.
         -5    1    1    2    0  502 -0.18202704719E+01  0.83470681588E+02 -0.43444207748E+02  0.94234586306E+02  0.47000000000E+01 0.  1.
        -11    1    3    3    0    0 -0.26586917510E+02 -0.14877235397E+02 -0.18694513318E+01  0.30523616496E+02  0.00000000000E+00 0. -1.
         11    1    3    3    0    0  0.61634837740E+02  0.23940073493E+02 -0.31209739228E+02  0.73116538244E+02  0.00000000000E+00 0.  1.
<mgrwt>
<rscale>  0 0.18864218E+03</rscale>
<asrwt>0</asrwt>
<pdfrwt beam="2">  1        2 0.76302578E-01 0.23448731E+03</pdfrwt>
<pdfrwt beam="1">  1       -2 0.10373383E-01 0.23448731E+03</pdfrwt>
<totfact> 0.38939568E+03</totfact>
</mgrwt>
</event>
<event>
 7    1  0.1422977E-005  0.2918699E+03  0.7546771E-02  0.1120319E+00
         -1   -1    0    0    0  501 -0.00000000000E+00  0.00000000000E+00  0.50497198445E+03  0.50497198445E+03  0.00000000000E+00 0.  1.
          1   -1    0    0  501    0  0.00000000000E+00 -0.00000000000E+00 -0.28868410083E+03  0.28868410083E+03  0.00000000000E+00 0. -1.
         23    2    1    2    0    0 -0.88330122917E+01 -0.95023989019E+02  0.41840147499E+03  0.43863785939E+03  0.90751291053E+02 0.  0.
          5    1    1    2  502    0 -0.97556232836E+02  0.36206377237E+02 -0.20862932694E+03  0.23318749189E+03  0.47000000000E+01 0. -1.
         -5    1    1    2    0  502  0.10638924513E+03  0.58817611782E+02  0.65157355638E+01  0.12183073399E+03  0.47000000000E+01 0.  1.
        -11    1    3    3    0    0  0.15291262465E+02 -0.86903584640E+02  0.39259947890E+03  0.40239334806E+03  0.00000000000E+00 0.  1.
         11    1    3    3    0    0 -0.24124274756E+02 -0.81204043785E+01  0.25801996089E+02  0.36244511336E+02  0.00000000000E+00 0. -1.
<mgrwt>
<rscale>  0 0.23921240E+03</rscale>
<asrwt>0</asrwt>
<pdfrwt beam="2">  1        1 0.44412938E-01 0.29186990E+03</pdfrwt>
<pdfrwt beam="1">  1       -1 0.77687998E-01 0.29186990E+03</pdfrwt>
<totfact> 0.16051389E+02</totfact>
</mgrwt>
</event>
<event>
 7    1  0.1422977E-005  0.1946927E+03  0.7546771E-02  0.1159296E+00
         -2   -1    0    0    0  501 -0.00000000000E+00  0.00000000000E+00  0.79482577368E+03  0.79482577368E+03  0.00000000000E+00 0.  1.
          2   -1    0    0  501    0  0.00000000000E+00 -0.00000000000E+00 -0.53106032761E+02  0.53106032761E+02  0.00000000000E+00 0. -1.
         23    2    1    2    0    0 -0.56682239914E+02  0.13808294792E+03  0.54208584539E+03  0.56907891287E+03  0.87829200558E+02 0.  0.
          5    1    1    2  502    0 -0.16826182108E+02  0.96706914571E+01  0.22510932183E+00  0.19969560631E+02  0.47000000000E+01 0. -1.
         -5    1    1    2    0  502  0.73508422022E+02 -0.14775363938E+03  0.19940878620E+03  0.25888333294E+03  0.47000000000E+01 0. -1.
        -11    1    3    3    0    0 -0.35693857474E+02  0.63999936380E+02  0.40738806739E+03  0.41392641951E+03  0.00000000000E+00 0.  1.
         11    1    3    3    0    0 -0.20988382439E+02  0.74083011542E+02  0.13469777800E+03  0.15515249336E+03  0.00000000000E+00 0. -1.
<mgrwt>
<rscale>  0 0.18907803E+03</rscale>
<asrwt>0</asrwt>
<pdfrwt beam="2">  1        2 0.81701595E-02 0.19469269E+03</pdfrwt>
<pdfrwt beam="1">  1       -2 0.12228088E+00 0.19469269E+03</pdfrwt>
<totfact> 0.43641742E+02</totfact>
</mgrwt>
</event>
<event>
 7    1  0.1422977E-005  0.1497866E+03  0.7546771E-02  0.1209968E+00
         -1   -1    0    0    0  501 -0.00000000000E+00  0.00000000000E+00  0.35470766709E+02  0.35470766709E+02  0.00000000000E+00 0.  1.
          1   -1    0    0  501    0  0.00000000000E+00 -0.00000000000E+00 -0.55177797843E+03  0.55177797843E+03  0.00000000000E+00 0. -1.
         23    2    1    2    0    0 -0.61796493825E+02 -0.54647937200E+02 -0.16793411114E+03  0.20803926123E+03  0.90957489174E+02 0.  0.
          5    1    1    2  502    0 -0.33647407469E+02  0.10015873908E+02 -0.15446914876E+03  0.15847799115E+03  0.47000000000E+01 0. -1.
         -5    1    1    2    0  502  0.95443901294E+02  0.44632063292E+02 -0.19390395182E+03  0.22073149276E+03  0.47000000000E+01 0. -1.
        -11    1    3    3    0    0 -0.13101371724E+02  0.20024928778E+02 -0.85380642561E+01  0.25407523587E+02  0.00000000000E+00 0.  1.
         11    1    3    3    0    0 -0.48695122101E+02 -0.74672865978E+02 -0.15939604689E+03  0.18263173764E+03  0.00000000000E+00 0. -1.
<mgrwt>
<rscale>  0 0.14252771E+03</rscale>
<asrwt>0</asrwt>
<pdfrwt beam="2">  1        1 0.84888921E-01 0.14978657E+03</pdfrwt>
<pdfrwt beam="1">  1       -1 0.54570409E-02 0.14978657E+03</pdfrwt>
<totfact> 0.58979728E+03</totfact>
</mgrwt>
</event>
<event>
 7    1  0.1422977E-005  0.1292776E+03  0.7546771E-02  0.1241799E+00
          1   -1    0    0  501    0  0.00000000000E+00  0.00000000000E+00  0.12006902414E+03  0.12006902414E+03  0.00000000000E+00 0. -1.
         -1   -1    0    0    0  501 -0.00000000000E+00 -0.00000000000E+00 -0.12378479751E+03  0.12378479751E+03  0.00000000000E+00 0.  1.
         23    2    1    2    0    0  0.27313677355E+02  0.18465763679E+02 -0.44759686412E+02  0.10821718017E+03  0.92846686302E+02 0.  0.
          5    1    1    2  502    0 -0.74538267247E+02 -0.74841297321E+01  0.53571637764E+01  0.75251276971E+02  0.47000000000E+01 0.  1.
         -5    1    1    2    0  502  0.47224589892E+02 -0.10981633947E+02  0.35686749265E+02  0.60385364515E+02  0.47000000000E+01 0.  1.
        -11    1    3    3    0    0  0.10539957265E+02  0.33648697231E+02  0.19357833522E+02  0.40225007684E+02  0.00000000000E+00 0. -1.
         11    1    3    3    0    0  0.16773720090E+02 -0.15182933552E+02 -0.64117519934E+02  0.67992172486E+02  0.00000000000E+00 0.  1.
<mgrwt>
<rscale>  0 0.12079001E+03</rscale>
<asrwt>0</asrwt>
<pdfrwt beam="1">  1        1 0.18472158E-01 0.12927759E+03</pdfrwt>
<pdfrwt beam="2">  1       -1 0.19043815E-01 0.12927759E+03</pdfrwt>
<totfact> 0.58680994E+03</totfact>
</mgrwt>
</event>
<event>
 7    1  0.1422977E-005  0.1486740E+03  0.7546771E-02  0.1210940E+00
         -2   -1    0    0    0  501 -0.00000000000E+00  0.00000000000E+00  0.74229346209E+02  0.74229346209E+02  0.00000000000E+00 0.  1.
          2   -1    0    0  501    0  0.00000000000E+00 -0.00000000000E+00 -0.47586524508E+03  0.47586524508E+03  0.00000000000E+00 0. -1.
         23    2    1    2    0    0 -0.80497535123E+02  0.86842498570E+00 -0.12535449720E+01  0.12299976770E+03  0.92987978561E+02 0.  0.
          5    1    1    2  502    0  0.92772440968E+02  0.41315411136E+02 -0.31432746904E+03  0.33035970818E+03  0.47000000000E+01 0.  1.
         -5    1    1    2    0  502 -0.12274905845E+02 -0.42183836121E+02 -0.86054884859E+02  0.96735115400E+02  0.47000000000E+01 0.  1.
        -11    1    3    3    0    0 -0.52265789217E+02 -0.24049687996E+02 -0.39138785385E+02  0.69584083932E+02  0.00000000000E+00 0. -1.
         11    1    3    3    0    0 -0.28231745907E+02  0.24918112982E+02  0.37885240413E+02  0.53415683771E+02  0.00000000000E+00 0.  1.
<mgrwt>
<rscale>  0 0.14179036E+03</rscale>
<asrwt>0</asrwt>
<pdfrwt beam="2">  1        2 0.73210035E-01 0.14867400E+03</pdfrwt>
<pdfrwt beam="1">  1       -2 0.11419900E-01 0.14867400E+03</pdfrwt>
<totfact> 0.34366122E+03</totfact>
</mgrwt>
</event>
<event>
 7    1  0.1422977E-005  0.1297526E+03  0.7546771E-02  0.1240937E+00
         -2   -1    0    0    0  501 -0.00000000000E+00  0.00000000000E+00  0.41994023120E+02  0.41994023120E+02  0.00000000000E+00 0.  1.
          2   -1    0    0  501    0  0.00000000000E+00 -0.00000000000E+00 -0.55509186044E+03  0.55509186044E+03  0.00000000000E+00 0. -1.
         23    2    1    2    0    0 -0.29369763849E+02 -0.18675823884E+02 -0.40703655085E+02  0.10719609985E+03  0.92859285265E+02 0.  0.
          5    1    1    2  502    0  0.67946250734E+02  0.17277765138E+02 -0.41275176836E+03  0.41869001235E+03  0.47000000000E+01 0. -1.
         -5    1    1    2    0  502 -0.38576486885E+02  0.13980587463E+01 -0.59642413877E+02  0.71199771360E+02  0.47000000000E+01 0. -1.
        -11    1    3    3    0    0 -0.59408608661E+02  0.56612491282E+01 -0.17868300549E+02  0.62295334410E+02  0.00000000000E+00 0.  1.
         11    1    3    3    0    0  0.30038844812E+02 -0.24337073013E+02 -0.22835354536E+02  0.44900765442E+02  0.00000000000E+00 0. -1.
<mgrwt>
<rscale>  0 0.12131919E+03</rscale>
<asrwt>0</asrwt>
<pdfrwt beam="2">  1        2 0.85398738E-01 0.12975260E+03</pdfrwt>
<pdfrwt beam="1">  1       -2 0.64606197E-02 0.12975260E+03</pdfrwt>
<totfact> 0.69805849E+03</totfact>
</mgrwt>
</event>
<event>
 7    1  0.1422977E-005  0.1496294E+03  0.7546771E-02  0.1210785E+00
         -1   -1    0    0    0  501 -0.00000000000E+00  0.00000000000E+00  0.19493599684E+03  0.19493599684E+03  0.00000000000E+00 0.  1.
          1   -1    0    0  501    0  0.00000000000E+00 -0.00000000000E+00 -0.15424791623E+03  0.15424791623E+03  0.00000000000E+00 0. -1.
         23    2    1    2    0    0  0.81190991828E+02 -0.13116425524E+02  0.12781127322E+03  0.17603827765E+03  0.88824185112E+02 0.  0.
          5    1    1    2  502    0  0.63921898661E+01 -0.36501523543E+02 -0.56669993535E+02  0.67873407749E+02  0.47000000000E+01 0. -1.
         -5    1    1    2    0  502 -0.87583181694E+02  0.49617949067E+02 -0.30453199078E+02  0.10527222767E+03  0.47000000000E+01 0. -1.
        -11    1    3    3    0    0  0.15210130786E+02 -0.24718299728E+02 -0.28912715309E+01  0.29166793980E+02  0.00000000000E+00 0. -1.
         11    1    3    3    0    0  0.65980861042E+02  0.11601874204E+02  0.13070254476E+03  0.14687148367E+03  0.00000000000E+00 0.  1.
<mgrwt>
<rscale>  0 0.14190782E+03</rscale>
<asrwt>0</asrwt>
<pdfrwt beam="2">  1        1 0.23730449E-01 0.14962941E+03</pdfrwt>
<pdfrwt beam="1">  1       -1 0.29990153E-01 0.14962941E+03</pdfrwt>
<totfact> 0.20461022E+03</totfact>
</mgrwt>
</event>
<event>
 7    1  0.1422977E-005  0.2142028E+03  0.7546771E-02  0.1140501E+00
          4   -1    0    0  501    0  0.00000000000E+00  0.00000000000E+00  0.12871830974E+03  0.12871830974E+03  0.00000000000E+00 0. -1.
         -4   -1    0    0    0  501 -0.00000000000E+00 -0.00000000000E+00 -0.37638876459E+03  0.37638876459E+03  0.00000000000E+00 0.  1.
         23    2    1    2    0    0  0.65561262945E+02  0.16111983778E+03 -0.20138564580E+03  0.28596073918E+03  0.10468755749E+03 0.  0.
          5    1    1    2  502    0 -0.79453977163E+02 -0.47653994141E+02  0.68081023050E+01  0.93017621458E+02  0.47000000000E+01 0.  1.
         -5    1    1    2    0  502  0.13892714218E+02 -0.11346584364E+03 -0.53092911354E+02  0.12612871369E+03  0.47000000000E+01 0.  1.
        -11    1    3    3    0    0  0.43562047421E+02  0.17126973264E+03 -0.16211097785E+03  0.23981439163E+03  0.00000000000E+00 0.  1.
         11    1    3    3    0    0  0.21999215524E+02 -0.10149894861E+02 -0.39274667953E+02  0.46146347549E+02  0.00000000000E+00 0. -1.
<mgrwt>
<rscale>  0 0.21135078E+03</rscale>
<asrwt>0</asrwt>
<pdfrwt beam="1">  1        4 0.19802817E-01 0.21420278E+03</pdfrwt>
<pdfrwt beam="2">  1       -4 0.57905964E-01 0.21420278E+03</pdfrwt>
<totfact> 0.11782157E+02</totfact>
</mgrwt>
</event>
<event>
 7    1  0.1422977E-005  0.1768372E+03  0.7546771E-02  0.1176796E+00
          2   -1    0    0  501    0  0.00000000000E+00  0.00000000000E+00  0.16396400196E+04  0.16396400196E+04  0.00000000000E+00 0. -1.
         -2   -1    0    0    0  501 -0.00000000000E+00 -0.00000000000E+00 -0.20653517680E+02  0.20653517680E+02  0.00000000000E+00 0.  1.
         23    2    1    2    0    0  0.10321137967E+03  0.70664910748E+02  0.40558154051E+03  0.43407047665E+03  0.90965236177E+02 0.  0.
          5    1    1    2  502    0  0.77494984369E+01  0.19015740922E+02  0.52404137287E+02  0.56479524907E+02  0.47000000000E+01 0.  1.
         -5    1    1    2    0  502 -0.11096087811E+03 -0.89680651670E+02  0.11610008241E+04  0.11697435357E+04  0.47000000000E+01 0.  1.
        -11    1    3    3    0    0  0.10700037984E+03  0.26399828914E+02  0.29273064322E+03  0.31278948469E+03  0.00000000000E+00 0. -1.
         11    1    3    3    0    0 -0.37890001675E+01  0.44265081834E+02  0.11285089729E+03  0.12128099196E+03  0.00000000000E+00 0.  1.
<mgrwt>
<rscale>  0 0.17101223E+03</rscale>
<asrwt>0</asrwt>
<pdfrwt beam="1">  1        2 0.25225221E+00 0.17683720E+03</pdfrwt>
<pdfrwt beam="2">  1       -2 0.31774656E-02 0.17683720E+03</pdfrwt>
<totfact> 0.44441940E+03</totfact>
</mgrwt>
</event>
<event>
 7    1  0.1422977E-005  0.2563764E+03  0.7546771E-02  0.1111556E+00
         -1   -1    0    0    0  501 -0.00000000000E+00  0.00000000000E+00  0.48141362321E+02  0.48141362321E+02  0.00000000000E+00 0.  1.
          1   -1    0    0  501    0  0.00000000000E+00 -0.00000000000E+00 -0.17792185215E+04  0.17792185215E+04  0.00000000000E+00 0. -1.
         23    2    1    2    0    0  0.21912058760E+03  0.45672618613E+02 -0.36958206624E+03  0.44193657357E+03  0.92828936031E+02 0.  0.
          5    1    1    2  502    0 -0.14119987489E+03 -0.85072611725E+02 -0.99970728957E+03  0.10132183914E+04  0.47000000000E+01 0. -1.
         -5    1    1    2    0  502 -0.77920712710E+02  0.39399993112E+02 -0.36178780340E+03  0.37220491885E+03  0.47000000000E+01 0. -1.
        -11    1    3    3    0    0  0.70061945365E+02  0.12194401165E+02 -0.20683613634E+03  0.21872029376E+03  0.00000000000E+00 0.  1.
         11    1    3    3    0    0  0.14905864224E+03  0.33478217449E+02 -0.16274592991E+03  0.22321627981E+03  0.00000000000E+00 0. -1.
<mgrwt>
<rscale>  0 0.25278660E+03</rscale>
<asrwt>0</asrwt>
<pdfrwt beam="2">  1        1 0.27372594E+00 0.25637640E+03</pdfrwt>
<pdfrwt beam="1">  1       -1 0.74063630E-02 0.25637640E+03</pdfrwt>
<totfact> 0.45636943E+02</totfact>
</mgrwt>
</event>
<event>
 7    1  0.1422977E-005  0.1327724E+03  0.7546771E-02  0.1240620E+00
          4   -1    0    0  501    0  0.00000000000E+00  0.00000000000E+00  0.50593193516E+03  0.50593193516E+03  0.00000000000E+00 0. -1.
         -4   -1    0    0    0  501 -0.00000000000E+00 -0.00000000000E+00 -0.29089285559E+02  0.29089285559E+02  0.00000000000E+00 0.  1.
         23    2    1    2    0    0 -0.26655160243E+01 -0.19171292887E+02  0.10592619162E+03  0.14105735364E+03  0.91116274614E+02 0.  0.
          5    1    1    2  502    0 -0.12411858521E+02  0.55840192404E+02  0.33617500876E+03  0.34103945202E+03  0.47000000000E+01 0. -1.
         -5    1    1    2    0  502  0.15077374545E+02 -0.36668899517E+02  0.34741449225E+02  0.52924415058E+02  0.47000000000E+01 0.  1.
        -11    1    3    3    0    0 -0.38794475376E+02 -0.32636605195E+02  0.79589131100E+02  0.94364130408E+02  0.00000000000E+00 0.  1.
         11    1    3    3    0    0  0.36128959352E+02  0.13465312308E+02  0.26337060518E+02  0.46693223236E+02  0.00000000000E+00 0. -1.
<mgrwt>
<rscale>  0 0.12151389E+03</rscale>
<asrwt>0</asrwt>
<pdfrwt beam="1">  1        4 0.77835676E-01 0.13277240E+03</pdfrwt>
<pdfrwt beam="2">  1       -4 0.44752751E-02 0.13277240E+03</pdfrwt>
<totfact> 0.71181307E+02</totfact>
</mgrwt>
</event>
<event>
 7    1  0.1422977E-005  0.1437187E+03  0.7546771E-02  0.1219328E+00
          1   -1    0    0  501    0  0.00000000000E+00  0.00000000000E+00  0.48639925618E+02  0.48639925618E+02  0.00000000000E+00 0. -1.
         -1   -1    0    0    0  501 -0.00000000000E+00 -0.00000000000E+00 -0.34312616185E+03  0.34312616185E+03  0.00000000000E+00 0.  1.
         23    2    1    2    0    0 -0.70121481816E+02 -0.10582130644E+02 -0.14416270714E+03  0.18379437863E+03  0.89266364242E+02 0.  0.
          5    1    1    2  502    0  0.50141450448E+02  0.54422952751E+02 -0.14007628191E+03  0.15849125400E+03  0.47000000000E+01 0. -1.
         -5    1    1    2    0  502  0.19980031367E+02 -0.43840822107E+02 -0.10247247179E+02  0.49480454840E+02  0.47000000000E+01 0. -1.
        -11    1    3    3    0    0 -0.30160999056E+02 -0.18976689606E+02 -0.13796672105E+03  0.14249426911E+03  0.00000000000E+00 0.  1.
         11    1    3    3    0    0 -0.39960482760E+02  0.83945589618E+01 -0.61959860890E+01  0.41300109517E+02  0.00000000000E+00 0. -1.
<mgrwt>
<rscale>  0 0.13563364E+03</rscale>
<asrwt>0</asrwt>
<pdfrwt beam="1">  1        1 0.74830656E-02 0.14371871E+03</pdfrwt>
<pdfrwt beam="2">  1       -1 0.52788639E-01 0.14371871E+03</pdfrwt>
<totfact> 0.34113297E+03</totfact>
</mgrwt>
</event>
<event>
 7    1  0.1422977E-005  0.1625860E+03  0.7546771E-02  0.1192636E+00
          1   -1    0    0  501    0  0.00000000000E+00  0.00000000000E+00  0.35648620390E+03  0.35648620390E+03  0.00000000000E+00 0. -1.
         -1   -1    0    0    0  501 -0.00000000000E+00 -0.00000000000E+00 -0.65805839153E+02  0.65805839153E+02  0.00000000000E+00 0.  1.
         23    2    1    2    0    0  0.10377976291E+03 -0.62399955052E+01  0.16836836581E+03  0.21883579404E+03  0.93445285675E+02 0.  0.
          5    1    1    2  502    0  0.13495176542E+02 -0.34773075137E+02  0.36425079898E+02  0.52346566172E+02  0.47000000000E+01 0. -1.
         -5    1    1    2    0  502 -0.11727493945E+03  0.41013070642E+02  0.85886919043E+02  0.15110968284E+03  0.47000000000E+01 0. -1.
        -11    1    3    3    0    0  0.61156222607E+02 -0.22987551194E+02  0.27812224813E+02  0.71007259647E+02  0.00000000000E+00 0.  1.
         11    1    3    3    0    0  0.42623540302E+02  0.16747555688E+02  0.14055614100E+03  0.14782853439E+03  0.00000000000E+00 0. -1.
<mgrwt>
<rscale>  0 0.15656019E+03</rscale>
<asrwt>0</asrwt>
<pdfrwt beam="1">  1        1 0.54844030E-01 0.16258604E+03</pdfrwt>
<pdfrwt beam="2">  1       -1 0.10123975E-01 0.16258604E+03</pdfrwt>
<totfact> 0.40900719E+03</totfact>
</mgrwt>
</event>
<event>
 7    1  0.1422977E-005  0.1267087E+03  0.7546771E-02  0.1247361E+00
          2   -1    0    0  501    0  0.00000000000E+00  0.00000000000E+00  0.20465892178E+03  0.20465892178E+03  0.00000000000E+00 0. -1.
         -2   -1    0    0    0  501 -0.00000000000E+00 -0.00000000000E+00 -0.76389553122E+02  0.76389553122E+02  0.00000000000E+00 0.  1.
         23    2    1    2    0    0 -0.63229849080E+00 -0.20746659340E+02 -0.93147521966E+01  0.94007102617E+02  0.91212647471E+02 0.  0.
          5    1    1    2  502    0 -0.23139473424E+02  0.22903362530E+02  0.15414232570E+03  0.15761327932E+03  0.47000000000E+01 0. -1.
         -5    1    1    2    0  502  0.23771771915E+02 -0.21567031896E+01 -0.16558204838E+02  0.29428092974E+02  0.47000000000E+01 0. -1.
        -11    1    3    3    0    0 -0.14362610357E+02 -0.54596430206E+02 -0.10670082816E+02  0.57453506724E+02  0.00000000000E+00 0. -1.
         11    1    3    3    0    0  0.13730311866E+02  0.33849770866E+02  0.13553306198E+01  0.36553595893E+02  0.00000000000E+00 0.  1.
<mgrwt>
<rscale>  0 0.11745169E+03</rscale>
<asrwt>0</asrwt>
<pdfrwt beam="1">  1        2 0.31485988E-01 0.12670866E+03</pdfrwt>
<pdfrwt beam="2">  1       -2 0.11752239E-01 0.12670866E+03</pdfrwt>
<totfact> 0.80115185E+03</totfact>
</mgrwt>
</event>
<event>
 7    1  0.1422977E-005  0.1180219E+03  0.7546771E-02  0.1260495E+00
         -2   -1    0    0    0  501 -0.00000000000E+00  0.00000000000E+00  0.30938416504E+02  0.30938416504E+02  0.00000000000E+00 0.  1.
          2   -1    0    0  501    0  0.00000000000E+00 -0.00000000000E+00 -0.39322624706E+03  0.39322624706E+03  0.00000000000E+00 0. -1.
         23    2    1    2    0    0  0.15647404077E+01 -0.12322457089E+01 -0.86779194265E+02  0.12444116693E+03  0.89168428423E+02 0.  0.
          5    1    1    2  502    0 -0.58984698200E+01 -0.22290866225E+02 -0.27431014299E+03  0.27531766963E+03  0.47000000000E+01 0. -1.
         -5    1    1    2    0  502  0.43337294123E+01  0.23523111934E+02 -0.11984933021E+01  0.24405827007E+02  0.47000000000E+01 0.  1.
        -11    1    3    3    0    0 -0.79996735493E+00 -0.44935223146E+02 -0.37502886204E+02  0.58534440295E+02  0.00000000000E+00 0. -1.
         11    1    3    3    0    0  0.23647077627E+01  0.43702977437E+02 -0.49276308060E+02  0.65906726635E+02  0.00000000000E+00 0.  1.
<mgrwt>
<rscale>  0 0.11004030E+03</rscale>
<asrwt>0</asrwt>
<pdfrwt beam="2">  1        2 0.60496345E-01 0.11802189E+03</pdfrwt>
<pdfrwt beam="1">  1       -2 0.47597564E-02 0.11802189E+03</pdfrwt>
<totfact> 0.15965969E+04</totfact>
</mgrwt>
</event>
<event>
 6    1  0.1422977E-005  0.4546431E+03  0.7546771E-02  0.1026346E+00
         -2   -1    0    0    0  501 -0.00000000000E+00  0.00000000000E+00  0.14371085651E+03  0.14371085651E+03  0.00000000000E+00 0.  1.
          2   -1    0    0  501    0  0.00000000000E+00 -0.00000000000E+00 -0.35957682811E+03  0.35957682811E+03  0.00000000000E+00 0. -1.
          5    1    1    2  502    0  0.17372956961E+02 -0.55084679631E+02 -0.12583256486E+03  0.13853543209E+03  0.47000000000E+01 0.  1.
         -5    1    1    2    0  502 -0.11061292964E+03 -0.32816859833E+02 -0.13449667427E+03  0.17726706372E+03  0.47000000000E+01 0.  1.
        -11    1    1    2    0    0  0.94207082522E+02  0.24677238143E+02  0.69326146259E+02  0.11954101821E+03  0.00000000000E+00 0.  1.
         11    1    1    2    0    0 -0.96710984381E+00  0.63224301321E+02 -0.24862878727E+02  0.67944170593E+02  0.00000000000E+00 0. -1.
<mgrwt>
<rscale>  0 0.45464313E+03</rscale>
<asrwt>0</asrwt>
<pdfrwt beam="2">  1        2 0.55319512E-01 0.45464313E+03</pdfrwt>
<pdfrwt beam="1">  1       -2 0.22109363E-01 0.45464313E+03</pdfrwt>
<totfact> 0.15950973E+03</totfact>
</mgrwt>
</event>
<event>
 7    1  0.1422977E-005  0.1262450E+03  0.7546771E-02  0.1248097E+00
         -2   -1    0    0    0  501 -0.00000000000E+00  0.00000000000E+00  0.41025042926E+02  0.41025042926E+02  0.00000000000E+00 0.  1.
          2   -1    0    0  501    0  0.00000000000E+00 -0.00000000000E+00 -0.39532481136E+03  0.39532481136E+03  0.00000000000E+00 0. -1.
         23    2    1    2    0    0  0.90584408845E+01 -0.15082962941E+02 -0.47521869818E+02  0.10461127827E+03  0.91518524396E+02 0.  0.
          5    1    1    2  502    0  0.11467764721E+02 -0.58455611817E+01  0.77969474670E+01  0.15765868293E+02  0.47000000000E+01 0.  1.
         -5    1    1    2    0  502 -0.20526205606E+02  0.20928524122E+02 -0.31457484608E+03  0.31597270772E+03  0.47000000000E+01 0.  1.
        -11    1    3    3    0    0 -0.19348594922E+02 -0.35333624843E+01  0.21466465185E+02  0.29114633837E+02  0.00000000000E+00 0.  1.
         11    1    3    3    0    0  0.28407035807E+02 -0.11549600456E+02 -0.68988335003E+02  0.75496644432E+02  0.00000000000E+00 0. -1.
<mgrwt>
<rscale>  0 0.11701946E+03</rscale>
<asrwt>0</asrwt>
<pdfrwt beam="2">  1        2 0.60819201E-01 0.12624501E+03</pdfrwt>
<pdfrwt beam="1">  1       -2 0.63115451E-02 0.12624501E+03</pdfrwt>
<totfact> 0.10440356E+04</totfact>
</mgrwt>
</event>
<event>
 7    1  0.1422977E-005  0.1269267E+03  0.7546771E-02  0.1247772E+00
          2   -1    0    0  501    0  0.00000000000E+00  0.00000000000E+00  0.36490257993E+02  0.36490257993E+02  0.00000000000E+00 0. -1.
         -2   -1    0    0    0  501 -0.00000000000E+00 -0.00000000000E+00 -0.34976283024E+03  0.34976283024E+03  0.00000000000E+00 0.  1.
         23    2    1    2    0    0 -0.21978842341E+02  0.16189166506E+01 -0.17954628342E+03  0.20188091010E+03  0.89628921508E+02 0.  0.
          5    1    1    2  502    0 -0.74975737183E+01  0.57350617502E+02 -0.81939421592E+02  0.10040650253E+03  0.47000000000E+01 0.  1.
         -5    1    1    2    0  502  0.29476416059E+02 -0.58969534153E+02 -0.51786867241E+02  0.83965675609E+02  0.47000000000E+01 0.  1.
        -11    1    3    3    0    0 -0.24927199930E+01 -0.41461396986E+02 -0.11179779931E+03  0.11926444996E+03  0.00000000000E+00 0.  1.
         11    1    3    3    0    0 -0.19486122348E+02  0.43080313637E+02 -0.67748484110E+02  0.82616460142E+02  0.00000000000E+00 0. -1.
<mgrwt>
<rscale>  0 0.11720967E+03</rscale>
<asrwt>0</asrwt>
<pdfrwt beam="1">  1        2 0.56138857E-02 0.12692667E+03</pdfrwt>
<pdfrwt beam="2">  1       -2 0.53809668E-01 0.12692667E+03</pdfrwt>
<totfact> 0.42246709E+03</totfact>
</mgrwt>
</event>
<event>
 7    1  0.1422977E-005  0.1264605E+03  0.7546771E-02  0.1245797E+00
         -1   -1    0    0    0  501 -0.00000000000E+00  0.00000000000E+00  0.15862681853E+02  0.15862681853E+02  0.00000000000E+00 0.  1.
          1   -1    0    0  501    0  0.00000000000E+00 -0.00000000000E+00 -0.96599045780E+03  0.96599045780E+03  0.00000000000E+00 0. -1.
         23    2    1    2    0    0  0.33970848833E+02 -0.80415373049E+00 -0.21476260226E+03  0.23569350621E+03  0.90960366677E+02 0.  0.
          5    1    1    2  502    0  0.41923328984E+02 -0.20909123719E+02 -0.29964520331E+03  0.30332176782E+03  0.47000000000E+01 0. -1.
         -5    1    1    2    0  502 -0.75894177817E+02  0.21713277449E+02 -0.43571997038E+03  0.44283786563E+03  0.47000000000E+01 0.  1.
        -11    1    3    3    0    0  0.15627002756E+01  0.31999253040E+02 -0.25650793507E+02  0.41040923903E+02  0.00000000000E+00 0.  1.
         11    1    3    3    0    0  0.32408148557E+02 -0.32803406770E+02 -0.18911180875E+03  0.19465258231E+03  0.00000000000E+00 0. -1.
<mgrwt>
<rscale>  0 0.11837807E+03</rscale>
<asrwt>0</asrwt>
<pdfrwt beam="2">  1        1 0.14861392E+00 0.12646051E+03</pdfrwt>
<pdfrwt beam="1">  1       -1 0.24404126E-02 0.12646051E+03</pdfrwt>
<totfact> 0.83629489E+03</totfact>
</mgrwt>
</event>
<event>
 7    1  0.1422977E-005  0.1664681E+03  0.7546771E-02  0.1188272E+00
         -2   -1    0    0    0  501 -0.00000000000E+00  0.00000000000E+00  0.58329796702E+02  0.58329796702E+02  0.00000000000E+00 0.  1.
          2   -1    0    0  501    0  0.00000000000E+00 -0.00000000000E+00 -0.72547341349E+03  0.72547341349E+03  0.00000000000E+00 0. -1.
         23    2    1    2    0    0 -0.89405540989E+02 -0.63971259445E+02 -0.62099314605E+02  0.15627612160E+03  0.92088156209E+02 0.  0.
          5    1    1    2  502    0  0.23822661173E+02  0.90183098647E+02 -0.29166451611E+03  0.30625282109E+03  0.47000000000E+01 0. -1.
         -5    1    1    2    0  502  0.65582879816E+02 -0.26211839202E+02 -0.31337978607E+03  0.32127426750E+03  0.47000000000E+01 0. -1.
        -11    1    3    3    0    0 -0.99717630146E+02 -0.36887555362E+02 -0.68657582082E+02  0.12656287402E+03  0.00000000000E+00 0.  1.
         11    1    3    3    0    0  0.10312089157E+02 -0.27083704083E+02  0.65582674768E+01  0.29713247583E+02  0.00000000000E+00 0. -1.
<mgrwt>
<rscale>  0 0.16037689E+03</rscale>
<asrwt>0</asrwt>
<pdfrwt beam="2">  1        2 0.11161129E+00 0.16646813E+03</pdfrwt>
<pdfrwt beam="1">  1       -2 0.89738149E-02 0.16646813E+03</pdfrwt>
<totfact> 0.31170855E+03</totfact>
</mgrwt>
</event>
<event>
 7    1  0.1422977E-005  0.1298358E+03  0.7546771E-02  0.1240569E+00
         -3   -1    0    0    0  501 -0.00000000000E+00  0.00000000000E+00  0.28512420657E+03  0.28512420657E+03  0.00000000000E+00 0.  1.
          3   -1    0    0  501    0  0.00000000000E+00 -0.00000000000E+00 -0.49921546643E+02  0.49921546643E+02  0.00000000000E+00 0. -1.
         23    2    1    2    0    0 -0.34929765567E+02  0.33009971777E+01  0.14867316229E+03  0.17901792631E+03  0.93341971537E+02 0.  0.
          5    1    1    2  502    0  0.20656255851E+02 -0.62615521329E+02  0.60230435188E+02  0.89426951978E+02  0.47000000000E+01 0. -1.
         -5    1    1    2    0  502  0.14273509715E+02  0.59314524151E+02  0.26299062449E+02  0.66600874923E+02  0.47000000000E+01 0. -1.
        -11    1    3    3    0    0 -0.21272815881E+02 -0.43920376722E+02  0.90821631581E+02  0.10310238091E+03  0.00000000000E+00 0.  1.
         11    1    3    3    0    0 -0.13656949686E+02  0.47221373899E+02  0.57851530706E+02  0.75915545395E+02  0.00000000000E+00 0. -1.
<mgrwt>
<rscale>  0 0.12154563E+03</rscale>
<asrwt>0</asrwt>
<pdfrwt beam="2">  1        3 0.76802381E-02 0.12983578E+03</pdfrwt>
<pdfrwt beam="1">  1       -3 0.43865262E-01 0.12983578E+03</pdfrwt>
<totfact> 0.13503026E+03</totfact>
</mgrwt>
</event>
<event>
 7    1  0.1891645E-005  0.1396292E+03  0.7546771E-02  0.1225294E+00
          1   -1    0    0  501    0  0.00000000000E+00  0.00000000000E+00  0.27480614690E+02  0.27480614690E+02  0.00000000000E+00 0. -1.
         -1   -1    0    0    0  501 -0.00000000000E+00 -0.00000000000E+00 -0.61344010486E+03  0.61344010486E+03  0.00000000000E+00 0.  1.
         23    2    1    2    0    0 -0.62161389946E+02  0.27414691667E+01 -0.34939842353E+03  0.36622552716E+03  0.90389846375E+02 0.  0.
          5    1    1    2  502    0 -0.27752750115E+02 -0.30173633886E+02 -0.10595967221E+03  0.11371106127E+03  0.47000000000E+01 0. -1.
         -5    1    1    2    0  502  0.89914140061E+02  0.27432164720E+02 -0.13060139443E+03  0.16098413112E+03  0.47000000000E+01 0. -1.
        -11    1    3    3    0    0 -0.34907817285E+02 -0.42502613427E+02 -0.14404289128E+03  0.15418619388E+03  0.00000000000E+00 0. -1.
         11    1    3    3    0    0 -0.27253572661E+02  0.45244082594E+02 -0.20535553224E+03  0.21203933327E+03  0.00000000000E+00 0.  1.
<mgrwt>
<rscale>  0 0.13146766E+03</rscale>
<asrwt>0</asrwt>
<pdfrwt beam="1">  1        1 0.42277867E-02 0.13962919E+03</pdfrwt>
<pdfrwt beam="2">  1       -1 0.94375404E-01 0.13962919E+03</pdfrwt>
<totfact> 0.23374877E+03</totfact>
</mgrwt>
</event>
<event>
 7    1  0.1422977E-005  0.1311600E+03  0.7546771E-02  0.1239605E+00
         -2   -1    0    0    0  501 -0.00000000000E+00  0.00000000000E+00  0.39740560096E+02  0.39740560096E+02  0.00000000000E+00 0.  1.
          2   -1    0    0  501    0  0.00000000000E+00 -0.00000000000E+00 -0.36337941234E+03  0.36337941234E+03  0.00000000000E+00 0. -1.
         23    2    1    2    0    0  0.28043871027E+02 -0.28168673188E+02 -0.82392261054E+02  0.12852416630E+03  0.90277592955E+02 0.  0.
          5    1    1    2  502    0 -0.49149405782E+02  0.17503022804E+02 -0.24469598529E+03  0.25024035469E+03  0.47000000000E+01 0. -1.
         -5    1    1    2    0  502  0.21105534755E+02  0.10665650384E+02  0.34493941077E+01  0.24355451446E+02  0.47000000000E+01 0. -1.
        -11    1    3    3    0    0  0.22164822429E+02 -0.59386581796E+02 -0.69974921964E+02  0.94416816058E+02  0.00000000000E+00 0. -1.
         11    1    3    3    0    0  0.58790485979E+01  0.31217908609E+02 -0.12417339091E+02  0.34107350240E+02  0.00000000000E+00 0.  1.
<mgrwt>
<rscale>  0 0.12214198E+03</rscale>
<asrwt>0</asrwt>
<pdfrwt beam="2">  1        2 0.55904525E-01 0.13115997E+03</pdfrwt>
<pdfrwt beam="1">  1       -2 0.61139323E-02 0.13115997E+03</pdfrwt>
<totfact> 0.12019263E+04</totfact>
</mgrwt>
</event>
<event>
 7    1  0.1422977E-005  0.1372068E+03  0.7546771E-02  0.1228893E+00
         -2   -1    0    0    0  501 -0.00000000000E+00  0.00000000000E+00  0.60774135314E+02  0.60774135314E+02  0.00000000000E+00 0.  1.
          2   -1    0    0  501    0  0.00000000000E+00 -0.00000000000E+00 -0.24926469731E+03  0.24926469731E+03  0.00000000000E+00 0. -1.
         23    2    1    2    0    0  0.56504997139E+02 -0.28435520984E+01 -0.65223288149E+02  0.12559225489E+03  0.91205464095E+02 0.  0.
          5    1    1    2  502    0 -0.60815483017E+02  0.52580659225E+02 -0.47217925958E+02  0.93353474659E+02  0.47000000000E+01 0.  1.
         -5    1    1    2    0  502  0.43104858784E+01 -0.49737107127E+02 -0.76049347889E+02  0.91093103077E+02  0.47000000000E+01 0.  1.
        -11    1    3    3    0    0  0.26010144243E+02  0.20525939295E+02 -0.78288898872E+02  0.85011725509E+02  0.00000000000E+00 0. -1.
         11    1    3    3    0    0  0.30494852896E+02 -0.23369491393E+02  0.13065610723E+02  0.40580529379E+02  0.00000000000E+00 0.  1.
<mgrwt>
<rscale>  0 0.12903582E+03</rscale>
<asrwt>0</asrwt>
<pdfrwt beam="2">  1        2 0.38348414E-01 0.13720685E+03</pdfrwt>
<pdfrwt beam="1">  1       -2 0.93498672E-02 0.13720685E+03</pdfrwt>
<totfact> 0.93574376E+03</totfact>
</mgrwt>
</event>
<event>
 7    1  0.1422977E-005  0.1848573E+03  0.7546771E-02  0.1168257E+00
          2   -1    0    0  501    0  0.00000000000E+00  0.00000000000E+00  0.16565705087E+04  0.16565705087E+04  0.00000000000E+00 0. -1.
         -2   -1    0    0    0  501 -0.00000000000E+00 -0.00000000000E+00 -0.40408777283E+02  0.40408777283E+02  0.00000000000E+00 0.  1.
         23    2    1    2    0    0 -0.13432021247E+03 -0.22475168654E+02  0.16108411441E+03  0.23020626321E+03  0.92194246144E+02 0.  0.
          5    1    1    2  502    0  0.65176402817E+02 -0.22418212699E+02  0.26576311386E+03  0.27459545232E+03  0.47000000000E+01 0. -1.
         -5    1    1    2    0  502  0.69143809654E+02  0.44893381353E+02  0.11893145031E+04  0.11921775705E+04  0.47000000000E+01 0. -1.
        -11    1    3    3    0    0 -0.47123438367E+02 -0.32270237297E+02  0.12087059953E+03  0.13368503465E+03  0.00000000000E+00 0. -1.
         11    1    3    3    0    0 -0.87196774103E+02  0.97950686432E+01  0.40213514882E+02  0.96521228561E+02  0.00000000000E+00 0.  1.
<mgrwt>
<rscale>  0 0.17953207E+03</rscale>
<asrwt>0</asrwt>
<pdfrwt beam="1">  1        2 0.25485695E+00 0.18485732E+03</pdfrwt>
<pdfrwt beam="2">  1       -2 0.62167362E-02 0.18485732E+03</pdfrwt>
<totfact> 0.15865552E+03</totfact>
</mgrwt>
</event>
<event>
 7    1  0.1422977E-005  0.1949746E+03  0.7546771E-02  0.1158727E+00
          1   -1    0    0  501    0  0.00000000000E+00  0.00000000000E+00  0.63884616607E+03  0.63884616607E+03  0.00000000000E+00 0.  1.
         -1   -1    0    0    0  501 -0.00000000000E+00 -0.00000000000E+00 -0.62070739877E+02  0.62070739877E+02  0.00000000000E+00 0. -1.
         23    2    1    2    0    0 -0.11958097051E+03 -0.89943821204E+02  0.40491718432E+03  0.44101240179E+03  0.90246955015E+02 0.  0.
          5    1    1    2  502    0  0.11465459351E+02  0.19662770257E+02 -0.18656829612E+02  0.29803499518E+02  0.47000000000E+01 0. -1.
         -5    1    1    2    0  502  0.10811551116E+03  0.70281050947E+02  0.19051507149E+03  0.23010100465E+03  0.47000000000E+01 0. -1.
        -11    1    3    3    0    0 -0.36151697259E+02  0.11924838363E+02  0.52886409165E+02  0.65162253330E+02  0.00000000000E+00 0. -1.
         11    1    3    3    0    0 -0.83429273252E+02 -0.10186865957E+03  0.35203077516E+03  0.37585014846E+03  0.00000000000E+00 0.  1.
<mgrwt>
<rscale>  0 0.18970620E+03</rscale>
<asrwt>0</asrwt>
<pdfrwt beam="1">  1        1 0.98284021E-01 0.19497460E+03</pdfrwt>
<pdfrwt beam="2">  1       -1 0.95493451E-02 0.19497460E+03</pdfrwt>
<totfact> 0.20921944E+03</totfact>
</mgrwt>
</event>
<event>
 7    1  0.1422977E-005  0.1433268E+03  0.7546771E-02  0.1218989E+00
          1   -1    0    0  501    0  0.00000000000E+00  0.00000000000E+00  0.13804216134E+03  0.13804216134E+03  0.00000000000E+00 0. -1.
         -1   -1    0    0    0  501 -0.00000000000E+00 -0.00000000000E+00 -0.12412381263E+03  0.12412381263E+03  0.00000000000E+00 0.  1.
         23    2    1    2    0    0  0.62491955072E+02  0.31833312946E+02 -0.12451781100E+02  0.11643345622E+03  0.92103738324E+02 0.  0.
          5    1    1    2  502    0  0.33990778368E+02  0.12961827223E+02  0.98516632391E+01  0.37980616735E+02  0.47000000000E+01 0.  1.
         -5    1    1    2    0  502 -0.96482733440E+02 -0.44795140169E+02  0.16518466566E+02  0.10775190102E+03  0.47000000000E+01 0.  1.
        -11    1    3    3    0    0  0.57380868758E+02  0.16607659333E+02 -0.48515353078E+02  0.76955298272E+02  0.00000000000E+00 0.  1.
         11    1    3    3    0    0  0.51110863142E+01  0.15225653614E+02  0.36063571978E+02  0.39478157949E+02  0.00000000000E+00 0. -1.
<mgrwt>
<rscale>  0 0.13587534E+03</rscale>
<asrwt>0</asrwt>
<pdfrwt beam="1">  1        1 0.21237256E-01 0.14332684E+03</pdfrwt>
<pdfrwt beam="2">  1       -1 0.19095971E-01 0.14332684E+03</pdfrwt>
<totfact> 0.49250221E+03</totfact>
</mgrwt>
</event>
<event>
 7    1  0.1422977E-005  0.2457331E+03  0.7546771E-02  0.1116031E+00
          2   -1    0    0  501    0  0.00000000000E+00  0.00000000000E+00  0.42027034452E+03  0.42027034452E+03  0.00000000000E+00 0. -1.
         -2   -1    0    0    0  501 -0.00000000000E+00 -0.00000000000E+00 -0.35920187480E+02  0.35920187480E+02  0.00000000000E+00 0.  1.
         23    2    1    2    0    0 -0.17015602130E+02 -0.91796114152E+01  0.68212138281E+02  0.11568585446E+03  0.91414031376E+02 0.  0.
          5    1    1    2  502    0  0.45889158480E+02  0.12630336223E+02  0.30544611995E+03  0.30916785482E+03  0.47000000000E+01 0. -1.
         -5    1    1    2    0  502 -0.28873556350E+02 -0.34507248079E+01  0.10691898806E+02  0.31336822718E+02  0.47000000000E+01 0. -1.
        -11    1    3    3    0    0  0.26724638244E+02  0.16217030309E+02  0.62180068665E+00  0.31266355679E+02  0.00000000000E+00 0.  1.
         11    1    3    3    0    0 -0.43740240374E+02 -0.25396641724E+02  0.67590337595E+02  0.84419498784E+02  0.00000000000E+00 0. -1.
<mgrwt>
<rscale>  0 0.24573310E+03</rscale>
<asrwt>0</asrwt>
<pdfrwt beam="1">  1        2 0.64656973E-01 0.24573310E+03</pdfrwt>
<pdfrwt beam="2">  1       -2 0.55261830E-02 0.24573310E+03</pdfrwt>
<totfact> 0.12524382E+04</totfact>
</mgrwt>
</event>
<event>
 7    1  0.1422977E-005  0.1295899E+03  0.7546771E-02  0.1241873E+00
          1   -1    0    0  501    0  0.00000000000E+00  0.00000000000E+00  0.40193112524E+03  0.40193112524E+03  0.00000000000E+00 0. -1.
         -1   -1    0    0    0  501 -0.00000000000E+00 -0.00000000000E+00 -0.65300143606E+02  0.65300143606E+02  0.00000000000E+00 0.  1.
         23    2    1    2    0    0  0.22193741981E+02  0.25907290186E+02 -0.90203402097E+01  0.98085799901E+02  0.91518892787E+02 0.  0.
          5    1    1    2  502    0  0.82520739637E+01  0.63646535645E+01  0.31455479870E+03  0.31476247699E+03  0.47000000000E+01 0. -1.
         -5    1    1    2    0  502 -0.30445815944E+02 -0.32271943750E+02  0.31096523149E+02  0.54382991955E+02  0.47000000000E+01 0. -1.
        -11    1    3    3    0    0  0.24008896747E+02  0.37866343291E+00  0.37768223054E+02  0.44754990578E+02  0.00000000000E+00 0. -1.
         11    1    3    3    0    0 -0.18151547660E+01  0.25528626753E+02 -0.46788563264E+02  0.53330809323E+02  0.00000000000E+00 0.  1.
<mgrwt>
<rscale>  0 0.12074491E+03</rscale>
<asrwt>0</asrwt>
<pdfrwt beam="1">  1        1 0.61835556E-01 0.12958990E+03</pdfrwt>
<pdfrwt beam="2">  1       -1 0.10046176E-01 0.12958990E+03</pdfrwt>
<totfact> 0.35215071E+03</totfact>
</mgrwt>
</event>
<event>
 7    1  0.1422977E-005  0.1464680E+03  0.7546771E-02  0.1213839E+00
         -3   -1    0    0    0  501 -0.00000000000E+00  0.00000000000E+00  0.74038531441E+03  0.74038531441E+03  0.00000000000E+00 0.  1.
          3   -1    0    0  501    0  0.00000000000E+00 -0.00000000000E+00 -0.24170937830E+02  0.24170937830E+02  0.00000000000E+00 0. -1.
         23    2    1    2    0    0  0.16434094780E+02  0.74552467753E+02  0.31175126681E+03  0.33438966215E+03  0.93805350994E+02 0.  0.
          5    1    1    2  502    0  0.81808900483E+01  0.21131083924E+02  0.13299109433E+02  0.26690934444E+02  0.47000000000E+01 0. -1.
         -5    1    1    2    0  502 -0.24614984828E+02 -0.95683551678E+02  0.39116400034E+03  0.40347565565E+03  0.47000000000E+01 0. -1.
        -11    1    3    3    0    0 -0.32155760363E+02  0.58023857395E+02  0.21308827480E+03  0.22317565684E+03  0.00000000000E+00 0.  1.
         11    1    3    3    0    0  0.48589855143E+02  0.16528610359E+02  0.98662992016E+02  0.11121400531E+03  0.00000000000E+00 0. -1.
<mgrwt>
<rscale>  0 0.13962197E+03</rscale>
<asrwt>0</asrwt>
<pdfrwt beam="2">  1        3 0.37186064E-02 0.14646804E+03</pdfrwt>
<pdfrwt beam="1">  1       -3 0.11390542E+00 0.14646804E+03</pdfrwt>
<totfact> 0.57115658E+02</totfact>
</mgrwt>
</event>
<event>
 7    1  0.1422977E-005  0.1443408E+03  0.7546771E-02  0.1217349E+00
          2   -1    0    0  501    0  0.00000000000E+00  0.00000000000E+00  0.21447879930E+03  0.21447879930E+03  0.00000000000E+00 0. -1.
         -2   -1    0    0    0  501 -0.00000000000E+00 -0.00000000000E+00 -0.79928773337E+02  0.79928773337E+02  0.00000000000E+00 0.  1.
         23    2    1    2    0    0 -0.55622422698E+02  0.45983914656E+02  0.65975675427E+02  0.13460546897E+03  0.92506584704E+02 0.  0.
          5    1    1    2  502    0  0.13737525496E+02 -0.33011098600E+02  0.99570123053E+02  0.10589972447E+03  0.47000000000E+01 0.  1.
         -5    1    1    2    0  502  0.41884897203E+02 -0.12972816056E+02 -0.30995772516E+02  0.53902379205E+02  0.47000000000E+01 0.  1.
        -11    1    3    3    0    0 -0.58636041649E+02  0.21708481738E+02 -0.17990072437E+01  0.62551418742E+02  0.00000000000E+00 0.  1.
         11    1    3    3    0    0  0.30136189506E+01  0.24275432918E+02  0.67774682671E+02  0.72054050224E+02  0.00000000000E+00 0. -1.
<mgrwt>
<rscale>  0 0.13705416E+03</rscale>
<asrwt>0</asrwt>
<pdfrwt beam="1">  1        2 0.32996738E-01 0.14434081E+03</pdfrwt>
<pdfrwt beam="2">  1       -2 0.12296734E-01 0.14434081E+03</pdfrwt>
<totfact> 0.71512102E+03</totfact>
</mgrwt>
</event>
<event>
 7    1  0.1422977E-005  0.1297295E+03  0.7546771E-02  0.1238833E+00
          2   -1    0    0  501    0  0.00000000000E+00  0.00000000000E+00  0.81867832982E+03  0.81867832982E+03  0.00000000000E+00 0. -1.
         -2   -1    0    0    0  501 -0.00000000000E+00 -0.00000000000E+00 -0.19164281213E+02  0.19164281213E+02  0.00000000000E+00 0.  1.
         23    2    1    2    0    0 -0.32598748500E+02  0.11926398309E+02  0.20900418839E+03  0.23325048231E+03  0.97560849492E+02 0.  0.
          5    1    1    2  502    0  0.78467490239E+02 -0.21617519351E+02  0.41056195323E+03  0.41857815472E+03  0.47000000000E+01 0. -1.
         -5    1    1    2    0  502 -0.45868741739E+02  0.96911210421E+01  0.17994790698E+03  0.18601397400E+03  0.47000000000E+01 0. -1.
        -11    1    3    3    0    0  0.23850282742E+02  0.34067879142E+02  0.10383342258E+03  0.11185184854E+03  0.00000000000E+00 0.  1.
         11    1    3    3    0    0 -0.56449031242E+02 -0.22141480833E+02  0.10517076581E+03  0.12139863378E+03  0.00000000000E+00 0. -1.
<mgrwt>
<rscale>  0 0.12262212E+03</rscale>
<asrwt>0</asrwt>
<pdfrwt beam="1">  1        2 0.12595049E+00 0.12972952E+03</pdfrwt>
<pdfrwt beam="2">  1       -2 0.29483516E-02 0.12972952E+03</pdfrwt>
<totfact> 0.14242374E+04</totfact>
</mgrwt>
</event>
<event>
 7    1  0.1422977E-005  0.1466868E+03  0.7546771E-02  0.1214276E+00
         -2   -1    0    0    0  501 -0.00000000000E+00  0.00000000000E+00  0.13871986799E+02  0.13871986799E+02  0.00000000000E+00 0.  1.
          2   -1    0    0  501    0  0.00000000000E+00 -0.00000000000E+00 -0.13100041430E+04  0.13100041430E+04  0.00000000000E+00 0. -1.
         23    2    1    2    0    0 -0.56100452698E+02  0.52383653429E+02 -0.47541115414E+03  0.49014957295E+03  0.91321029583E+02 0.  0.
          5    1    1    2  502    0  0.23656728294E+02 -0.35887846854E+02 -0.71155991689E+02  0.83263698565E+02  0.47000000000E+01 0.  1.
         -5    1    1    2    0  502  0.32443724404E+02 -0.16495806574E+02 -0.74956501034E+03  0.75046285825E+03  0.47000000000E+01 0.  1.
        -11    1    3    3    0    0 -0.75333537262E+02  0.23005718316E+02 -0.38865953890E+03  0.39656101938E+03  0.00000000000E+00 0. -1.
         11    1    3    3    0    0  0.19233084564E+02  0.29377935112E+02 -0.86751615245E+02  0.93588553579E+02  0.00000000000E+00 0.  1.
<mgrwt>
<rscale>  0 0.13929869E+03</rscale>
<asrwt>0</asrwt>
<pdfrwt beam="2">  1        2 0.20153899E+00 0.14668677E+03</pdfrwt>
<pdfrwt beam="1">  1       -2 0.21341529E-02 0.14668677E+03</pdfrwt>
<totfact> 0.11834077E+04</totfact>
</mgrwt>
</event>
<event>
 6    1  0.1422977E-005  0.2437618E+03  0.7546771E-02  0.1126352E+00
          2   -1    0    0  501    0  0.00000000000E+00  0.00000000000E+00  0.17290883490E+04  0.17290883490E+04  0.00000000000E+00 0. -1.
         -2   -1    0    0    0  501 -0.00000000000E+00 -0.00000000000E+00 -0.49864809432E+02  0.49864809432E+02  0.00000000000E+00 0.  1.
          5    1    1    2  502    0  0.14781413493E+03 -0.14084545002E+03  0.11814978336E+04  0.11990186321E+04  0.47000000000E+01 0. -1.
         -5    1    1    2    0  502 -0.34565697400E+02 -0.15065303120E+02  0.30045352581E+03  0.30284676317E+03  0.47000000000E+01 0.  1.
        -11    1    1    2    0    0 -0.55010141080E+01  0.91013306899E+01  0.35527988430E+01  0.11212392972E+02  0.00000000000E+00 0. -1.
         11    1    1    2    0    0 -0.10774742343E+03  0.14680942245E+03  0.19371938126E+03  0.26587537015E+03  0.00000000000E+00 0.  1.
<mgrwt>
<rscale>  0 0.23040863E+03</rscale>
<asrwt>0</asrwt>
<pdfrwt beam="1">  1        2 0.26601355E+00 0.24376184E+03</pdfrwt>
<pdfrwt beam="2">  1       -2 0.76715105E-02 0.24376184E+03</pdfrwt>
<totfact> 0.10451891E+03</totfact>
</mgrwt>
</event>
<event>
 7    1  0.1422977E-005  0.1379002E+03  0.7546771E-02  0.1227496E+00
         -2   -1    0    0    0  501 -0.00000000000E+00  0.00000000000E+00  0.11593749437E+03  0.11593749437E+03  0.00000000000E+00 0. -1.
          2   -1    0    0  501    0  0.00000000000E+00 -0.00000000000E+00 -0.13341396260E+03  0.13341396260E+03  0.00000000000E+00 0.  1.
         23    2    1    2    0    0  0.30386192485E+01 -0.58159865725E+02  0.80087182403E+01  0.10911612173E+03  0.91925977103E+02 0.  0.
          5    1    1    2  502    0  0.13470445825E+02  0.37525101423E+02  0.47663529250E+02  0.62317639301E+02  0.47000000000E+01 0.  1.
         -5    1    1    2    0  502 -0.16509065073E+02  0.20634764303E+02 -0.73148715721E+02  0.77917695930E+02  0.47000000000E+01 0.  1.
        -11    1    3    3    0    0  0.37019338837E+02 -0.18766776322E+02 -0.24087476795E+02  0.47987809699E+02  0.00000000000E+00 0.  1.
         11    1    3    3    0    0 -0.33980719588E+02 -0.39393089403E+02  0.32096195035E+02  0.61128312035E+02  0.00000000000E+00 0. -1.
<mgrwt>
<rscale>  0 0.12997283E+03</rscale>
<asrwt>0</asrwt>
<pdfrwt beam="2">  1        2 0.20525225E-01 0.13790016E+03</pdfrwt>
<pdfrwt beam="1">  1       -2 0.17836538E-01 0.13790016E+03</pdfrwt>
<totfact> 0.65467960E+03</totfact>
</mgrwt>
</event>
<event>
 7    1  0.1422977E-005  0.1406708E+03  0.7546771E-02  0.1222809E+00
          4   -1    0    0  501    0  0.00000000000E+00  0.00000000000E+00  0.50519597225E+02  0.50519597225E+02  0.00000000000E+00 0. -1.
         -4   -1    0    0    0  501 -0.00000000000E+00 -0.00000000000E+00 -0.32787011733E+03  0.32787011733E+03  0.00000000000E+00 0.  1.
         23    2    1    2    0    0 -0.59681377933E+02  0.24565686894E+02 -0.15579894166E+03  0.19247828977E+03  0.92786000912E+02 0.  0.
          5    1    1    2  502    0  0.26550046978E+02 -0.62104779678E+02 -0.16867370057E+02  0.69774686140E+02  0.47000000000E+01 0.  1.
         -5    1    1    2    0  502  0.33131330955E+02  0.37539092784E+02 -0.10468420839E+03  0.11613673865E+03  0.47000000000E+01 0.  1.
        -11    1    3    3    0    0 -0.73111349502E+01  0.48116287936E+02 -0.10532742396E+03  0.11602799704E+03  0.00000000000E+00 0.  1.
         11    1    3    3    0    0 -0.52370242983E+02 -0.23550601043E+02 -0.50471517708E+02  0.76450292735E+02  0.00000000000E+00 0. -1.
<mgrwt>
<rscale>  0 0.13318223E+03</rscale>
<asrwt>0</asrwt>
<pdfrwt beam="1">  1        4 0.77722455E-02 0.14067079E+03</pdfrwt>
<pdfrwt beam="2">  1       -4 0.50441558E-01 0.14067079E+03</pdfrwt>
<totfact> 0.73589783E+02</totfact>
</mgrwt>
</event>
<event>
 7    1  0.1422977E-005  0.1518434E+03  0.7546771E-02  0.1206418E+00
         -3   -1    0    0    0  501 -0.00000000000E+00  0.00000000000E+00  0.10523070922E+03  0.10523070922E+03  0.00000000000E+00 0.  1.
          3   -1    0    0  501    0  0.00000000000E+00 -0.00000000000E+00 -0.18499786854E+03  0.18499786854E+03  0.00000000000E+00 0. -1.
         23    2    1    2    0    0  0.85180224843E+02  0.13273497072E+02 -0.38303966510E+02  0.13282588178E+03  0.93507564350E+02 0.  0.
          5    1    1    2  502    0  0.84780962961E+01 -0.49500175283E+02 -0.21885858103E+02  0.54983872679E+02  0.47000000000E+01 0.  1.
         -5    1    1    2    0  502 -0.93658321139E+02  0.36226678211E+02 -0.19577334709E+02  0.10241882330E+03  0.47000000000E+01 0.  1.
        -11    1    3    3    0    0  0.81843109260E+02 -0.21030456979E+02 -0.47788348302E+02  0.97078838515E+02  0.00000000000E+00 0. -1.
         11    1    3    3    0    0  0.33371155829E+01  0.34303954052E+02  0.94843817915E+01  0.35747043262E+02  0.00000000000E+00 0.  1.
<mgrwt>
<rscale>  0 0.14526272E+03</rscale>
<asrwt>0</asrwt>
<pdfrwt beam="2">  1        3 0.28461211E-01 0.15184338E+03</pdfrwt>
<pdfrwt beam="1">  1       -3 0.16189340E-01 0.15184338E+03</pdfrwt>
<totfact> 0.90424063E+02</totfact>
</mgrwt>
</event>
<event>
 7    1  0.1422977E-005  0.1267216E+03  0.7546771E-02  0.1245703E+00
          2   -1    0    0  501    0  0.00000000000E+00  0.00000000000E+00  0.73402032931E+03  0.73402032931E+03  0.00000000000E+00 0. -1.
         -2   -1    0    0    0  501 -0.00000000000E+00 -0.00000000000E+00 -0.21145083989E+02  0.21145083989E+02  0.00000000000E+00 0.  1.
         23    2    1    2    0    0  0.17705586354E+02  0.27973552897E+02  0.15192873239E+03  0.18008337280E+03  0.90838725140E+02 0.  0.
          5    1    1    2  502    0 -0.64353042368E+02 -0.20056657887E+02  0.43942631469E+03  0.44459100265E+03  0.47000000000E+01 0. -1.
         -5    1    1    2    0  502  0.46647456015E+02 -0.79168950104E+01  0.12152019824E+03  0.13049103785E+03  0.47000000000E+01 0.  1.
        -11    1    3    3    0    0  0.18286516292E+02  0.60916862961E+02  0.95545050731E+02  0.11477855893E+03  0.00000000000E+00 0.  1.
         11    1    3    3    0    0 -0.58092993876E+00 -0.32943310064E+02  0.56383681655E+02  0.65304813870E+02  0.00000000000E+00 0. -1.
<mgrwt>
<rscale>  0 0.11843388E+03</rscale>
<asrwt>0</asrwt>
<pdfrwt beam="1">  1        2 0.11292618E+00 0.12672160E+03</pdfrwt>
<pdfrwt beam="2">  1       -2 0.32530904E-02 0.12672160E+03</pdfrwt>
<totfact> 0.14067656E+04</totfact>
</mgrwt>
</event>
<event>
 7    1  0.1422977E-005  0.1358253E+03  0.7546771E-02  0.1232110E+00
          2   -1    0    0  501    0  0.00000000000E+00  0.00000000000E+00  0.18382932547E+03  0.18382932547E+03  0.00000000000E+00 0.  1.
         -2   -1    0    0    0  501 -0.00000000000E+00 -0.00000000000E+00 -0.80719505054E+02  0.80719505054E+02  0.00000000000E+00 0. -1.
         23    2    1    2    0    0 -0.46820828649E+02 -0.24876922150E+02  0.20406310133E+02  0.10552558085E+03  0.88927945374E+02 0.  0.
          5    1    1    2  502    0 -0.37077204045E+02  0.33094104279E+02  0.19657753751E+02  0.53651244909E+02  0.47000000000E+01 0.  1.
         -5    1    1    2    0  502  0.83898032694E+02 -0.82171821286E+01  0.63045756531E+02  0.10537200477E+03  0.47000000000E+01 0.  1.
        -11    1    3    3    0    0 -0.29805247602E+02  0.16606755133E+01  0.52592059729E+02  0.60473427010E+02  0.00000000000E+00 0.  1.
         11    1    3    3    0    0 -0.17015581047E+02 -0.26537597664E+02 -0.32185749596E+02  0.45052153835E+02  0.00000000000E+00 0. -1.
<mgrwt>
<rscale>  0 0.12691298E+03</rscale>
<asrwt>0</asrwt>
<pdfrwt beam="1">  1        2 0.28281435E-01 0.13582534E+03</pdfrwt>
<pdfrwt beam="2">  1       -2 0.12418385E-01 0.13582534E+03</pdfrwt>
<totfact> 0.82830321E+03</totfact>
</mgrwt>
</event>
<event>
 7    1  0.1422977E-005  0.2237964E+03  0.7546771E-02  0.1131084E+00
         -1   -1    0    0    0  501 -0.00000000000E+00  0.00000000000E+00  0.48241896040E+02  0.48241896040E+02  0.00000000000E+00 0.  1.
          1   -1    0    0  501    0  0.00000000000E+00 -0.00000000000E+00 -0.25955036501E+03  0.25955036501E+03  0.00000000000E+00 0. -1.
         23    2    1    2    0    0 -0.28409146640E+00  0.25196981871E+02 -0.64284088360E+02  0.11317982216E+03  0.89678645872E+02 0.  0.
          5    1    1    2  502    0 -0.54028996797E+01  0.50043850913E+02 -0.45372333500E+02  0.67928764057E+02  0.47000000000E+01 0. -1.
         -5    1    1    2    0  502  0.56869911461E+01 -0.75240832783E+02 -0.10165204711E+03  0.12668367483E+03  0.47000000000E+01 0. -1.
        -11    1    3    3    0    0  0.67002257766E+01  0.50648409401E+02 -0.89415020160E+01  0.51866220786E+02  0.00000000000E+00 0.  1.
         11    1    3    3    0    0 -0.69843172430E+01 -0.25451427530E+02 -0.55342586344E+02  0.61313601378E+02  0.00000000000E+00 0. -1.
<mgrwt>
<rscale>  0 0.22379635E+03</rscale>
<asrwt>0</asrwt>
<pdfrwt beam="2">  1        1 0.39930825E-01 0.22379635E+03</pdfrwt>
<pdfrwt beam="1">  1       -1 0.74218303E-02 0.22379635E+03</pdfrwt>
<totfact> 0.99563516E+03</totfact>
</mgrwt>
</event>
<event>
 7    1  0.1422977E-005  0.1629401E+03  0.7546771E-02  0.1193662E+00
          2   -1    0    0  501    0  0.00000000000E+00  0.00000000000E+00  0.95889447122E+03  0.95889447122E+03  0.00000000000E+00 0. -1.
         -2   -1    0    0    0  501 -0.00000000000E+00 -0.00000000000E+00 -0.23381572108E+02  0.23381572108E+02  0.00000000000E+00 0.  1.
         23    2    1    2    0    0 -0.91710050192E+02  0.50135471079E+02  0.39100154664E+03  0.41390813395E+03  0.86680073326E+02 0.  0.
          5    1    1    2  502    0 -0.27742289108E+02 -0.19134449089E+02  0.67010570569E+02  0.75154962011E+02  0.47000000000E+01 0.  1.
         -5    1    1    2    0  502  0.11945233930E+03 -0.31001021991E+02  0.47750078191E+03  0.49321294737E+03  0.47000000000E+01 0.  1.
        -11    1    3    3    0    0 -0.32768738405E+02 -0.14480820802E+02  0.20821708732E+03  0.21127669024E+03  0.00000000000E+00 0.  1.
         11    1    3    3    0    0 -0.58941311787E+02  0.64616291882E+02  0.18278445932E+03  0.20263144371E+03  0.00000000000E+00 0. -1.
<mgrwt>
<rscale>  0 0.15568056E+03</rscale>
<asrwt>0</asrwt>
<pdfrwt beam="1">  1        2 0.14752220E+00 0.16294007E+03</pdfrwt>
<pdfrwt beam="2">  1       -2 0.35971657E-02 0.16294007E+03</pdfrwt>
<totfact> 0.87594731E+03</totfact>
</mgrwt>
</event>
<event>
 7    1  0.1422977E-005  0.1484273E+03  0.7546771E-02  0.1220753E+00
         -2   -1    0    0    0  501 -0.00000000000E+00  0.00000000000E+00  0.10529291751E+02  0.10529291751E+02  0.00000000000E+00 0.  1.
          2   -1    0    0  501    0  0.00000000000E+00 -0.00000000000E+00 -0.14903147565E+04  0.14903147565E+04  0.00000000000E+00 0. -1.
         23    2    1    2    0    0 -0.74760403447E+02 -0.30177713437E+02 -0.51442817300E+03  0.52414278057E+03  0.59912410493E+02 0.  0.
          5    1    1    2  502    0  0.91247357133E+02  0.37941636831E+02 -0.93963689749E+03  0.94483079814E+03  0.47000000000E+01 0. -1.
         -5    1    1    2    0  502 -0.16486953687E+02 -0.77639233948E+01 -0.25720394271E+02  0.31870469557E+02  0.47000000000E+01 0. -1.
        -11    1    3    3    0    0 -0.65552897285E+02  0.24442272060E+01 -0.37175839473E+03  0.37750160350E+03  0.00000000000E+00 0.  1.
         11    1    3    3    0    0 -0.92075061617E+01 -0.32621940643E+02 -0.14266977827E+03  0.14664117707E+03  0.00000000000E+00 0. -1.
<mgrwt>
<rscale>  0 0.13462262E+03</rscale>
<asrwt>0</asrwt>
<pdfrwt beam="2">  1        2 0.22927894E+00 0.14842731E+03</pdfrwt>
<pdfrwt beam="1">  1       -2 0.16198928E-02 0.14842731E+03</pdfrwt>
<totfact> 0.14176170E+04</totfact>
</mgrwt>
</event>
<event>
 7    1  0.1422977E-005  0.1431692E+03  0.7546771E-02  0.1219350E+00
         -4   -1    0    0    0  501 -0.00000000000E+00  0.00000000000E+00  0.39931849534E+03  0.39931849534E+03  0.00000000000E+00 0.  1.
          4   -1    0    0  501    0  0.00000000000E+00 -0.00000000000E+00 -0.41894303131E+02  0.41894303131E+02  0.00000000000E+00 0. -1.
         23    2    1    2    0    0  0.66175346880E+02 -0.22194528018E+02  0.16895969675E+03  0.20453520364E+03  0.91736016879E+02 0.  0.
          5    1    1    2  502    0 -0.68800477932E+00 -0.28056678486E+02  0.13557448744E+03  0.13852863315E+03  0.47000000000E+01 0.  1.
         -5    1    1    2    0  502 -0.65487342101E+02  0.50251206503E+02  0.52890008015E+02  0.98148961677E+02  0.47000000000E+01 0.  1.
        -11    1    3    3    0    0  0.81173478027E+02  0.36374567057E+01  0.14511330877E+03  0.16631367054E+03  0.00000000000E+00 0.  1.
         11    1    3    3    0    0 -0.14998131147E+02 -0.25831984724E+02  0.23846387978E+02  0.38221533097E+02  0.00000000000E+00 0. -1.
<mgrwt>
<rscale>  0 0.13561779E+03</rscale>
<asrwt>0</asrwt>
<pdfrwt beam="2">  1        4 0.64452777E-02 0.14316919E+03</pdfrwt>
<pdfrwt beam="1">  1       -4 0.61433612E-01 0.14316919E+03</pdfrwt>
<totfact> 0.66729442E+02</totfact>
</mgrwt>
</event>
<event>
 7    1  0.1422977E-005  0.1571834E+03  0.7546771E-02  0.1200066E+00
          3   -1    0    0  501    0  0.00000000000E+00  0.00000000000E+00  0.33870553251E+02  0.33870553251E+02  0.00000000000E+00 0. -1.
         -3   -1    0    0    0  501 -0.00000000000E+00 -0.00000000000E+00 -0.61559849020E+03  0.61559849020E+03  0.00000000000E+00 0.  1.
         23    2    1    2    0    0 -0.90964293178E+02  0.28379655824E+02 -0.27332469674E+03  0.30331996329E+03  0.90646030165E+02 0.  0.
          5    1    1    2  502    0  0.10204465500E+03  0.20327108171E+02 -0.17535405353E+03  0.20395449745E+03  0.47000000000E+01 0.  1.
         -5    1    1    2    0  502 -0.11080361818E+02 -0.48706763994E+02 -0.13304918668E+03  0.14219458271E+03  0.47000000000E+01 0.  1.
        -11    1    3    3    0    0 -0.19985505367E+00 -0.23413743195E+02 -0.82452734705E+02  0.85712874020E+02  0.00000000000E+00 0.  1.
         11    1    3    3    0    0 -0.90764438124E+02  0.51793399018E+02 -0.19087196204E+03  0.21760708927E+03  0.00000000000E+00 0. -1.
<mgrwt>
<rscale>  0 0.15033156E+03</rscale>
<asrwt>0</asrwt>
<pdfrwt beam="1">  1        3 0.52108549E-02 0.15718342E+03</pdfrwt>
<pdfrwt beam="2">  1       -3 0.94707450E-01 0.15718342E+03</pdfrwt>
<totfact> 0.51768530E+02</totfact>
</mgrwt>
</event>
<event>
 7    1  0.1422977E-005  0.1690456E+03  0.7546771E-02  0.1185597E+00
          2   -1    0    0  501    0  0.00000000000E+00  0.00000000000E+00  0.61797765082E+03  0.61797765082E+03  0.00000000000E+00 0.  1.
         -2   -1    0    0    0  501 -0.00000000000E+00 -0.00000000000E+00 -0.39984980896E+02  0.39984980896E+02  0.00000000000E+00 0. -1.
         23    2    1    2    0    0 -0.94287662801E+02  0.63727804098E+02  0.26463898554E+03  0.30191917429E+03  0.90388045494E+02 0.  0.
          5    1    1    2  502    0  0.53561657384E+02 -0.88438988791E+02  0.27768771228E+03  0.29634922208E+03  0.47000000000E+01 0.  1.
         -5    1    1    2    0  502  0.40726005417E+02  0.24711184693E+02  0.35665972110E+02  0.59694235339E+02  0.47000000000E+01 0.  1.
        -11    1    3    3    0    0 -0.10441247043E+03  0.43389288094E+02  0.25131993434E+03  0.27558356936E+03  0.00000000000E+00 0.  1.
         11    1    3    3    0    0  0.10124807625E+02  0.20338516004E+02  0.13319051197E+02  0.26335604939E+02  0.00000000000E+00 0. -1.
<mgrwt>
<rscale>  0 0.16277706E+03</rscale>
<asrwt>0</asrwt>
<pdfrwt beam="1">  1        2 0.95073478E-01 0.16904559E+03</pdfrwt>
<pdfrwt beam="2">  1       -2 0.61515360E-02 0.16904559E+03</pdfrwt>
<totfact> 0.67563863E+03</totfact>
</mgrwt>
</event>
<event>
 7    1  0.1422977E-005  0.1657321E+03  0.7546771E-02  0.1190788E+00
          4   -1    0    0  501    0  0.00000000000E+00  0.00000000000E+00  0.16672952382E+03  0.16672952382E+03  0.00000000000E+00 0. -1.
         -4   -1    0    0    0  501 -0.00000000000E+00 -0.00000000000E+00 -0.13786830088E+03  0.13786830088E+03  0.00000000000E+00 0.  1.
         23    2    1    2    0    0 -0.62948571108E+02  0.88770850803E+02  0.15270351034E+02  0.13830938556E+03  0.83985212724E+02 0.  0.
          5    1    1    2  502    0  0.28970296977E+02 -0.63731709841E+02 -0.52567445108E+02  0.87672317361E+02  0.47000000000E+01 0.  1.
         -5    1    1    2    0  502  0.33978274131E+02 -0.25039140962E+02  0.66158317020E+02  0.78616121782E+02  0.47000000000E+01 0.  1.
        -11    1    3    3    0    0 -0.42081186993E+02  0.10328673177E+03  0.17057427586E+02  0.11282699630E+03  0.00000000000E+00 0.  1.
         11    1    3    3    0    0 -0.20867384115E+02 -0.14515880963E+02 -0.17870765514E+01  0.25482389263E+02  0.00000000000E+00 0. -1.
<mgrwt>
<rscale>  0 0.15816198E+03</rscale>
<asrwt>0</asrwt>
<pdfrwt beam="1">  1        4 0.25650696E-01 0.16573211E+03</pdfrwt>
<pdfrwt beam="2">  1       -4 0.21210508E-01 0.16573211E+03</pdfrwt>
<totfact> 0.49871582E+02</totfact>
</mgrwt>
</event>
<event>
 7    1  0.1422977E-005  0.1112808E+03  0.7546771E-02  0.1267984E+00
         -2   -1    0    0    0  501 -0.00000000000E+00  0.00000000000E+00  0.19156157246E+03  0.19156157246E+03  0.00000000000E+00 0.  1.
          2   -1    0    0  501    0  0.00000000000E+00 -0.00000000000E+00 -0.57521783482E+02  0.57521783482E+02  0.00000000000E+00 0. -1.
         23    2    1    2    0    0  0.27552728716E+01  0.80370558815E+01  0.92189755748E+02  0.13019333267E+03  0.91537790076E+02 0.  0.
          5    1    1    2  502    0 -0.29274987129E+02  0.33872385043E+02 -0.10917845352E+02  0.46321190475E+02  0.47000000000E+01 0. -1.
         -5    1    1    2    0  502  0.26519714257E+02 -0.41909440924E+02  0.52767878581E+02  0.72568832792E+02  0.47000000000E+01 0.  1.
        -11    1    3    3    0    0 -0.26018018756E+02 -0.17966045210E+02  0.85079414203E+02  0.90764656125E+02  0.00000000000E+00 0.  1.
         11    1    3    3    0    0  0.28773291628E+02  0.26003101092E+02  0.71103415450E+01  0.39428676548E+02  0.00000000000E+00 0. -1.
<mgrwt>
<rscale>  0 0.10609158E+03</rscale>
<asrwt>0</asrwt>
<pdfrwt beam="2">  1        2 0.88495053E-02 0.11128078E+03</pdfrwt>
<pdfrwt beam="1">  1       -2 0.29471011E-01 0.11128078E+03</pdfrwt>
<totfact> 0.73303601E+03</totfact>
</mgrwt>
</event>
<event>
 7    1  0.1422977E-005  0.2128807E+03  0.7546771E-02  0.1142956E+00
          2   -1    0    0  501    0  0.00000000000E+00  0.00000000000E+00  0.12547055611E+04  0.12547055611E+04  0.00000000000E+00 0. -1.
         -2   -1    0    0    0  501 -0.00000000000E+00 -0.00000000000E+00 -0.37627208478E+02  0.37627208478E+02  0.00000000000E+00 0.  1.
         23    2    1    2    0    0 -0.82279186000E+02  0.15140246258E+03  0.36214303283E+03  0.41129214784E+03  0.91219978767E+02 0.  0.
          5    1    1    2  502    0  0.79656501039E+02 -0.11369719046E+03  0.81136787791E+03  0.82317199453E+03  0.47000000000E+01 0. -1.
         -5    1    1    2    0  502  0.26226849612E+01 -0.37705272119E+02  0.43567441876E+02  0.57868627197E+02  0.47000000000E+01 0. -1.
        -11    1    3    3    0    0 -0.68994640979E+02  0.13960999869E+03  0.36138754688E+03  0.39351260623E+03  0.00000000000E+00 0. -1.
         11    1    3    3    0    0 -0.13284545021E+02  0.11792463889E+02  0.75548594534E+00  0.17779541614E+02  0.00000000000E+00 0.  1.
<mgrwt>
<rscale>  0 0.20825460E+03</rscale>
<asrwt>0</asrwt>
<pdfrwt beam="1">  1        2 0.19303159E+00 0.21288066E+03</pdfrwt>
<pdfrwt beam="2">  1       -2 0.57888023E-02 0.21288066E+03</pdfrwt>
<totfact> 0.29013957E+03</totfact>
</mgrwt>
</event>
<event>
 7    1  0.1422977E-005  0.1928959E+03  0.7546771E-02  0.1160846E+00
         -2   -1    0    0    0  501 -0.00000000000E+00  0.00000000000E+00  0.11141610904E+03  0.11141610904E+03  0.00000000000E+00 0.  1.
          2   -1    0    0  501    0  0.00000000000E+00 -0.00000000000E+00 -0.30462752029E+03  0.30462752029E+03  0.00000000000E+00 0. -1.
         23    2    1    2    0    0 -0.27010044422E+01 -0.14689489407E+03 -0.61368551285E+02  0.18239563879E+03  0.88975640693E+02 0.  0.
          5    1    1    2  502    0  0.86671183242E+01 -0.21612627811E+02 -0.11180007430E+02  0.26254660293E+02  0.47000000000E+01 0.  1.
         -5    1    1    2    0  502 -0.59661138820E+01  0.16850752188E+03 -0.12066285254E+03  0.20739333024E+03  0.47000000000E+01 0.  1.
        -11    1    3    3    0    0 -0.94319849966E+01 -0.10500930310E+03  0.28027359783E+01  0.10546929130E+03  0.00000000000E+00 0.  1.
         11    1    3    3    0    0  0.67309805544E+01 -0.41885590969E+02 -0.64171287264E+02  0.76926347496E+02  0.00000000000E+00 0. -1.
<mgrwt>
<rscale>  0 0.18738028E+03</rscale>
<asrwt>0</asrwt>
<pdfrwt beam="2">  1        2 0.46865772E-01 0.19289594E+03</pdfrwt>
<pdfrwt beam="1">  1       -2 0.17140940E-01 0.19289594E+03</pdfrwt>
<totfact> 0.28947355E+03</totfact>
</mgrwt>
</event>
<event>
 7    1  0.1422977E-005  0.1334024E+03  0.7546771E-02  0.1235774E+00
         -2   -1    0    0    0  501 -0.00000000000E+00  0.00000000000E+00  0.34966923630E+03  0.34966923630E+03  0.00000000000E+00 0.  1.
          2   -1    0    0  501    0  0.00000000000E+00 -0.00000000000E+00 -0.39406612138E+02  0.39406612138E+02  0.00000000000E+00 0. -1.
         23    2    1    2    0    0  0.30734591958E+02  0.35025400501E+02  0.13500132176E+03  0.16881982685E+03  0.90018793794E+02 0.  0.
          5    1    1    2  502    0  0.19631728490E+02  0.11015051928E+02  0.14262816054E+03  0.14447012948E+03  0.47000000000E+01 0.  1.
         -5    1    1    2    0  502 -0.50366320448E+02 -0.46040452429E+02  0.32633141857E+02  0.75785892109E+02  0.47000000000E+01 0.  1.
        -11    1    3    3    0    0  0.17586646091E+02  0.57033562464E+02  0.12951165721E+03  0.14260219747E+03  0.00000000000E+00 0.  1.
         11    1    3    3    0    0  0.13147945866E+02 -0.22008161963E+02  0.54896645492E+01  0.26217629381E+02  0.00000000000E+00 0. -1.
<mgrwt>
<rscale>  0 0.12455013E+03</rscale>
<asrwt>0</asrwt>
<pdfrwt beam="2">  1        2 0.60625559E-02 0.13340236E+03</pdfrwt>
<pdfrwt beam="1">  1       -2 0.53795265E-01 0.13340236E+03</pdfrwt>
<totfact> 0.38423453E+03</totfact>
</mgrwt>
</event>
<event>
 7    1  0.1422977E-005  0.1445393E+03  0.7546771E-02  0.1217265E+00
          2   -1    0    0  501    0  0.00000000000E+00  0.00000000000E+00  0.10920494957E+03  0.10920494957E+03  0.00000000000E+00 0. -1.
         -2   -1    0    0    0  501 -0.00000000000E+00 -0.00000000000E+00 -0.15666445855E+03  0.15666445855E+03  0.00000000000E+00 0.  1.
         23    2    1    2    0    0 -0.48296606215E+02  0.54169960017E+02 -0.20124649492E+02  0.11876805958E+03  0.91836287593E+02 0.  0.
          5    1    1    2  502    0  0.91042944908E+01 -0.77926741645E+02 -0.52583863593E+02  0.94565416258E+02  0.47000000000E+01 0. -1.
         -5    1    1    2    0  502  0.39192311725E+02  0.23756781628E+02  0.25249004104E+02  0.52535932274E+02  0.47000000000E+01 0. -1.
        -11    1    3    3    0    0 -0.23971044090E+01  0.29893031398E+02 -0.50410872447E+02  0.58656589541E+02  0.00000000000E+00 0.  1.
         11    1    3    3    0    0 -0.45899501806E+02  0.24276928618E+02  0.30286222955E+02  0.60111470038E+02  0.00000000000E+00 0. -1.
<mgrwt>
<rscale>  0 0.13711435E+03</rscale>
<asrwt>0</asrwt>
<pdfrwt beam="1">  1        2 0.16800761E-01 0.14453931E+03</pdfrwt>
<pdfrwt beam="2">  1       -2 0.24102224E-01 0.14453931E+03</pdfrwt>
<totfact> 0.49445073E+03</totfact>
</mgrwt>
</event>
<event>
 7    1  0.1422977E-005  0.1620169E+03  0.7546771E-02  0.1195319E+00
         -2   -1    0    0    0  501 -0.00000000000E+00  0.00000000000E+00  0.66219858003E+02  0.66219858003E+02  0.00000000000E+00 0.  1.
          2   -1    0    0  501    0  0.00000000000E+00 -0.00000000000E+00 -0.33884273622E+03  0.33884273622E+03  0.00000000000E+00 0. -1.
         23    2    1    2    0    0  0.25443060947E+02 -0.99890581142E+02 -0.89048316627E+02  0.16021753763E+03  0.84347964518E+02 0.  0.
          5    1    1    2  502    0  0.40346137292E+02  0.19369374232E+01 -0.27336689784E+02  0.48999460500E+02  0.47000000000E+01 0.  1.
         -5    1    1    2    0  502 -0.65789198239E+02  0.97953643719E+02 -0.15623787181E+03  0.19584559609E+03  0.47000000000E+01 0.  1.
        -11    1    3    3    0    0  0.40462020429E+01 -0.29880738184E+02  0.14456949637E+02  0.33440000871E+02  0.00000000000E+00 0.  1.
         11    1    3    3    0    0  0.21396858905E+02 -0.70009842958E+02 -0.10350526626E+03  0.12677753676E+03  0.00000000000E+00 0. -1.
<mgrwt>
<rscale>  0 0.15427290E+03</rscale>
<asrwt>0</asrwt>
<pdfrwt beam="2">  1        2 0.52129652E-01 0.16201692E+03</pdfrwt>
<pdfrwt beam="1">  1       -2 0.10187670E-01 0.16201692E+03</pdfrwt>
<totfact> 0.59625594E+03</totfact>
</mgrwt>
</event>
<event>
 7    1  0.1422977E-005  0.1314315E+03  0.7546771E-02  0.1238163E+00
          2   -1    0    0  501    0  0.00000000000E+00  0.00000000000E+00  0.26688497459E+03  0.26688497459E+03  0.00000000000E+00 0. -1.
         -2   -1    0    0    0  501 -0.00000000000E+00 -0.00000000000E+00 -0.52344813667E+02  0.52344813667E+02  0.00000000000E+00 0.  1.
         23    2    1    2    0    0  0.38097028211E+02  0.14075297885E+02  0.64643644610E+02  0.11987280697E+03  0.92418566819E+02 0.  0.
          5    1    1    2  502    0  0.32955430822E+01  0.45626642714E+02  0.10289333957E+03  0.11270217592E+03  0.47000000000E+01 0.  1.
         -5    1    1    2    0  502 -0.41392571293E+02 -0.59701940599E+02  0.47003176747E+02  0.86654805371E+02  0.47000000000E+01 0.  1.
        -11    1    3    3    0    0 -0.29481797412E+02  0.54997553391E+01  0.33522508863E+02  0.44979798665E+02  0.00000000000E+00 0. -1.
         11    1    3    3    0    0  0.67578825623E+02  0.85755425462E+01  0.31121135747E+02  0.74893008303E+02  0.00000000000E+00 0.  1.
<mgrwt>
<rscale>  0 0.12304106E+03</rscale>
<asrwt>0</asrwt>
<pdfrwt beam="1">  1        2 0.41059226E-01 0.13143150E+03</pdfrwt>
<pdfrwt beam="2">  1       -2 0.80530484E-02 0.13143150E+03</pdfrwt>
<totfact> 0.10937789E+04</totfact>
</mgrwt>
</event>
<event>
 7    1  0.1422977E-005  0.1361756E+03  0.7546771E-02  0.1237189E+00
         -2   -1    0    0    0  501 -0.00000000000E+00  0.00000000000E+00  0.56518398810E+02  0.56518398810E+02  0.00000000000E+00 0.  1.
          2   -1    0    0  501    0  0.00000000000E+00 -0.00000000000E+00 -0.24429421686E+03  0.24429421686E+03  0.00000000000E+00 0. -1.
         23    2    1    2    0    0  0.13611691844E+02 -0.54389291657E+01 -0.43077053786E+02  0.10211300446E+03  0.91414293255E+02 0.  0.
          5    1    1    2  502    0 -0.18279920804E+02 -0.10476667153E+02 -0.16818546785E+03  0.16956520178E+03  0.47000000000E+01 0. -1.
         -5    1    1    2    0  502  0.46682289603E+01  0.15915596318E+02  0.23486703584E+02  0.29134409433E+02  0.47000000000E+01 0.  1.
        -11    1    3    3    0    0  0.32394848148E+02  0.25508982369E+02  0.54271456211E+01  0.41588319005E+02  0.00000000000E+00 0. -1.
         11    1    3    3    0    0 -0.18783156305E+02 -0.30947911534E+02 -0.48504199407E+02  0.60524685453E+02  0.00000000000E+00 0.  1.
<mgrwt>
<rscale>  0 0.12365345E+03</rscale>
<asrwt>0</asrwt>
<pdfrwt beam="2">  1        2 0.37583726E-01 0.13617563E+03</pdfrwt>
<pdfrwt beam="1">  1       -2 0.86951382E-02 0.13617563E+03</pdfrwt>
<totfact> 0.10699923E+04</totfact>
</mgrwt>
</event>
<event>
 7    1  0.1422977E-005  0.2037630E+03  0.7546771E-02  0.1151372E+00
          1   -1    0    0  501    0  0.00000000000E+00  0.00000000000E+00  0.99531125111E+02  0.99531125111E+02  0.00000000000E+00 0. -1.
         -1   -1    0    0    0  501 -0.00000000000E+00 -0.00000000000E+00 -0.65248353217E+03  0.65248353217E+03  0.00000000000E+00 0.  1.
         23    2    1    2    0    0 -0.14673945955E+03 -0.57688602863E+02 -0.51307926186E+03  0.54438703714E+03  0.90810095032E+02 0.  0.
          5    1    1    2  502    0  0.76633349156E+02 -0.12053109757E+02  0.33269577843E+02  0.84539354548E+02  0.47000000000E+01 0. -1.
         -5    1    1    2    0  502  0.70106110396E+02  0.69741712620E+02 -0.73142723044E+02  0.12308826560E+03  0.47000000000E+01 0.  1.
        -11    1    3    3    0    0 -0.69302436691E+02 -0.69247721632E+02 -0.35054431193E+03  0.36397718240E+03  0.00000000000E+00 0.  1.
         11    1    3    3    0    0 -0.77437022860E+02  0.11559118769E+02 -0.16253494994E+03  0.18040985474E+03  0.00000000000E+00 0. -1.
<mgrwt>
<rscale>  0 0.19807690E+03</rscale>
<asrwt>0</asrwt>
<pdfrwt beam="1">  1        1 0.15312482E-01 0.20376300E+03</pdfrwt>
<pdfrwt beam="2">  1       -1 0.10038208E+00 0.20376300E+03</pdfrwt>
<totfact> 0.36406457E+02</totfact>
</mgrwt>
</event>
<event>
 7    1  0.1422977E-005  0.1576442E+03  0.7546771E-02  0.1200325E+00
         -2   -1    0    0    0  501 -0.00000000000E+00  0.00000000000E+00  0.15136238622E+02  0.15136238622E+02  0.00000000000E+00 0.  1.
          2   -1    0    0  501    0  0.00000000000E+00 -0.00000000000E+00 -0.14900389334E+04  0.14900389334E+04  0.00000000000E+00 0. -1.
         23    2    1    2    0    0  0.19024998296E+02  0.94180894798E+02 -0.45297918475E+03  0.47116388194E+03  0.87024538621E+02 0.  0.
          5    1    1    2  502    0  0.39646176652E+02  0.34888078017E+00 -0.15916696353E+03  0.16409799913E+03  0.47000000000E+01 0.  1.
         -5    1    1    2    0  502 -0.58671174947E+02 -0.94529775578E+02 -0.86275654650E+03  0.86991329095E+03  0.47000000000E+01 0.  1.
        -11    1    3    3    0    0  0.29112335655E+02  0.10642891210E+03 -0.42403718017E+03  0.43815770173E+03  0.00000000000E+00 0. -1.
         11    1    3    3    0    0 -0.10087337359E+02 -0.12248017305E+02 -0.28942004584E+02  0.33006180213E+02  0.00000000000E+00 0.  1.
<mgrwt>
<rscale>  0 0.15012019E+03</rscale>
<asrwt>0</asrwt>
<pdfrwt beam="2">  1        2 0.22923678E+00 0.15764418E+03</pdfrwt>
<pdfrwt beam="1">  1       -2 0.23286519E-02 0.15764418E+03</pdfrwt>
<totfact> 0.83837807E+03</totfact>
</mgrwt>
</event>
<event>
 7    1  0.1422977E-005  0.1370269E+03  0.7546771E-02  0.1229449E+00
         -2   -1    0    0    0  501 -0.00000000000E+00  0.00000000000E+00  0.13901790613E+02  0.13901790613E+02  0.00000000000E+00 0.  1.
          2   -1    0    0  501    0  0.00000000000E+00 -0.00000000000E+00 -0.12300166580E+04  0.12300166580E+04  0.00000000000E+00 0. -1.
         23    2    1    2    0    0  0.21249666518E+02  0.51961097977E+02 -0.31692066129E+03  0.33434349009E+03  0.90528226449E+02 0.  0.
          5    1    1    2  502    0 -0.40028132347E+02 -0.80225403761E+02 -0.43780713175E+03  0.44691782399E+03  0.47000000000E+01 0. -1.
         -5    1    1    2    0  502  0.18778465829E+02  0.28264305784E+02 -0.46138707433E+03  0.46265713452E+03  0.47000000000E+01 0. -1.
        -11    1    3    3    0    0  0.47946367748E+02  0.24034711729E+02 -0.95079378821E+02  0.10916322561E+03  0.00000000000E+00 0.  1.
         11    1    3    3    0    0 -0.26696701229E+02  0.27926386248E+02 -0.22184128247E+03  0.22518026449E+03  0.00000000000E+00 0. -1.
<mgrwt>
<rscale>  0 0.12866605E+03</rscale>
<asrwt>0</asrwt>
<pdfrwt beam="2">  1        2 0.18923332E+00 0.13702695E+03</pdfrwt>
<pdfrwt beam="1">  1       -2 0.21387372E-02 0.13702695E+03</pdfrwt>
<totfact> 0.12994148E+04</totfact>
</mgrwt>
</event>
<event>
 7    1  0.1422977E-005  0.1299038E+03  0.7546771E-02  0.1241651E+00
          2   -1    0    0  501    0  0.00000000000E+00  0.00000000000E+00  0.27882233302E+03  0.27882233302E+03  0.00000000000E+00 0. -1.
         -2   -1    0    0    0  501 -0.00000000000E+00 -0.00000000000E+00 -0.48024990182E+02  0.48024990182E+02  0.00000000000E+00 0.  1.
         23    2    1    2    0    0 -0.30364202696E+02 -0.18145323769E+02  0.69055514385E+02  0.11939751005E+03  0.90751659821E+02 0.  0.
          5    1    1    2  502    0  0.67430180165E+02 -0.24783670194E+02  0.10293838102E+03  0.12561631977E+03  0.47000000000E+01 0. -1.
         -5    1    1    2    0  502 -0.37065977469E+02  0.42928993963E+02  0.58803447433E+02  0.81833493378E+02  0.47000000000E+01 0. -1.
        -11    1    3    3    0    0 -0.34900314913E+02 -0.50534563079E+02  0.29678929346E+02  0.68210064461E+02  0.00000000000E+00 0.  1.
         11    1    3    3    0    0  0.45361122175E+01  0.32389239310E+02  0.39376585039E+02  0.51187445594E+02  0.00000000000E+00 0. -1.
<mgrwt>
<rscale>  0 0.12088103E+03</rscale>
<asrwt>0</asrwt>
<pdfrwt beam="1">  1        2 0.42895743E-01 0.12990383E+03</pdfrwt>
<pdfrwt beam="2">  1       -2 0.73884602E-02 0.12990383E+03</pdfrwt>
<totfact> 0.11911071E+04</totfact>
</mgrwt>
</event>
<event>
 7    1  0.1422977E-005  0.1491749E+03  0.7546771E-02  0.1210679E+00
          2   -1    0    0  501    0  0.00000000000E+00  0.00000000000E+00  0.65251042111E+03  0.65251042111E+03  0.00000000000E+00 0. -1.
         -2   -1    0    0    0  501 -0.00000000000E+00 -0.00000000000E+00 -0.28536047154E+02  0.28536047154E+02  0.00000000000E+00 0.  1.
         23    2    1    2    0    0 -0.75403037183E+02 -0.30711980248E+02  0.24855219587E+03  0.27707251981E+03  0.91444756064E+02 0.  0.
          5    1    1    2  502    0  0.72406449252E+02  0.65380417277E+02  0.34134414191E+03  0.35504254121E+03  0.47000000000E+01 0.  1.
         -5    1    1    2    0  502  0.29965879303E+01 -0.34668437029E+02  0.34078036174E+02  0.48931407242E+02  0.47000000000E+01 0.  1.
        -11    1    3    3    0    0 -0.89254006911E+02 -0.64680239639E+00  0.18565829867E+03  0.20599927176E+03  0.00000000000E+00 0.  1.
         11    1    3    3    0    0  0.13850969729E+02 -0.30065177852E+02  0.62893897204E+02  0.71073248042E+02  0.00000000000E+00 0. -1.
<mgrwt>
<rscale>  0 0.14198763E+03</rscale>
<asrwt>0</asrwt>
<pdfrwt beam="1">  1        2 0.10038621E+00 0.14917486E+03</pdfrwt>
<pdfrwt beam="2">  1       -2 0.43901616E-02 0.14917486E+03</pdfrwt>
<totfact> 0.10482927E+04</totfact>
</mgrwt>
</event>
<event>
 7    1  0.1422977E-005  0.1372855E+03  0.7546771E-02  0.1220217E+00
          1   -1    0    0  501    0  0.00000000000E+00  0.00000000000E+00  0.93165946650E+03  0.93165946650E+03  0.00000000000E+00 0. -1.
         -1   -1    0    0    0  501 -0.00000000000E+00 -0.00000000000E+00 -0.19195054401E+02  0.19195054401E+02  0.00000000000E+00 0.  1.
         23    2    1    2    0    0  0.15157016858E+01 -0.56776482492E+02  0.38618043948E+03  0.40695919077E+03  0.11512855769E+03 0.  0.
          5    1    1    2  502    0  0.41659403913E+02  0.26060633571E+02  0.43837103591E+03  0.44114160728E+03  0.47000000000E+01 0.  1.
         -5    1    1    2    0  502 -0.43175105599E+02  0.30715848920E+02  0.87912936707E+02  0.10275372285E+03  0.47000000000E+01 0.  1.
        -11    1    3    3    0    0  0.72106316910E+01  0.18259979591E+02  0.77292526438E+01  0.21098848558E+02  0.00000000000E+00 0.  1.
         11    1    3    3    0    0 -0.56949300053E+01 -0.75036462083E+02  0.37845118684E+03  0.38586034221E+03  0.00000000000E+00 0. -1.
<mgrwt>
<rscale>  0 0.13500183E+03</rscale>
<asrwt>0</asrwt>
<pdfrwt beam="1">  1        1 0.14333219E+00 0.13728551E+03</pdfrwt>
<pdfrwt beam="2">  1       -1 0.29530860E-02 0.13728551E+03</pdfrwt>
<totfact> 0.67571315E+03</totfact>
</mgrwt>
</event>
<event>
 7    1  0.1422977E-005  0.1802899E+03  0.7546771E-02  0.1173313E+00
         -2   -1    0    0    0  501 -0.00000000000E+00  0.00000000000E+00  0.51385438420E+02  0.51385438420E+02  0.00000000000E+00 0.  1.
          2   -1    0    0  501    0  0.00000000000E+00 -0.00000000000E+00 -0.55684168247E+03  0.55684168247E+03  0.00000000000E+00 0. -1.
         23    2    1    2    0    0 -0.50022689491E+02  0.11990741955E+03 -0.24263758236E+03  0.28951390951E+03  0.89806729685E+02 0.  0.
          5    1    1    2  502    0  0.14671731139E+02  0.21030423310E+02 -0.85663461594E+02  0.89542487410E+02  0.47000000000E+01 0.  1.
         -5    1    1    2    0  502  0.35350958352E+02 -0.14093784286E+03 -0.17715520009E+03  0.22917072397E+03  0.47000000000E+01 0.  1.
        -11    1    3    3    0    0  0.39673335338E+01  0.95570754790E+02 -0.12114004912E+03  0.15435161291E+03  0.00000000000E+00 0.  1.
         11    1    3    3    0    0 -0.53990023025E+02  0.24336664758E+02 -0.12149753325E+03  0.13516229660E+03  0.00000000000E+00 0. -1.
<mgrwt>
<rscale>  0 0.17442239E+03</rscale>
<asrwt>0</asrwt>
<pdfrwt beam="2">  1        2 0.85667951E-01 0.18028994E+03</pdfrwt>
<pdfrwt beam="1">  1       -2 0.79054520E-02 0.18028994E+03</pdfrwt>
<totfact> 0.51882453E+03</totfact>
</mgrwt>
</event>
<event>
 7    1  0.1422977E-005  0.2004037E+03  0.7546771E-02  0.1163269E+00
          1   -1    0    0  501    0  0.00000000000E+00  0.00000000000E+00  0.12868449346E+04  0.12868449346E+04  0.00000000000E+00 0. -1.
         -1   -1    0    0    0  501 -0.00000000000E+00 -0.00000000000E+00 -0.25815801202E+02  0.25815801202E+02  0.00000000000E+00 0.  1.
         23    2    1    2    0    0 -0.11121653216E+03  0.22460139315E+02  0.33103051329E+03  0.36131480999E+03  0.89964528017E+02 0.  0.
          5    1    1    2  502    0  0.12050362034E+03  0.45551784601E+02  0.67667436903E+03  0.68884423442E+03  0.47000000000E+01 0. -1.
         -5    1    1    2    0  502 -0.92870881874E+01 -0.68011923916E+02  0.25332425110E+03  0.26250169141E+03  0.47000000000E+01 0.  1.
        -11    1    3    3    0    0 -0.47372654001E+02 -0.34957613403E+02  0.13981982381E+03  0.15170954555E+03  0.00000000000E+00 0. -1.
         11    1    3    3    0    0 -0.63843878155E+02  0.57417752718E+02  0.19121068949E+03  0.20960526443E+03  0.00000000000E+00 0.  1.
<mgrwt>
<rscale>  0 0.18476589E+03</rscale>
<asrwt>0</asrwt>
<pdfrwt beam="1">  1        1 0.19797609E+00 0.20040369E+03</pdfrwt>
<pdfrwt beam="2">  1       -1 0.39716627E-02 0.20040369E+03</pdfrwt>
<totfact> 0.24706906E+03</totfact>
</mgrwt>
</event>
<event>
 7    1  0.1422977E-005  0.1337418E+03  0.7546771E-02  0.1234968E+00
         -3   -1    0    0    0  501 -0.00000000000E+00  0.00000000000E+00  0.33806438891E+03  0.33806438891E+03  0.00000000000E+00 0.  1.
          3   -1    0    0  501    0  0.00000000000E+00 -0.00000000000E+00 -0.45539203661E+02  0.45539203661E+02  0.00000000000E+00 0. -1.
         23    2    1    2    0    0 -0.46178619418E+02 -0.11356909121E+02  0.18740817429E+03  0.21349643278E+03  0.90539818535E+02 0.  0.
          5    1    1    2  502    0  0.87265744828E+02  0.12618061209E+02  0.50941055939E+02  0.10193923126E+03  0.47000000000E+01 0.  1.
         -5    1    1    2    0  502 -0.41087125410E+02 -0.12611520882E+01  0.54175955014E+02  0.68167928535E+02  0.47000000000E+01 0.  1.
        -11    1    3    3    0    0 -0.62570370673E+02 -0.36323215429E+02  0.13573378490E+03  0.15381185789E+03  0.00000000000E+00 0. -1.
         11    1    3    3    0    0  0.16391751255E+02  0.24966306309E+02  0.51674389393E+02  0.59684574884E+02  0.00000000000E+00 0.  1.
<mgrwt>
<rscale>  0 0.12506508E+03</rscale>
<asrwt>0</asrwt>
<pdfrwt beam="2">  1        3 0.70060315E-02 0.13374177E+03</pdfrwt>
<pdfrwt beam="1">  1       -3 0.52009904E-01 0.13374177E+03</pdfrwt>
<totfact> 0.11236446E+03</totfact>
</mgrwt>
</event>
<event>
 7    1  0.1422977E-005  0.1575821E+03  0.7546771E-02  0.1199359E+00
          1   -1    0    0  501    0  0.00000000000E+00  0.00000000000E+00  0.10855879917E+03  0.10855879917E+03  0.00000000000E+00 0. -1.
         -1   -1    0    0    0  501 -0.00000000000E+00 -0.00000000000E+00 -0.20115904174E+03  0.20115904174E+03  0.00000000000E+00 0.  1.
         23    2    1    2    0    0 -0.16875944856E+02  0.94454354201E+02 -0.71883319967E+02  0.15077977448E+03  0.91437990795E+02 0.  0.
          5    1    1    2  502    0 -0.47569222215E+02 -0.71719259462E+02 -0.26563370235E+02  0.90189720690E+02  0.47000000000E+01 0.  1.
         -5    1    1    2    0  502  0.64445167070E+02 -0.22735094738E+02  0.58464476316E+01  0.68748345736E+02  0.47000000000E+01 0.  1.
        -11    1    3    3    0    0  0.37334370309E+02  0.44614126282E+02 -0.23936397281E+02  0.62906490803E+02  0.00000000000E+00 0.  1.
         11    1    3    3    0    0 -0.54210315165E+02  0.49840227918E+02 -0.47946922686E+02  0.87873283677E+02  0.00000000000E+00 0. -1.
<mgrwt>
<rscale>  0 0.15091012E+03</rscale>
<asrwt>0</asrwt>
<pdfrwt beam="1">  1        1 0.16701354E-01 0.15758210E+03</pdfrwt>
<pdfrwt beam="2">  1       -1 0.30947545E-01 0.15758210E+03</pdfrwt>
<totfact> 0.30447922E+03</totfact>
</mgrwt>
</event>
<event>
 7    1  0.1422977E-005  0.1274825E+03  0.7546771E-02  0.1250255E+00
          2   -1    0    0  501    0  0.00000000000E+00  0.00000000000E+00  0.11718577117E+03  0.11718577117E+03  0.00000000000E+00 0. -1.
         -2   -1    0    0    0  501 -0.00000000000E+00 -0.00000000000E+00 -0.12900609486E+03  0.12900609486E+03  0.00000000000E+00 0.  1.
         23    2    1    2    0    0  0.85685585881E+00  0.25014283950E+02 -0.64712161857E+02  0.10817257617E+03  0.82989118196E+02 0.  0.
          5    1    1    2  502    0 -0.39158658182E+02 -0.61910234530E+02  0.23507032147E+02  0.77077546734E+02  0.47000000000E+01 0.  1.
         -5    1    1    2    0  502  0.38301802323E+02  0.36895950580E+02  0.29384806021E+02  0.60941743126E+02  0.47000000000E+01 0.  1.
        -11    1    3    3    0    0 -0.17216998280E+02  0.86631152110E+01 -0.78046255622E+02  0.80390873932E+02  0.00000000000E+00 0.  1.
         11    1    3    3    0    0  0.18073854139E+02  0.16351168739E+02  0.13334093765E+02  0.27781702235E+02  0.00000000000E+00 0. -1.
<mgrwt>
<rscale>  0 0.11576283E+03</rscale>
<asrwt>0</asrwt>
<pdfrwt beam="1">  1        2 0.18028580E-01 0.12748246E+03</pdfrwt>
<pdfrwt beam="2">  1       -2 0.19847092E-01 0.12748246E+03</pdfrwt>
<totfact> 0.63055776E+03</totfact>
</mgrwt>
</event>
<event>
 7    1  0.1422977E-005  0.1362495E+03  0.7546771E-02  0.1233411E+00
         -2   -1    0    0    0  501 -0.00000000000E+00  0.00000000000E+00  0.31703623529E+03  0.31703623529E+03  0.00000000000E+00 0.  1.
          2   -1    0    0  501    0  0.00000000000E+00 -0.00000000000E+00 -0.69700198456E+02  0.69700198456E+02  0.00000000000E+00 0. -1.
         23    2    1    2    0    0 -0.32959484185E+02 -0.14553384146E+02  0.22827147679E+03  0.24915955927E+03  0.93136943655E+02 0.  0.
          5    1    1    2  502    0 -0.27984795007E+02 -0.27060114609E+02 -0.29535359929E+02  0.49089979022E+02  0.47000000000E+01 0. -1.
         -5    1    1    2    0  502  0.60944279192E+02  0.41613498755E+02  0.48599919967E+02  0.88486895447E+02  0.47000000000E+01 0.  1.
        -11    1    3    3    0    0  0.82286630969E+01  0.27025682928E+02  0.25316211963E+02  0.37934272396E+02  0.00000000000E+00 0. -1.
         11    1    3    3    0    0 -0.41188147282E+02 -0.41579067074E+02  0.20295526483E+03  0.21122528688E+03  0.00000000000E+00 0.  1.
<mgrwt>
<rscale>  0 0.12606730E+03</rscale>
<asrwt>0</asrwt>
<pdfrwt beam="2">  1        2 0.10723108E-01 0.13624955E+03</pdfrwt>
<pdfrwt beam="1">  1       -2 0.48774805E-01 0.13624955E+03</pdfrwt>
<totfact> 0.22873021E+03</totfact>
</mgrwt>
</event>
<event>
 7    1  0.1422977E-005  0.1306052E+03  0.7546771E-02  0.1240665E+00
         -2   -1    0    0    0  501 -0.00000000000E+00  0.00000000000E+00  0.24932894720E+02  0.24932894720E+02  0.00000000000E+00 0.  1.
          2   -1    0    0  501    0  0.00000000000E+00 -0.00000000000E+00 -0.52900170577E+03  0.52900170577E+03  0.00000000000E+00 0. -1.
         23    2    1    2    0    0  0.37817004696E+02  0.17946967676E+01 -0.18697788543E+03  0.21099965683E+03  0.90148648132E+02 0.  0.
          5    1    1    2  502    0 -0.52297400067E+02  0.23367175021E+02 -0.30624246455E+03  0.31158879957E+03  0.47000000000E+01 0.  1.
         -5    1    1    2    0  502  0.14480395371E+02 -0.25161871789E+02 -0.10848461066E+02  0.31346144093E+02  0.47000000000E+01 0.  1.
        -11    1    3    3    0    0 -0.11998824825E+02  0.35247910118E+02 -0.82558522579E+02  0.90566531430E+02  0.00000000000E+00 0.  1.
         11    1    3    3    0    0  0.49815829521E+02 -0.33453213350E+02 -0.10441936285E+03  0.12043312540E+03  0.00000000000E+00 0. -1.
<mgrwt>
<rscale>  0 0.12148658E+03</rscale>
<asrwt>0</asrwt>
<pdfrwt beam="2">  1        2 0.81384876E-01 0.13060521E+03</pdfrwt>
<pdfrwt beam="1">  1       -2 0.38358301E-02 0.13060521E+03</pdfrwt>
<totfact> 0.16106493E+04</totfact>
</mgrwt>
</event>
<event>
 7    1  0.1422977E-005  0.1622028E+03  0.7546771E-02  0.1193760E+00
         -2   -1    0    0    0  501 -0.00000000000E+00  0.00000000000E+00  0.82268483518E+02  0.82268483518E+02  0.00000000000E+00 0.  1.
          2   -1    0    0  501    0  0.00000000000E+00 -0.00000000000E+00 -0.45282544039E+03  0.45282544039E+03  0.00000000000E+00 0. -1.
         23    2    1    2    0    0 -0.83410554973E+01  0.10303209264E+03 -0.76195944789E+01  0.13755992851E+03  0.90440535107E+02 0.  0.
          5    1    1    2  502    0  0.58220128428E+02 -0.94875677202E+02 -0.25281490371E+03  0.27627602686E+03  0.47000000000E+01 0.  1.
         -5    1    1    2    0  502 -0.49879072931E+02 -0.81564154361E+01 -0.11012245868E+03  0.12125796854E+03  0.47000000000E+01 0.  1.
        -11    1    3    3    0    0  0.25510564166E+02  0.94378091566E+02  0.10275512778E+02  0.98303607332E+02  0.00000000000E+00 0.  1.
         11    1    3    3    0    0 -0.33851619663E+02  0.86540010714E+01 -0.17895107256E+02  0.39256321173E+02  0.00000000000E+00 0. -1.
<mgrwt>
<rscale>  0 0.15559654E+03</rscale>
<asrwt>0</asrwt>
<pdfrwt beam="2">  1        2 0.69665452E-01 0.16220280E+03</pdfrwt>
<pdfrwt beam="1">  1       -2 0.12656690E-01 0.16220280E+03</pdfrwt>
<totfact> 0.30876058E+03</totfact>
</mgrwt>
</event>
<event>
 7    1  0.1422977E-005  0.1282666E+03  0.7546771E-02  0.1245016E+00
          2   -1    0    0  501    0  0.00000000000E+00  0.00000000000E+00  0.21324835125E+03  0.21324835125E+03  0.00000000000E+00 0.  1.
         -2   -1    0    0    0  501 -0.00000000000E+00 -0.00000000000E+00 -0.95503218127E+02  0.95503218127E+02  0.00000000000E+00 0. -1.
         23    2    1    2    0    0 -0.88128024879E+01  0.27393603198E+02 -0.42373608753E+02  0.10359228155E+03  0.90043117977E+02 0.  0.
          5    1    1    2  502    0  0.51781838212E+01 -0.27811754908E+02  0.18109615338E+03  0.18335270401E+03  0.47000000000E+01 0. -1.
         -5    1    1    2    0  502  0.36346186667E+01  0.41815170916E+00 -0.20977411509E+02  0.21806583807E+02  0.47000000000E+01 0. -1.
        -11    1    3    3    0    0 -0.44289147089E+02  0.17193269874E+02 -0.15215041612E+00  0.47509580387E+02  0.00000000000E+00 0.  1.
         11    1    3    3    0    0  0.35476344601E+02  0.10200333324E+02 -0.42221458337E+02  0.56082701168E+02  0.00000000000E+00 0. -1.
<mgrwt>
<rscale>  0 0.11884396E+03</rscale>
<asrwt>0</asrwt>
<pdfrwt beam="1">  1        2 0.32807439E-01 0.12826660E+03</pdfrwt>
<pdfrwt beam="2">  1       -2 0.14692803E-01 0.12826660E+03</pdfrwt>
<totfact> 0.53560710E+03</totfact>
</mgrwt>
</event>
<event>
 7    1  0.1422977E-005  0.1314579E+03  0.7546771E-02  0.1238247E+00
          2   -1    0    0  501    0  0.00000000000E+00  0.00000000000E+00  0.74817021211E+03  0.74817021211E+03  0.00000000000E+00 0. -1.
         -2   -1    0    0    0  501 -0.00000000000E+00 -0.00000000000E+00 -0.26292371897E+02  0.26292371897E+02  0.00000000000E+00 0.  1.
         23    2    1    2    0    0  0.34708464686E+02 -0.21264274476E+02  0.11219685445E+03  0.15077027673E+03  0.92123261488E+02 0.  0.
          5    1    1    2  502    0  0.11937895975E+02 -0.13906430134E+02  0.49065096463E+03  0.49101564257E+03  0.47000000000E+01 0.  1.
         -5    1    1    2    0  502 -0.46646360661E+02  0.35170704610E+02  0.11903002113E+03  0.13267666470E+03  0.47000000000E+01 0.  1.
        -11    1    3    3    0    0  0.82057848219E+01  0.21053860958E+02  0.95474963287E+02  0.98112530190E+02  0.00000000000E+00 0. -1.
         11    1    3    3    0    0  0.26502679864E+02 -0.42318135434E+02  0.16721891162E+02  0.52657746539E+02  0.00000000000E+00 0.  1.
<mgrwt>
<rscale>  0 0.12298831E+03</rscale>
<asrwt>0</asrwt>
<pdfrwt beam="1">  1        2 0.11510309E+00 0.13145794E+03</pdfrwt>
<pdfrwt beam="2">  1       -2 0.40449809E-02 0.13145794E+03</pdfrwt>
<totfact> 0.99870159E+03</totfact>
</mgrwt>
</event>
<event>
 7    1  0.1422977E-005  0.1687449E+03  0.7546771E-02  0.1187052E+00
         -1   -1    0    0    0  501 -0.00000000000E+00  0.00000000000E+00  0.75817473127E+02  0.75817473127E+02  0.00000000000E+00 0.  1.
          1   -1    0    0  501    0  0.00000000000E+00 -0.00000000000E+00 -0.17508547017E+04  0.17508547017E+04  0.00000000000E+00 0. -1.
         23    2    1    2    0    0 -0.88004743118E+02 -0.62251408587E+02  0.16981744109E+01  0.14146701037E+03  0.91596716880E+02 0.  0.
          5    1    1    2  502    0  0.37267164549E+02  0.86591471334E+02 -0.13746770847E+04  0.13779136771E+04  0.47000000000E+01 0. -1.
         -5    1    1    2    0  502  0.50737578569E+02 -0.24340062747E+02 -0.30205831829E+03  0.30729148732E+03  0.47000000000E+01 0.  1.
        -11    1    3    3    0    0 -0.53776436682E+02  0.10676665690E+02  0.20856785227E+02  0.58659200664E+02  0.00000000000E+00 0.  1.
         11    1    3    3    0    0 -0.34228306436E+02 -0.72928074277E+02 -0.19158610816E+02  0.82807809702E+02  0.00000000000E+00 0. -1.
<mgrwt>
<rscale>  0 0.16146520E+03</rscale>
<asrwt>0</asrwt>
<pdfrwt beam="2">  1        1 0.26936225E+00 0.16874488E+03</pdfrwt>
<pdfrwt beam="1">  1       -1 0.11664227E-01 0.16874488E+03</pdfrwt>
<totfact> 0.24150472E+02</totfact>
</mgrwt>
</event>
<event>
 7    1  0.1422977E-005  0.2450861E+03  0.7546771E-02  0.1119053E+00
         -1   -1    0    0    0  501 -0.00000000000E+00  0.00000000000E+00  0.69168270411E+02  0.69168270411E+02  0.00000000000E+00 0.  1.
          1   -1    0    0  501    0  0.00000000000E+00 -0.00000000000E+00 -0.93636950673E+03  0.93636950673E+03  0.00000000000E+00 0. -1.
         23    2    1    2    0    0  0.10751384448E+03  0.18131127950E+03 -0.23987243879E+03  0.33203303968E+03  0.90962331308E+02 0.  0.
          5    1    1    2  502    0 -0.59154155580E+02 -0.21087165038E+01 -0.14714156162E+03  0.15867069662E+03  0.47000000000E+01 0.  1.
         -5    1    1    2    0  502 -0.48359688895E+02 -0.17920256299E+03 -0.48018723591E+03  0.51483404085E+03  0.47000000000E+01 0.  1.
        -11    1    3    3    0    0  0.41690818923E+02  0.13982609577E+03 -0.11899572578E+03  0.18828022784E+03  0.00000000000E+00 0.  1.
         11    1    3    3    0    0  0.65823025552E+02  0.41485183724E+02 -0.12087671302E+03  0.14375281184E+03  0.00000000000E+00 0. -1.
<mgrwt>
<rscale>  0 0.24111418E+03</rscale>
<asrwt>0</asrwt>
<pdfrwt beam="2">  1        1 0.14405683E+00 0.24508613E+03</pdfrwt>
<pdfrwt beam="1">  1       -1 0.10641274E-01 0.24508613E+03</pdfrwt>
<totfact> 0.99176863E+02</totfact>
</mgrwt>
</event>
<event>
 7    1  0.1422977E-005  0.2274543E+03  0.7546771E-02  0.1128444E+00
         -3   -1    0    0    0  501 -0.00000000000E+00  0.00000000000E+00  0.75918062121E+02  0.75918062121E+02  0.00000000000E+00 0.  1.
          3   -1    0    0  501    0  0.00000000000E+00 -0.00000000000E+00 -0.17036610081E+03  0.17036610081E+03  0.00000000000E+00 0. -1.
         23    2    1    2    0    0 -0.30141998883E+02  0.18727912254E+02 -0.43026030837E+02  0.10617063856E+03  0.90342074193E+02 0.  0.
          5    1    1    2  502    0 -0.48099563819E+02 -0.15519237707E+02 -0.11305725522E+02  0.52003117293E+02  0.47000000000E+01 0. -1.
         -5    1    1    2    0  502  0.78241562703E+02 -0.32086745470E+01 -0.40116282330E+02  0.88110407073E+02  0.47000000000E+01 0.  1.
        -11    1    3    3    0    0  0.28592553029E+02 -0.28276288140E+01  0.24321387586E+01  0.28834785804E+02  0.00000000000E+00 0.  1.
         11    1    3    3    0    0 -0.58734551913E+02  0.21555541068E+02 -0.45458169596E+02  0.77335852760E+02  0.00000000000E+00 0. -1.
<mgrwt>
<rscale>  0 0.22745430E+03</rscale>
<asrwt>0</asrwt>
<pdfrwt beam="2">  1        3 0.26210170E-01 0.22745430E+03</pdfrwt>
<pdfrwt beam="1">  1       -3 0.11679702E-01 0.22745430E+03</pdfrwt>
<totfact> 0.19497485E+03</totfact>
</mgrwt>
</event>
<event>
 6    1  0.1422977E-005  0.3385795E+03  0.7546771E-02  0.1067403E+00
          2   -1    0    0  501    0  0.00000000000E+00  0.00000000000E+00  0.98170012301E+02  0.98170012301E+02  0.00000000000E+00 0. -1.
         -2   -1    0    0    0  501 -0.00000000000E+00 -0.00000000000E+00 -0.29193252925E+03  0.29193252925E+03  0.00000000000E+00 0.  1.
          5    1    1    2  502    0 -0.47890197090E+02 -0.23228310020E+02  0.19245433869E+02  0.56793503929E+02  0.47000000000E+01 0. -1.
         -5    1    1    2    0  502  0.54838220118E+02  0.44955372534E+02 -0.36401559429E+01  0.71158672280E+02  0.47000000000E+01 0. -1.
        -11    1    1    2    0    0  0.48971696751E+02 -0.54563894194E+02 -0.17278116228E+03  0.18769330215E+03  0.00000000000E+00 0.  1.
         11    1    1    2    0    0 -0.55919719779E+02  0.32836831681E+02 -0.36586632595E+02  0.74457063195E+02  0.00000000000E+00 0. -1.
<mgrwt>
<rscale>  0 0.33857950E+03</rscale>
<asrwt>0</asrwt>
<pdfrwt beam="1">  1        2 0.15103079E-01 0.33857950E+03</pdfrwt>
<pdfrwt beam="2">  1       -2 0.44912697E-01 0.33857950E+03</pdfrwt>
<totfact> 0.18457597E+03</totfact>
</mgrwt>
</event>
<event>
 7    1  0.1422977E-005  0.1409243E+03  0.7546771E-02  0.1224710E+00
         -3   -1    0    0    0  501 -0.00000000000E+00  0.00000000000E+00  0.95641244615E+03  0.95641244615E+03  0.00000000000E+00 0.  1.
          3   -1    0    0  501    0  0.00000000000E+00 -0.00000000000E+00 -0.17689509518E+02  0.17689509518E+02  0.00000000000E+00 0. -1.
         23    2    1    2    0    0  0.62993546398E+02  0.16324680452E+02  0.55266957081E+03  0.56313131108E+03  0.86246953205E+02 0.  0.
          5    1    1    2  502    0 -0.45746709244E+02 -0.56186752975E+02  0.11212654839E+03  0.13358205520E+03  0.47000000000E+01 0. -1.
         -5    1    1    2    0  502 -0.17246837155E+02  0.39862072522E+02  0.27392681743E+03  0.27738858939E+03  0.47000000000E+01 0. -1.
        -11    1    3    3    0    0  0.83621792208E+02  0.13370498203E+02  0.48459218037E+03  0.49193592635E+03  0.00000000000E+00 0.  1.
         11    1    3    3    0    0 -0.20628245810E+02  0.29541822497E+01  0.68077390441E+02  0.71195384733E+02  0.00000000000E+00 0. -1.
<mgrwt>
<rscale>  0 0.13186767E+03</rscale>
<asrwt>0</asrwt>
<pdfrwt beam="2">  1        3 0.27214637E-02 0.14092434E+03</pdfrwt>
<pdfrwt beam="1">  1       -3 0.14714034E+00 0.14092434E+03</pdfrwt>
<totfact> 0.49816357E+02</totfact>
</mgrwt>
</event>
<event>
 7    1  0.1422977E-005  0.1272778E+03  0.7546771E-02  0.1246930E+00
          2   -1    0    0  501    0  0.00000000000E+00  0.00000000000E+00  0.38051391198E+03  0.38051391198E+03  0.00000000000E+00 0. -1.
         -2   -1    0    0    0  501 -0.00000000000E+00 -0.00000000000E+00 -0.34671553199E+02  0.34671553199E+02  0.00000000000E+00 0.  1.
         23    2    1    2    0    0  0.12259984841E+02  0.20659033810E+02  0.90282456429E+02  0.12968502091E+03  0.89945426803E+02 0.  0.
          5    1    1    2  502    0  0.13468163017E+01 -0.60627965551E+02  0.22523960983E+03  0.23330781375E+03  0.47000000000E+01 0.  1.
         -5    1    1    2    0  502 -0.13606801143E+02  0.39968931741E+02  0.30320292519E+02  0.52192630517E+02  0.47000000000E+01 0.  1.
        -11    1    3    3    0    0 -0.34598735573E+02  0.21184285805E+02  0.20048099995E+02  0.45252323496E+02  0.00000000000E+00 0.  1.
         11    1    3    3    0    0  0.46858720415E+02 -0.52525199569E+00  0.70234356434E+02  0.84432697412E+02  0.00000000000E+00 0. -1.
<mgrwt>
<rscale>  0 0.11770635E+03</rscale>
<asrwt>0</asrwt>
<pdfrwt beam="1">  1        2 0.58540599E-01 0.12727781E+03</pdfrwt>
<pdfrwt beam="2">  1       -2 0.53340854E-02 0.12727781E+03</pdfrwt>
<totfact> 0.14029242E+04</totfact>
</mgrwt>
</event>
<event>
 7    1  0.1422977E-005  0.3110141E+03  0.7546771E-02  0.1081292E+00
         -2   -1    0    0    0  501 -0.00000000000E+00  0.00000000000E+00  0.61995047130E+02  0.61995047130E+02  0.00000000000E+00 0.  1.
          2   -1    0    0  501    0  0.00000000000E+00 -0.00000000000E+00 -0.15064907049E+04  0.15064907049E+04  0.00000000000E+00 0. -1.
         23    2    1    2    0    0  0.28475941805E+03 -0.38521143438E+01 -0.66514623766E+03  0.72936996283E+03  0.91968800381E+02 0.  0.
          5    1    1    2  502    0 -0.13564605620E+03 -0.77558635303E+01 -0.20793604427E+03  0.24843408479E+03  0.47000000000E+01 0. -1.
         -5    1    1    2    0  502 -0.14911336185E+03  0.11607977874E+02 -0.57141337580E+03  0.59068170437E+03  0.47000000000E+01 0. -1.
        -11    1    3    3    0    0  0.24801882014E+03 -0.26567680307E+02 -0.50135492836E+03  0.55997851831E+03  0.00000000000E+00 0.  1.
         11    1    3    3    0    0  0.36740597915E+02  0.22715565963E+02 -0.16379130930E+03  0.16939144452E+03  0.00000000000E+00 0. -1.
<mgrwt>
<rscale>  0 0.30803493E+03</rscale>
<asrwt>0</asrwt>
<pdfrwt beam="2">  1        2 0.23176780E+00 0.31101413E+03</pdfrwt>
<pdfrwt beam="1">  1       -2 0.95376997E-02 0.31101413E+03</pdfrwt>
<totfact> 0.96735154E+02</totfact>
</mgrwt>
</event>
<event>
 7    1  0.1422977E-005  0.1504604E+03  0.7546771E-02  0.1205785E+00
          1   -1    0    0  501    0  0.00000000000E+00  0.00000000000E+00  0.12317273255E+04  0.12317273255E+04  0.00000000000E+00 0. -1.
         -1   -1    0    0    0  501 -0.00000000000E+00 -0.00000000000E+00 -0.19605701392E+02  0.19605701392E+02  0.00000000000E+00 0.  1.
         23    2    1    2    0    0  0.83677337259E+02 -0.32185082897E+01  0.31586550994E+03  0.34253527306E+03  0.10269925682E+03 0.  0.
          5    1    1    2  502    0 -0.17466638817E+02  0.14384661194E+02  0.71618389829E+03  0.71655667474E+03  0.47000000000E+01 0. -1.
         -5    1    1    2    0  502 -0.66210698442E+02 -0.11166152904E+02  0.18007221584E+03  0.19224107906E+03  0.47000000000E+01 0. -1.
        -11    1    3    3    0    0  0.29687058760E+02  0.25859101611E+02  0.28254673126E+02  0.48459685796E+02  0.00000000000E+00 0.  1.
         11    1    3    3    0    0  0.53990278499E+02 -0.29077609900E+02  0.28761083682E+03  0.29407558726E+03  0.00000000000E+00 0. -1.
<mgrwt>
<rscale>  0 0.14575732E+03</rscale>
<asrwt>0</asrwt>
<pdfrwt beam="1">  1        1 0.18949645E+00 0.15046041E+03</pdfrwt>
<pdfrwt beam="2">  1       -1 0.30162627E-02 0.15046041E+03</pdfrwt>
<totfact> 0.40164798E+03</totfact>
</mgrwt>
</event>
<event>
 7    1  0.1422977E-005  0.1531894E+03  0.7546771E-02  0.1204961E+00
         -2   -1    0    0    0  501 -0.00000000000E+00  0.00000000000E+00  0.14190940722E+03  0.14190940722E+03  0.00000000000E+00 0.  1.
          2   -1    0    0  501    0  0.00000000000E+00 -0.00000000000E+00 -0.14835372280E+03  0.14835372280E+03  0.00000000000E+00 0. -1.
         23    2    1    2    0    0 -0.84160410642E+02  0.27542575979E+02  0.33164705364E+02  0.13203590613E+03  0.92152127571E+02 0.  0.
          5    1    1    2  502    0  0.34992050744E+02  0.49792190044E+02 -0.10330107536E+02  0.61907244538E+02  0.47000000000E+01 0. -1.
         -5    1    1    2    0  502  0.49168359898E+02 -0.77334766023E+02 -0.29278913409E+02  0.96319979347E+02  0.47000000000E+01 0. -1.
        -11    1    3    3    0    0 -0.49938172880E+02 -0.75411332046E+01 -0.24686704959E+02  0.56214973115E+02  0.00000000000E+00 0. -1.
         11    1    3    3    0    0 -0.34222237762E+02  0.35083709184E+02  0.57851410323E+02  0.75820933019E+02  0.00000000000E+00 0.  1.
<mgrwt>
<rscale>  0 0.14640524E+03</rscale>
<asrwt>0</asrwt>
<pdfrwt beam="2">  1        2 0.22823649E-01 0.15318936E+03</pdfrwt>
<pdfrwt beam="1">  1       -2 0.21832217E-01 0.15318936E+03</pdfrwt>
<totfact> 0.41554683E+03</totfact>
</mgrwt>
</event>
<event>
 7    1  0.1422977E-005  0.1777479E+03  0.7546771E-02  0.1175498E+00
         -2   -1    0    0    0  501 -0.00000000000E+00  0.00000000000E+00  0.41400672722E+02  0.41400672722E+02  0.00000000000E+00 0.  1.
          2   -1    0    0  501    0  0.00000000000E+00 -0.00000000000E+00 -0.95428067353E+03  0.95428067353E+03  0.00000000000E+00 0. -1.
         23    2    1    2    0    0 -0.11548978152E+03  0.51323484714E+02 -0.16776602558E+03  0.22965969880E+03  0.92877059585E+02 0.  0.
          5    1    1    2  502    0  0.60900828855E+02 -0.57246816197E+02 -0.65545712938E+03  0.66078154285E+03  0.47000000000E+01 0.  1.
         -5    1    1    2    0  502  0.54588952660E+02  0.59233314829E+01 -0.89656845847E+02  0.10524010460E+03  0.47000000000E+01 0.  1.
        -11    1    3    3    0    0 -0.59540941187E+02  0.66878488102E+02 -0.13773633868E+03  0.16428376317E+03  0.00000000000E+00 0. -1.
         11    1    3    3    0    0 -0.55948840328E+02 -0.15555003389E+02 -0.30029686904E+02  0.65375935634E+02  0.00000000000E+00 0.  1.
<mgrwt>
<rscale>  0 0.17227260E+03</rscale>
<asrwt>0</asrwt>
<pdfrwt beam="2">  1        2 0.14681240E+00 0.17774793E+03</pdfrwt>
<pdfrwt beam="1">  1       -2 0.63693349E-02 0.17774793E+03</pdfrwt>
<totfact> 0.37384827E+03</totfact>
</mgrwt>
</event>
<event>
 6    1  0.1422977E-005  0.1370505E+03  0.7546771E-02  0.1285203E+00
          2   -1    0    0  501    0  0.00000000000E+00  0.00000000000E+00  0.24154631325E+03  0.24154631325E+03  0.00000000000E+00 0. -1.
         -2   -1    0    0    0  501 -0.00000000000E+00 -0.00000000000E+00 -0.52975809001E+02  0.52975809001E+02  0.00000000000E+00 0.  1.
          5    1    1    2  502    0 -0.56705468197E+02 -0.40829846349E+02  0.17197414650E+03  0.18568732736E+03  0.47000000000E+01 0. -1.
         -5    1    1    2    0  502  0.44585662034E+02  0.28906247124E+02  0.39759958553E+02  0.66531170785E+02  0.47000000000E+01 0.  1.
        -11    1    1    2    0    0  0.12736839006E+02 -0.26137041465E+01 -0.24454347036E+02  0.27696093699E+02  0.00000000000E+00 0.  1.
         11    1    1    2    0    0 -0.61703284312E+00  0.14537303371E+02  0.12907462300E+01  0.14607530409E+02  0.00000000000E+00 0. -1.
<mgrwt>
<rscale>  0 0.97702633E+02</rscale>
<asrwt>0</asrwt>
<pdfrwt beam="1">  1        2 0.37160971E-01 0.13705050E+03</pdfrwt>
<pdfrwt beam="2">  1       -2 0.81501246E-02 0.13705050E+03</pdfrwt>
<totfact> 0.11978976E+04</totfact>
</mgrwt>
</event>
<event>
 7    1  0.1422977E-005  0.1557836E+03  0.7546771E-02  0.1202805E+00
         -1   -1    0    0    0  501 -0.00000000000E+00  0.00000000000E+00  0.10505802550E+03  0.10505802550E+03  0.00000000000E+00 0.  1.
          1   -1    0    0  501    0  0.00000000000E+00 -0.00000000000E+00 -0.19311335338E+03  0.19311335338E+03  0.00000000000E+00 0. -1.
         23    2    1    2    0    0 -0.65831399464E+02  0.65619035341E+02 -0.56209115488E+02  0.13916595552E+03  0.86994640973E+02 0.  0.
          5    1    1    2  502    0  0.83448570873E+02 -0.23452136725E+01 -0.39936699882E+02  0.92661718122E+02  0.47000000000E+01 0. -1.
         -5    1    1    2    0  502 -0.17617171409E+02 -0.63273821668E+02  0.80904874824E+01  0.66343705237E+02  0.47000000000E+01 0. -1.
        -11    1    3    3    0    0 -0.36711558573E+02  0.15040348377E+02  0.18983875453E+02  0.43981111166E+02  0.00000000000E+00 0.  1.
         11    1    3    3    0    0 -0.29119840891E+02  0.50578686963E+02 -0.75192990941E+02  0.95184844356E+02  0.00000000000E+00 0. -1.
<mgrwt>
<rscale>  0 0.14811756E+03</rscale>
<asrwt>0</asrwt>
<pdfrwt beam="2">  1        1 0.29709746E-01 0.15578364E+03</pdfrwt>
<pdfrwt beam="1">  1       -1 0.16162773E-01 0.15578364E+03</pdfrwt>
<totfact> 0.42287820E+03</totfact>
</mgrwt>
</event>
<event>
 7    1  0.1422977E-005  0.3385081E+03  0.7546771E-02  0.1105705E+00
         -2   -1    0    0    0  501 -0.00000000000E+00  0.00000000000E+00  0.36996283043E+02  0.36996283043E+02  0.00000000000E+00 0.  1.
          2   -1    0    0  501    0  0.00000000000E+00 -0.00000000000E+00 -0.17282037625E+04  0.17282037625E+04  0.00000000000E+00 0. -1.
         23    2    1    2    0    0  0.86149401581E+02 -0.15954870537E+02 -0.18724285854E+03  0.22361082785E+03  0.85238705812E+02 0.  0.
          5    1    1    2  502    0 -0.32819402370E+02  0.10161936254E+03 -0.13681822867E+04  0.13723514374E+04  0.47000000000E+01 0. -1.
         -5    1    1    2    0  502 -0.53329999212E+02 -0.85664491999E+02 -0.13578233423E+03  0.16923778034E+03  0.47000000000E+01 0.  1.
        -11    1    3    3    0    0  0.25491147239E+02 -0.25027450555E+01  0.74177240396E+00  0.25624452124E+02  0.00000000000E+00 0. -1.
         11    1    3    3    0    0  0.60658254343E+02 -0.13452125482E+02 -0.18798463094E+03  0.19798637572E+03  0.00000000000E+00 0.  1.
<mgrwt>
<rscale>  0 0.26240831E+03</rscale>
<asrwt>0</asrwt>
<pdfrwt beam="2">  1        2 0.26587747E+00 0.33850810E+03</pdfrwt>
<pdfrwt beam="1">  1       -2 0.56917365E-02 0.33850810E+03</pdfrwt>
<totfact> 0.16511633E+03</totfact>
</mgrwt>
</event>
<event>
 7    1  0.1422977E-005  0.2412697E+03  0.7546771E-02  0.1121556E+00
          1   -1    0    0  501    0  0.00000000000E+00  0.00000000000E+00  0.89140247558E+03  0.89140247558E+03  0.00000000000E+00 0. -1.
         -1   -1    0    0    0  501 -0.00000000000E+00 -0.00000000000E+00 -0.61855099727E+02  0.61855099727E+02  0.00000000000E+00 0.  1.
         23    2    1    2    0    0  0.18230571957E+03 -0.96730755294E+02  0.35421591951E+03  0.42019937079E+03  0.92230033981E+02 0.  0.
          5    1    1    2  502    0  0.62949130108E+01  0.43486500676E+00 -0.41355096180E+01  0.88886150321E+01  0.47000000000E+01 0. -1.
         -5    1    1    2    0  502 -0.18860063258E+03  0.96295890287E+02  0.47946696595E+03  0.52416958948E+03  0.47000000000E+01 0. -1.
        -11    1    3    3    0    0  0.39203950778E+02 -0.69022654582E+02  0.14332271101E+03  0.16383673609E+03  0.00000000000E+00 0.  1.
         11    1    3    3    0    0  0.14310176879E+03 -0.27708100712E+02  0.21089320850E+03  0.25636263470E+03  0.00000000000E+00 0. -1.
<mgrwt>
<rscale>  0 0.23737128E+03</rscale>
<asrwt>0</asrwt>
<pdfrwt beam="1">  1        1 0.13713883E+00 0.24126967E+03</pdfrwt>
<pdfrwt beam="2">  1       -1 0.95161698E-02 0.24126967E+03</pdfrwt>
<totfact> 0.12783303E+03</totfact>
</mgrwt>
</event>
<event>
 7    1  0.1422977E-005  0.1279313E+03  0.7546771E-02  0.1244963E+00
         -3   -1    0    0    0  501 -0.00000000000E+00  0.00000000000E+00  0.40541761693E+02  0.40541761693E+02  0.00000000000E+00 0.  1.
          3   -1    0    0  501    0  0.00000000000E+00 -0.00000000000E+00 -0.30890847829E+03  0.30890847829E+03  0.00000000000E+00 0. -1.
         23    2    1    2    0    0  0.75153794032E+01 -0.26178930144E+02 -0.10305966800E+03  0.14042192918E+03  0.91406814380E+02 0.  0.
          5    1    1    2  502    0  0.84865829468E+01  0.21308878360E+02 -0.18284695935E+03  0.18433987884E+03  0.47000000000E+01 0. -1.
         -5    1    1    2    0  502 -0.16001962350E+02  0.48700517834E+01  0.17539910755E+02  0.24688431962E+02  0.47000000000E+01 0. -1.
        -11    1    3    3    0    0  0.16314205249E+02 -0.13733021615E+02 -0.11750373161E+03  0.11942309709E+03  0.00000000000E+00 0. -1.
         11    1    3    3    0    0 -0.87988258457E+01 -0.12445908529E+02  0.14444063614E+02  0.20998832088E+02  0.00000000000E+00 0.  1.
<mgrwt>
<rscale>  0 0.11887622E+03</rscale>
<asrwt>0</asrwt>
<pdfrwt beam="2">  1        3 0.47524384E-01 0.12793129E+03</pdfrwt>
<pdfrwt beam="1">  1       -3 0.62371937E-02 0.12793129E+03</pdfrwt>
<totfact> 0.16094034E+03</totfact>
</mgrwt>
</event>
<event>
 7    1  0.1422977E-005  0.1912160E+03  0.7546771E-02  0.1161956E+00
         -2   -1    0    0    0  501 -0.00000000000E+00  0.00000000000E+00  0.52061174904E+02  0.52061174904E+02  0.00000000000E+00 0.  1.
          2   -1    0    0  501    0  0.00000000000E+00 -0.00000000000E+00 -0.63302627814E+03  0.63302627814E+03  0.00000000000E+00 0. -1.
         23    2    1    2    0    0 -0.10848417922E+03 -0.95755039703E+02 -0.27151787031E+03  0.32132772394E+03  0.92691464029E+02 0.  0.
          5    1    1    2  502    0  0.67134824246E+02  0.44022385709E+02 -0.27965510931E+03  0.29098818745E+03  0.47000000000E+01 0. -1.
         -5    1    1    2    0  502  0.41349354972E+02  0.51732653993E+02 -0.29792123614E+02  0.72771541658E+02  0.47000000000E+01 0. -1.
        -11    1    3    3    0    0 -0.66230994464E+02 -0.91307809864E+02 -0.12317354290E+03  0.16701910801E+03  0.00000000000E+00 0.  1.
         11    1    3    3    0    0 -0.42253184754E+02 -0.44472298389E+01 -0.14834432740E+03  0.15430861592E+03  0.00000000000E+00 0. -1.
<mgrwt>
<rscale>  0 0.18617666E+03</rscale>
<asrwt>0</asrwt>
<pdfrwt beam="2">  1        2 0.97388664E-01 0.19121598E+03</pdfrwt>
<pdfrwt beam="1">  1       -2 0.80094111E-02 0.19121598E+03</pdfrwt>
<totfact> 0.43980828E+03</totfact>
</mgrwt>
</event>
<event>
 7    1  0.1422977E-005  0.1422565E+03  0.7546771E-02  0.1223970E+00
         -1   -1    0    0    0  501 -0.00000000000E+00  0.00000000000E+00  0.22959764586E+03  0.22959764586E+03  0.00000000000E+00 0.  1.
          1   -1    0    0  501    0  0.00000000000E+00 -0.00000000000E+00 -0.77279117254E+02  0.77279117254E+02  0.00000000000E+00 0. -1.
         23    2    1    2    0    0 -0.56041358869E+02  0.38357638070E+02  0.12082925935E+03  0.16117680574E+03  0.82257586236E+02 0.  0.
          5    1    1    2  502    0 -0.29562173446E+02 -0.40915244099E+00  0.41761766464E+02  0.51383116320E+02  0.47000000000E+01 0. -1.
         -5    1    1    2    0  502  0.85603532315E+02 -0.37948485629E+02 -0.10272497208E+02  0.94316841048E+02  0.47000000000E+01 0. -1.
        -11    1    3    3    0    0  0.87234834037E+01  0.28601397863E+02  0.83969040480E+01  0.31058768810E+02  0.00000000000E+00 0. -1.
         11    1    3    3    0    0 -0.64764842273E+02  0.97562402077E+01  0.11243235530E+03  0.13011803693E+03  0.00000000000E+00 0.  1.
<mgrwt>
<rscale>  0 0.13237729E+03</rscale>
<asrwt>0</asrwt>
<pdfrwt beam="2">  1        1 0.11889095E-01 0.14225647E+03</pdfrwt>
<pdfrwt beam="1">  1       -1 0.35322714E-01 0.14225647E+03</pdfrwt>
<totfact> 0.37632009E+03</totfact>
</mgrwt>
</event>
<event>
 7    1  0.1422977E-005  0.4693452E+03  0.7546771E-02  0.1022105E+00
         -1   -1    0    0    0  501 -0.00000000000E+00  0.00000000000E+00  0.53072308194E+02  0.53072308194E+02  0.00000000000E+00 0.  1.
          1   -1    0    0  501    0  0.00000000000E+00 -0.00000000000E+00 -0.10376642825E+04  0.10376642825E+04  0.00000000000E+00 0. -1.
         23    2    1    2    0    0 -0.78204817783E+02 -0.38912875312E+01 -0.57380533445E+02  0.13330070769E+03  0.91353256144E+02 0.  0.
          5    1    1    2  502    0  0.12818144829E+03  0.36538542856E+02 -0.84647445966E+03  0.85691694444E+03  0.47000000000E+01 0. -1.
         -5    1    1    2    0  502 -0.49976630507E+02 -0.32647255325E+02 -0.80736981158E+02  0.10051893853E+03  0.47000000000E+01 0.  1.
        -11    1    3    3    0    0 -0.43906191047E+02  0.20552264894E+02 -0.73630861636E+02  0.88156979247E+02  0.00000000000E+00 0. -1.
         11    1    3    3    0    0 -0.34298626736E+02 -0.24443552425E+02  0.16250328191E+02  0.45143728440E+02  0.00000000000E+00 0.  1.
<mgrwt>
<rscale>  0 0.46934524E+03</rscale>
<asrwt>0</asrwt>
<pdfrwt beam="2">  1        1 0.15964067E+00 0.46934524E+03</pdfrwt>
<pdfrwt beam="1">  1       -1 0.81649701E-02 0.46934524E+03</pdfrwt>
<totfact> 0.12460978E+03</totfact>
</mgrwt>
</event>
<event>
 7    1  0.1422977E-005  0.1971203E+03  0.7546771E-02  0.1154366E+00
         -1   -1    0    0    0  501 -0.00000000000E+00  0.00000000000E+00  0.27488081570E+02  0.27488081570E+02  0.00000000000E+00 0.  1.
          1   -1    0    0  501    0  0.00000000000E+00 -0.00000000000E+00 -0.13736839120E+04  0.13736839120E+04  0.00000000000E+00 0. -1.
         23    2    1    2    0    0 -0.14618013301E+03  0.43169887486E+02 -0.55308220128E+03  0.58392929154E+03  0.10881739598E+03 0.  0.
          5    1    1    2  502    0 -0.14614572624E+01 -0.44760622635E+02 -0.26752874838E+03  0.27129203897E+03  0.47000000000E+01 0. -1.
         -5    1    1    2    0  502  0.14764159027E+03  0.15907351488E+01 -0.52558488078E+03  0.54595066309E+03  0.47000000000E+01 0. -1.
        -11    1    3    3    0    0 -0.36013446542E+02  0.65173002056E+02 -0.20038704560E+03  0.21377431224E+03  0.00000000000E+00 0. -1.
         11    1    3    3    0    0 -0.11016668646E+03 -0.22003114570E+02 -0.35269515568E+03  0.37015497930E+03  0.00000000000E+00 0.  1.
<mgrwt>
<rscale>  0 0.19461256E+03</rscale>
<asrwt>0</asrwt>
<pdfrwt beam="2">  1        1 0.21133600E+00 0.19712028E+03</pdfrwt>
<pdfrwt beam="1">  1       -1 0.42289354E-02 0.19712028E+03</pdfrwt>
<totfact> 0.19670476E+03</totfact>
</mgrwt>
</event>
<event>
 7    1  0.1422977E-005  0.1981229E+03  0.7546771E-02  0.1155688E+00
         -4   -1    0    0    0  501 -0.00000000000E+00  0.00000000000E+00  0.51744351656E+02  0.51744351656E+02  0.00000000000E+00 0.  1.
          4   -1    0    0  501    0  0.00000000000E+00 -0.00000000000E+00 -0.81650424355E+03  0.81650424355E+03  0.00000000000E+00 0. -1.
         23    2    1    2    0    0 -0.87421936138E+02 -0.12643065389E+03 -0.19283685117E+03  0.26298118659E+03  0.91355066468E+02 0.  0.
          5    1    1    2  502    0 -0.30530674450E+02  0.17891257027E+02 -0.74037013212E+02  0.82193603679E+02  0.47000000000E+01 0. -1.
         -5    1    1    2    0  502  0.11795261059E+03  0.10853939687E+03 -0.49788602751E+03  0.52307380494E+03  0.47000000000E+01 0. -1.
        -11    1    3    3    0    0 -0.13267511669E+02  0.74314947822E-01  0.70901110309E+01  0.15043339490E+02  0.00000000000E+00 0.  1.
         11    1    3    3    0    0 -0.74154424469E+02 -0.12650496884E+03 -0.19992696220E+03  0.24793784710E+03  0.00000000000E+00 0. -1.
<mgrwt>
<rscale>  0 0.19310742E+03</rscale>
<asrwt>0</asrwt>
<pdfrwt beam="2">  1        4 0.12561603E+00 0.19812287E+03</pdfrwt>
<pdfrwt beam="1">  1       -4 0.79606699E-02 0.19812287E+03</pdfrwt>
<totfact> 0.98029142E+01</totfact>
</mgrwt>
</event>
<event>
 7    1  0.1422977E-005  0.1371708E+03  0.7546771E-02  0.1229109E+00
          1   -1    0    0  501    0  0.00000000000E+00  0.00000000000E+00  0.25407447927E+03  0.25407447927E+03  0.00000000000E+00 0. -1.
         -1   -1    0    0    0  501 -0.00000000000E+00 -0.00000000000E+00 -0.63458871035E+02  0.63458871035E+02  0.00000000000E+00 0.  1.
         23    2    1    2    0    0  0.56332445827E+02  0.16365699138E+01  0.40927547373E+02  0.11450051135E+03  0.90880581822E+02 0.  0.
          5    1    1    2  502    0 -0.34488355760E+02 -0.45553374515E+02  0.14485180019E+02  0.59130931440E+02  0.47000000000E+01 0.  1.
         -5    1    1    2    0  502 -0.21844090067E+02  0.43916804602E+02  0.13520288084E+03  0.14390190751E+03  0.47000000000E+01 0.  1.
        -11    1    3    3    0    0  0.57321109349E+02  0.28576365490E+02  0.54699935230E+02  0.84228268151E+02  0.00000000000E+00 0. -1.
         11    1    3    3    0    0 -0.98866352165E+00 -0.26939795576E+02 -0.13772387857E+02  0.30272243202E+02  0.00000000000E+00 0.  1.
<mgrwt>
<rscale>  0 0.12889234E+03</rscale>
<asrwt>0</asrwt>
<pdfrwt beam="1">  1        1 0.39088381E-01 0.13717076E+03</pdfrwt>
<pdfrwt beam="2">  1       -1 0.97629034E-02 0.13717076E+03</pdfrwt>
<totfact> 0.65246969E+03</totfact>
</mgrwt>
</event>
<event>
 7    1  0.1422977E-005  0.1504277E+03  0.7546771E-02  0.1208859E+00
          2   -1    0    0  501    0  0.00000000000E+00  0.00000000000E+00  0.12301611614E+04  0.12301611614E+04  0.00000000000E+00 0. -1.
         -2   -1    0    0    0  501 -0.00000000000E+00 -0.00000000000E+00 -0.15345472052E+02  0.15345472052E+02  0.00000000000E+00 0.  1.
         23    2    1    2    0    0  0.79942463714E+02 -0.24740140548E+02  0.52424110933E+03  0.53873810835E+03  0.91690439055E+02 0.  0.
          5    1    1    2  502    0 -0.56669781879E+02  0.44765874372E+02  0.16375578106E+03  0.17903489469E+03  0.47000000000E+01 0.  1.
         -5    1    1    2    0  502 -0.23272681835E+02 -0.20025733824E+02  0.52681879891E+03  0.52773363037E+03  0.47000000000E+01 0.  1.
        -11    1    3    3    0    0  0.38207584373E+02  0.34611060286E+02  0.21216541497E+03  0.21833897570E+03  0.00000000000E+00 0.  1.
         11    1    3    3    0    0  0.41734879341E+02 -0.59351200834E+02  0.31207569436E+03  0.32039913265E+03  0.00000000000E+00 0. -1.
<mgrwt>
<rscale>  0 0.14337428E+03</rscale>
<asrwt>0</asrwt>
<pdfrwt beam="1">  1        2 0.18925549E+00 0.15042772E+03</pdfrwt>
<pdfrwt beam="2">  1       -2 0.23608428E-02 0.15042772E+03</pdfrwt>
<totfact> 0.11303618E+04</totfact>
</mgrwt>
</event>
<event>
 7    1  0.1422977E-005  0.2239559E+03  0.7546771E-02  0.1130968E+00
         -1   -1    0    0    0  501 -0.00000000000E+00  0.00000000000E+00  0.82137997822E+03  0.82137997822E+03  0.00000000000E+00 0.  1.
          1   -1    0    0  501    0  0.00000000000E+00 -0.00000000000E+00 -0.15265841345E+02  0.15265841345E+02  0.00000000000E+00 0. -1.
         23    2    1    2    0    0 -0.71605960574E+01 -0.52200014345E+01  0.45245410006E+03  0.46144561819E+03  0.90215427374E+02 0.  0.
          5    1    1    2  502    0  0.58375174608E+01  0.21221081975E+02  0.14063485617E+01  0.22549473310E+02  0.47000000000E+01 0. -1.
         -5    1    1    2    0  502  0.13230785966E+01 -0.16001080541E+02  0.35225368825E+03  0.35265072806E+03  0.47000000000E+01 0. -1.
        -11    1    3    3    0    0  0.45389718628E+01  0.41178606698E+02  0.17057040426E+03  0.17552932155E+03  0.00000000000E+00 0.  1.
         11    1    3    3    0    0 -0.11699567920E+02 -0.46398608132E+02  0.28188369581E+03  0.28591629665E+03  0.00000000000E+00 0. -1.
<mgrwt>
<rscale>  0 0.22395586E+03</rscale>
<asrwt>0</asrwt>
<pdfrwt beam="2">  1        1 0.23485916E-02 0.22395586E+03</pdfrwt>
<pdfrwt beam="1">  1       -1 0.12636612E+00 0.22395586E+03</pdfrwt>
<totfact> 0.27847663E+03</totfact>
</mgrwt>
</event>
<event>
 7    1  0.1764332E-005  0.1278748E+03  0.7546771E-02  0.1247398E+00
         -2   -1    0    0    0  501 -0.00000000000E+00  0.00000000000E+00  0.24289749162E+03  0.24289749162E+03  0.00000000000E+00 0.  1.
          2   -1    0    0  501    0  0.00000000000E+00 -0.00000000000E+00 -0.58134646604E+02  0.58134646604E+02  0.00000000000E+00 0. -1.
         23    2    1    2    0    0  0.19214698578E+02 -0.18925665195E+02  0.13718983101E+03  0.16459481086E+03  0.86850541649E+02 0.  0.
          5    1    1    2  502    0  0.96870909428E+01  0.66285386458E+02  0.44723335846E+02  0.80683696978E+02  0.47000000000E+01 0.  1.
         -5    1    1    2    0  502 -0.28901789521E+02 -0.47359721263E+02  0.28496781608E+01  0.55753630386E+02  0.47000000000E+01 0.  1.
        -11    1    3    3    0    0  0.45543045862E+02  0.14687890129E+02  0.64850220191E+02  0.80594380708E+02  0.00000000000E+00 0. -1.
         11    1    3    3    0    0 -0.26328347284E+02 -0.33613555325E+02  0.72339610814E+02  0.84000430147E+02  0.00000000000E+00 0.  1.
<mgrwt>
<rscale>  0 0.11743010E+03</rscale>
<asrwt>0</asrwt>
<pdfrwt beam="2">  1        2 0.89437919E-02 0.12787475E+03</pdfrwt>
<pdfrwt beam="1">  1       -2 0.37368844E-01 0.12787475E+03</pdfrwt>
<totfact> 0.47425222E+03</totfact>
</mgrwt>
</event>
<event>
 7    1  0.1422977E-005  0.1356606E+03  0.7546771E-02  0.1231371E+00
          2   -1    0    0  501    0  0.00000000000E+00  0.00000000000E+00  0.52376924772E+02  0.52376924772E+02  0.00000000000E+00 0. -1.
         -2   -1    0    0    0  501 -0.00000000000E+00 -0.00000000000E+00 -0.28815311375E+03  0.28815311375E+03  0.00000000000E+00 0.  1.
         23    2    1    2    0    0  0.50831894199E+02  0.14006235410E+02 -0.13601690365E+03  0.17213848631E+03  0.91383829486E+02 0.  0.
          5    1    1    2  502    0 -0.85780021602E+02  0.16951389068E+02 -0.75228643497E+02  0.11544262861E+03  0.47000000000E+01 0.  1.
         -5    1    1    2    0  502  0.34948127404E+02 -0.30957624479E+02 -0.24530641829E+02  0.52948923605E+02  0.47000000000E+01 0.  1.
        -11    1    3    3    0    0 -0.11243738040E+02 -0.21420303309E+02 -0.79279636727E+01  0.25457879860E+02  0.00000000000E+00 0. -1.
         11    1    3    3    0    0  0.62075632239E+02  0.35426538719E+02 -0.12808893997E+03  0.14668060645E+03  0.00000000000E+00 0.  1.
<mgrwt>
<rscale>  0 0.12739647E+03</rscale>
<asrwt>0</asrwt>
<pdfrwt beam="1">  1        2 0.80579883E-02 0.13566061E+03</pdfrwt>
<pdfrwt beam="2">  1       -2 0.44331249E-01 0.13566061E+03</pdfrwt>
<totfact> 0.39216923E+03</totfact>
</mgrwt>
</event>
<event>
 7    1  0.1422977E-005  0.1791638E+03  0.7546771E-02  0.1174463E+00
         -2   -1    0    0    0  501 -0.00000000000E+00  0.00000000000E+00  0.72508799079E+02  0.72508799079E+02  0.00000000000E+00 0.  1.
          2   -1    0    0  501    0  0.00000000000E+00 -0.00000000000E+00 -0.50520494557E+03  0.50520494557E+03  0.00000000000E+00 0. -1.
         23    2    1    2    0    0 -0.99008664472E+02  0.81693951894E+02 -0.67027684764E+02  0.17051220509E+03  0.90028240800E+02 0.  0.
          5    1    1    2  502    0  0.13429636562E+02 -0.42549806369E+02 -0.20361385045E+02  0.49269840279E+02  0.47000000000E+01 0. -1.
         -5    1    1    2    0  502  0.85579027910E+02 -0.39144145525E+02 -0.34530707668E+03  0.35793169928E+03  0.47000000000E+01 0. -1.
        -11    1    3    3    0    0 -0.89926026466E+02  0.10090661406E+03 -0.53772659856E+02  0.14546592022E+03  0.00000000000E+00 0.  1.
         11    1    3    3    0    0 -0.90826380064E+01 -0.19212662161E+02 -0.13255024908E+02  0.25046284870E+02  0.00000000000E+00 0. -1.
<mgrwt>
<rscale>  0 0.17328629E+03</rscale>
<asrwt>0</asrwt>
<pdfrwt beam="2">  1        2 0.77723839E-01 0.17916381E+03</pdfrwt>
<pdfrwt beam="1">  1       -2 0.11155200E-01 0.17916381E+03</pdfrwt>
<totfact> 0.33641356E+03</totfact>
</mgrwt>
</event>
<event>
 7    1  0.1422977E-005  0.1286355E+03  0.7546771E-02  0.1244073E+00
         -3   -1    0    0    0  501 -0.00000000000E+00  0.00000000000E+00  0.50883529576E+02  0.50883529576E+02  0.00000000000E+00 0.  1.
          3   -1    0    0  501    0  0.00000000000E+00 -0.00000000000E+00 -0.25091473966E+03  0.25091473966E+03  0.00000000000E+00 0. -1.
         23    2    1    2    0    0  0.16160070217E+02  0.25678196381E+02 -0.66510201109E+02  0.11639341401E+03  0.90572083644E+02 0.  0.
          5    1    1    2  502    0 -0.23755895224E+02  0.45041890376E+02 -0.84925975198E+02  0.99134382077E+02  0.47000000000E+01 0. -1.
         -5    1    1    2    0  502  0.75958250070E+01 -0.70720086757E+02 -0.48595033773E+02  0.86270473140E+02  0.47000000000E+01 0. -1.
        -11    1    3    3    0    0  0.51926683160E+02  0.16347183969E+02 -0.55691194840E+02  0.77878880516E+02  0.00000000000E+00 0. -1.
         11    1    3    3    0    0 -0.35766612942E+02  0.93310124115E+01 -0.10819006269E+02  0.38514533499E+02  0.00000000000E+00 0.  1.
<mgrwt>
<rscale>  0 0.11941058E+03</rscale>
<asrwt>0</asrwt>
<pdfrwt beam="2">  1        3 0.38602267E-01 0.12863553E+03</pdfrwt>
<pdfrwt beam="1">  1       -3 0.78282354E-02 0.12863553E+03</pdfrwt>
<totfact> 0.16737956E+03</totfact>
</mgrwt>
</event>
<event>
 7    1  0.1422977E-005  0.2039953E+03  0.7546771E-02  0.1150526E+00
          2   -1    0    0  501    0  0.00000000000E+00  0.00000000000E+00  0.40815783865E+03  0.40815783865E+03  0.00000000000E+00 0. -1.
         -2   -1    0    0    0  501 -0.00000000000E+00 -0.00000000000E+00 -0.10542021012E+03  0.10542021012E+03  0.00000000000E+00 0.  1.
         23    2    1    2    0    0  0.15362775387E+00 -0.16127345148E+03  0.55699354893E+02  0.19320013396E+03  0.90635113899E+02 0.  0.
          5    1    1    2  502    0 -0.13662178552E+02 -0.22268453708E+01  0.96721318668E+02  0.97819821345E+02  0.47000000000E+01 0.  1.
         -5    1    1    2    0  502  0.13508550798E+02  0.16350029685E+03  0.15031695497E+03  0.22255809347E+03  0.47000000000E+01 0.  1.
        -11    1    3    3    0    0 -0.44088994119E+02 -0.59811746622E+02  0.21801239140E+02  0.77437577858E+02  0.00000000000E+00 0. -1.
         11    1    3    3    0    0  0.44242621873E+02 -0.10146170486E+03  0.33898115753E+02  0.11576255610E+03  0.00000000000E+00 0.  1.
<mgrwt>
<rscale>  0 0.19907024E+03</rscale>
<asrwt>0</asrwt>
<pdfrwt beam="1">  1        2 0.62793513E-01 0.20399534E+03</pdfrwt>
<pdfrwt beam="2">  1       -2 0.16218494E-01 0.20399534E+03</pdfrwt>
<totfact> 0.23208849E+03</totfact>
</mgrwt>
</event>
<event>
 7    1  0.1422977E-005  0.2236181E+03  0.7546771E-02  0.1135214E+00
         -3   -1    0    0    0  501 -0.00000000000E+00  0.00000000000E+00  0.51761359713E+03  0.51761359713E+03  0.00000000000E+00 0.  1.
          3   -1    0    0  501    0  0.00000000000E+00 -0.00000000000E+00 -0.13231727327E+03  0.13231727327E+03  0.00000000000E+00 0. -1.
         23    2    1    2    0    0  0.15368316914E+03  0.10375837694E+03  0.37469375543E+03  0.42606160413E+03  0.82150854476E+02 0.  0.
          5    1    1    2  502    0 -0.12844133444E+03 -0.11717374240E+03 -0.27417772242E+02  0.17607011824E+03  0.47000000000E+01 0.  1.
         -5    1    1    2    0  502 -0.25241834693E+02  0.13415365460E+02  0.38020340667E+02  0.47799148042E+02  0.47000000000E+01 0.  1.
        -11    1    3    3    0    0  0.72036713435E+02  0.59796292074E+02  0.27217553202E+03  0.28782703983E+03  0.00000000000E+00 0.  1.
         11    1    3    3    0    0  0.81646455701E+02  0.43962084863E+02  0.10251822341E+03  0.13823456429E+03  0.00000000000E+00 0. -1.
<mgrwt>
<rscale>  0 0.21822477E+03</rscale>
<asrwt>0</asrwt>
<pdfrwt beam="2">  1        3 0.20356504E-01 0.22361805E+03</pdfrwt>
<pdfrwt beam="1">  1       -3 0.79632860E-01 0.22361805E+03</pdfrwt>
<totfact> 0.80723842E+01</totfact>
</mgrwt>
</event>
<event>
 7    1  0.1422977E-005  0.1338369E+03  0.7546771E-02  0.1233889E+00
         -2   -1    0    0    0  501 -0.00000000000E+00  0.00000000000E+00  0.88331274438E+02  0.88331274438E+02  0.00000000000E+00 0.  1.
          2   -1    0    0  501    0  0.00000000000E+00 -0.00000000000E+00 -0.20162833392E+03  0.20162833392E+03  0.00000000000E+00 0. -1.
         23    2    1    2    0    0 -0.47426302896E+02  0.61407131348E+01  0.13981148856E+02  0.10526511404E+03  0.92727068039E+02 0.  0.
          5    1    1    2  502    0 -0.19361172157E+02  0.42873828966E+02 -0.26661069454E+02  0.54276356012E+02  0.47000000000E+01 0. -1.
         -5    1    1    2    0  502  0.66787475054E+02 -0.49014542101E+02 -0.10061713889E+03  0.13041813830E+03  0.47000000000E+01 0. -1.
        -11    1    3    3    0    0 -0.33886579568E+02 -0.31317032273E+02  0.37104457291E+02  0.59209775680E+02  0.00000000000E+00 0.  1.
         11    1    3    3    0    0 -0.13539723329E+02  0.37457745408E+02 -0.23123308435E+02  0.46055338364E+02  0.00000000000E+00 0. -1.
<mgrwt>
<rscale>  0 0.12575834E+03</rscale>
<asrwt>0</asrwt>
<pdfrwt beam="2">  1        2 0.31019744E-01 0.13383689E+03</pdfrwt>
<pdfrwt beam="1">  1       -2 0.13589427E-01 0.13383689E+03</pdfrwt>
<totfact> 0.64753904E+03</totfact>
</mgrwt>
</event>
<event>
 7    1  0.1422977E-005  0.1698226E+03  0.7546771E-02  0.1184815E+00
          3   -1    0    0  501    0  0.00000000000E+00  0.00000000000E+00  0.11652222836E+04  0.11652222836E+04  0.00000000000E+00 0. -1.
         -3   -1    0    0    0  501 -0.00000000000E+00 -0.00000000000E+00 -0.21416010706E+02  0.21416010706E+02  0.00000000000E+00 0.  1.
         23    2    1    2    0    0 -0.94517385289E+02 -0.65562860587E+02  0.50485150406E+03  0.52550070816E+03  0.89687949682E+02 0.  0.
          5    1    1    2  502    0 -0.16455725517E+02  0.39330276423E+02  0.81266914745E+02  0.91891582737E+02  0.47000000000E+01 0.  1.
         -5    1    1    2    0  502  0.11097311081E+03  0.26232584164E+02  0.55768785406E+03  0.56924600338E+03  0.47000000000E+01 0.  1.
        -11    1    3    3    0    0 -0.34349383100E+02 -0.75663886742E+02  0.24999525300E+03  0.26344360003E+03  0.00000000000E+00 0.  1.
         11    1    3    3    0    0 -0.60168002189E+02  0.10101026155E+02  0.25485625105E+03  0.26205710812E+03  0.00000000000E+00 0. -1.
<mgrwt>
<rscale>  0 0.16348681E+03</rscale>
<asrwt>0</asrwt>
<pdfrwt beam="1">  1        3 0.17926492E+00 0.16982259E+03</pdfrwt>
<pdfrwt beam="2">  1       -3 0.32947718E-02 0.16982259E+03</pdfrwt>
<totfact> 0.22961740E+02</totfact>
</mgrwt>
</event>
<event>
 7    1  0.1422977E-005  0.1286078E+03  0.7546771E-02  0.1244461E+00
          2   -1    0    0  501    0  0.00000000000E+00  0.00000000000E+00  0.34509557181E+02  0.34509557181E+02  0.00000000000E+00 0. -1.
         -2   -1    0    0    0  501 -0.00000000000E+00 -0.00000000000E+00 -0.36814491999E+03  0.36814491999E+03  0.00000000000E+00 0.  1.
         23    2    1    2    0    0 -0.26398338365E+02 -0.15187034992E+02 -0.16840856306E+03  0.19327477603E+03  0.89811895845E+02 0.  0.
          5    1    1    2  502    0 -0.31848021724E+02 -0.26638325432E+02 -0.17892948858E+02  0.45454862099E+02  0.47000000000E+01 0.  1.
         -5    1    1    2    0  502  0.58246360090E+02  0.41825360424E+02 -0.14733385089E+03  0.16392483904E+03  0.47000000000E+01 0.  1.
        -11    1    3    3    0    0 -0.29765829975E+02 -0.45316918884E+02 -0.14550552775E+03  0.15527873769E+03  0.00000000000E+00 0.  1.
         11    1    3    3    0    0  0.33674916095E+01  0.30129883892E+02 -0.22903035309E+02  0.37996038339E+02  0.00000000000E+00 0. -1.
<mgrwt>
<rscale>  0 0.11917708E+03</rscale>
<asrwt>0</asrwt>
<pdfrwt beam="1">  1        2 0.53091625E-02 0.12860779E+03</pdfrwt>
<pdfrwt beam="2">  1       -2 0.56637681E-01 0.12860779E+03</pdfrwt>
<totfact> 0.40997549E+03</totfact>
</mgrwt>
</event>
<event>
 7    1  0.1422977E-005  0.1406362E+03  0.7546771E-02  0.1223620E+00
         -2   -1    0    0    0  501 -0.00000000000E+00  0.00000000000E+00  0.44332136114E+02  0.44332136114E+02  0.00000000000E+00 0.  1.
          2   -1    0    0  501    0  0.00000000000E+00 -0.00000000000E+00 -0.41153614017E+03  0.41153614017E+03  0.00000000000E+00 0. -1.
         23    2    1    2    0    0 -0.54329868438E+02  0.34642798677E+02 -0.82983775362E+02  0.13875680883E+03  0.90638219968E+02 0.  0.
          5    1    1    2  502    0  0.44946067344E+02 -0.42655921923E+02 -0.43092079052E+02  0.75622046533E+02  0.47000000000E+01 0.  1.
         -5    1    1    2    0  502  0.93838010938E+01  0.80131232461E+01 -0.24112814964E+03  0.24148942092E+03  0.47000000000E+01 0.  1.
        -11    1    3    3    0    0 -0.70129281135E+02  0.43468792712E+02 -0.87332497993E+02  0.12014415183E+03  0.00000000000E+00 0. -1.
         11    1    3    3    0    0  0.15799412697E+02 -0.88259940347E+01  0.43487226305E+01  0.18612657005E+02  0.00000000000E+00 0.  1.
<mgrwt>
<rscale>  0 0.13261925E+03</rscale>
<asrwt>0</asrwt>
<pdfrwt beam="2">  1        2 0.63313253E-01 0.14063621E+03</pdfrwt>
<pdfrwt beam="1">  1       -2 0.68203286E-02 0.14063621E+03</pdfrwt>
<totfact> 0.89555765E+03</totfact>
</mgrwt>
</event>
<event>
 7    1  0.1422977E-005  0.1455834E+03  0.7546771E-02  0.1216088E+00
          1   -1    0    0  501    0  0.00000000000E+00  0.00000000000E+00  0.40455349695E+03  0.40455349695E+03  0.00000000000E+00 0. -1.
         -1   -1    0    0    0  501 -0.00000000000E+00 -0.00000000000E+00 -0.43771013557E+02  0.43771013557E+02  0.00000000000E+00 0.  1.
         23    2    1    2    0    0 -0.19689795830E+02  0.71982332819E+02  0.12748597822E+03  0.17333033341E+03  0.90672959246E+02 0.  0.
          5    1    1    2  502    0 -0.36475940207E+02  0.58541257653E+01  0.12393258186E+03  0.12940687714E+03  0.47000000000E+01 0. -1.
         -5    1    1    2    0  502  0.56165736037E+02 -0.77836458584E+02  0.10936392331E+03  0.14558729997E+03  0.47000000000E+01 0. -1.
        -11    1    3    3    0    0 -0.19030080511E+02  0.47826687170E+02  0.13776742001E+03  0.14706936454E+03  0.00000000000E+00 0. -1.
         11    1    3    3    0    0 -0.65971531855E+00  0.24155645649E+02 -0.10281441783E+02  0.26260968873E+02  0.00000000000E+00 0.  1.
<mgrwt>
<rscale>  0 0.13796928E+03</rscale>
<asrwt>0</asrwt>
<pdfrwt beam="1">  1        1 0.62238997E-01 0.14558344E+03</pdfrwt>
<pdfrwt beam="2">  1       -1 0.67340024E-02 0.14558344E+03</pdfrwt>
<totfact> 0.64327722E+03</totfact>
</mgrwt>
</event>
<event>
 7    1  0.1422977E-005  0.2496987E+03  0.7546771E-02  0.1119447E+00
         -2   -1    0    0    0  501 -0.00000000000E+00  0.00000000000E+00  0.27144609772E+02  0.27144609772E+02  0.00000000000E+00 0.  1.
          2   -1    0    0  501    0  0.00000000000E+00 -0.00000000000E+00 -0.37721785900E+04  0.37721785900E+04  0.00000000000E+00 0. -1.
         23    2    1    2    0    0  0.97638551049E+01  0.19145578188E+03 -0.49436480759E+03  0.53907788882E+03  0.97251004890E+02 0.  0.
          5    1    1    2  502    0 -0.83458298264E+01 -0.86590268430E+02 -0.25746413305E+04  0.25761148263E+04  0.47000000000E+01 0. -1.
         -5    1    1    2    0  502 -0.14180252784E+01 -0.10486551345E+03 -0.67602784218E+03  0.68413048471E+03  0.47000000000E+01 0.  1.
        -11    1    3    3    0    0  0.31654366803E+02  0.14801439941E+03 -0.44384934181E+03  0.46894829096E+03  0.00000000000E+00 0.  1.
         11    1    3    3    0    0 -0.21890511698E+02  0.43441382467E+02 -0.50515465778E+02  0.70129597859E+02  0.00000000000E+00 0. -1.
<mgrwt>
<rscale>  0 0.24052060E+03</rscale>
<asrwt>0</asrwt>
<pdfrwt beam="2">  1        2 0.58033473E+00 0.24969865E+03</pdfrwt>
<pdfrwt beam="1">  1       -2 0.41760970E-02 0.24969865E+03</pdfrwt>
<totfact> 0.17123752E+02</totfact>
</mgrwt>
</event>
<event>
 7    1  0.1422977E-005  0.1538529E+03  0.7546771E-02  0.1204117E+00
         -1   -1    0    0    0  501 -0.00000000000E+00  0.00000000000E+00  0.34882708448E+03  0.34882708448E+03  0.00000000000E+00 0.  1.
          1   -1    0    0  501    0  0.00000000000E+00 -0.00000000000E+00 -0.62732937379E+02  0.62732937379E+02  0.00000000000E+00 0. -1.
         23    2    1    2    0    0  0.68758331265E+02 -0.57779984382E+02  0.19263168022E+03  0.23154347207E+03  0.91865012495E+02 0.  0.
          5    1    1    2  502    0 -0.77668680589E+02 -0.13781344168E+02  0.32399859426E+02  0.85406031885E+02  0.47000000000E+01 0.  1.
         -5    1    1    2    0  502  0.89103493236E+01  0.71561328550E+02  0.61062607454E+02  0.94610517903E+02  0.47000000000E+01 0.  1.
        -11    1    3    3    0    0  0.59826508641E+02  0.79026802488E+01  0.11142854287E+03  0.12672009966E+03  0.00000000000E+00 0.  1.
         11    1    3    3    0    0  0.89318226239E+01 -0.65682664630E+02  0.81203137349E+02  0.10482337241E+03  0.00000000000E+00 0. -1.
<mgrwt>
<rscale>  0 0.14707290E+03</rscale>
<asrwt>0</asrwt>
<pdfrwt beam="2">  1        1 0.96512214E-02 0.15385293E+03</pdfrwt>
<pdfrwt beam="1">  1       -1 0.53665704E-01 0.15385293E+03</pdfrwt>
<totfact> 0.23606904E+03</totfact>
</mgrwt>
</event>
<event>
 7    1  0.1422977E-005  0.1707578E+03  0.7546771E-02  0.1184271E+00
         -1   -1    0    0    0  501 -0.00000000000E+00  0.00000000000E+00  0.67501841534E+02  0.67501841534E+02  0.00000000000E+00 0.  1.
          1   -1    0    0  501    0  0.00000000000E+00 -0.00000000000E+00 -0.37829612921E+03  0.37829612921E+03  0.00000000000E+00 0. -1.
         23    2    1    2    0    0 -0.98551793141E+02 -0.61807743325E+02 -0.10983390221E+03  0.18208730606E+03  0.86946235608E+02 0.  0.
          5    1    1    2  502    0  0.86186567589E+02  0.92406966728E+02 -0.11276795325E+03  0.16942807681E+03  0.47000000000E+01 0.  1.
         -5    1    1    2    0  502  0.12365225552E+02 -0.30599223403E+02 -0.88192432223E+02  0.94282587879E+02  0.47000000000E+01 0.  1.
        -11    1    3    3    0    0 -0.37387379469E+02 -0.61010836749E+02 -0.95373219820E+02  0.11923166275E+03  0.00000000000E+00 0. -1.
         11    1    3    3    0    0 -0.61164413671E+02 -0.79690657642E+00 -0.14460682390E+02  0.62855643303E+02  0.00000000000E+00 0.  1.
<mgrwt>
<rscale>  0 0.16398381E+03</rscale>
<asrwt>0</asrwt>
<pdfrwt beam="2">  1        1 0.58199404E-01 0.17075783E+03</pdfrwt>
<pdfrwt beam="1">  1       -1 0.10384899E-01 0.17075783E+03</pdfrwt>
<totfact> 0.36575758E+03</totfact>
</mgrwt>
</event>
<event>
 7    1  0.1422977E-005  0.2813080E+03  0.7546771E-02  0.1096780E+00
          1   -1    0    0  501    0  0.00000000000E+00  0.00000000000E+00  0.25540822436E+03  0.25540822436E+03  0.00000000000E+00 0. -1.
         -1   -1    0    0    0  501 -0.00000000000E+00 -0.00000000000E+00 -0.42667094339E+03  0.42667094339E+03  0.00000000000E+00 0.  1.
         23    2    1    2    0    0  0.97971491193E+01 -0.25182002214E+03 -0.27312407503E+03  0.38289706786E+03  0.92217658443E+02 0.  0.
          5    1    1    2  502    0  0.30639082806E+02  0.23195779077E+03  0.71676768833E+02  0.24475052459E+03  0.47000000000E+01 0. -1.
         -5    1    1    2    0  502 -0.40436231926E+02  0.19862231367E+02  0.30184587168E+02  0.54431575301E+02  0.47000000000E+01 0. -1.
        -11    1    3    3    0    0 -0.17659654391E+02 -0.19467362211E+03 -0.15749274605E+03  0.25102519315E+03  0.00000000000E+00 0. -1.
         11    1    3    3    0    0  0.27456803510E+02 -0.57146400027E+02 -0.11563132898E+03  0.13187187470E+03  0.00000000000E+00 0.  1.
<mgrwt>
<rscale>  0 0.27801180E+03</rscale>
<asrwt>0</asrwt>
<pdfrwt beam="1">  1        1 0.39293573E-01 0.28130800E+03</pdfrwt>
<pdfrwt beam="2">  1       -1 0.65641683E-01 0.28130800E+03</pdfrwt>
<totfact> 0.26353850E+02</totfact>
</mgrwt>
</event>
<event>
 7    1  0.1422977E-005  0.1362536E+03  0.7546771E-02  0.1231526E+00
          4   -1    0    0  501    0  0.00000000000E+00  0.00000000000E+00  0.14599865792E+03  0.14599865792E+03  0.00000000000E+00 0. -1.
         -4   -1    0    0    0  501 -0.00000000000E+00 -0.00000000000E+00 -0.99312203456E+02  0.99312203456E+02  0.00000000000E+00 0.  1.
         23    2    1    2    0    0 -0.31416628581E+02 -0.44179390244E+02  0.10478435951E+02  0.10432839351E+03  0.88520014683E+02 0.  0.
          5    1    1    2  502    0  0.14259358060E+02  0.32929831552E+01  0.78222058041E+02  0.79717961555E+02  0.47000000000E+01 0.  1.
         -5    1    1    2    0  502  0.17157270521E+02  0.40886407089E+02 -0.42014039524E+02  0.61264506311E+02  0.47000000000E+01 0.  1.
        -11    1    3    3    0    0 -0.28287141120E+01  0.13000453231E+02 -0.27088429143E+02  0.30179403592E+02  0.00000000000E+00 0.  1.
         11    1    3    3    0    0 -0.28587914469E+02 -0.57179843475E+02  0.37566865094E+02  0.74148989922E+02  0.00000000000E+00 0. -1.
<mgrwt>
<rscale>  0 0.12729494E+03</rscale>
<asrwt>0</asrwt>
<pdfrwt beam="1">  1        4 0.22461332E-01 0.13625357E+03</pdfrwt>
<pdfrwt beam="2">  1       -4 0.15278801E-01 0.13625357E+03</pdfrwt>
<totfact> 0.11000302E+03</totfact>
</mgrwt>
</event>
<event>
 7    1  0.1422977E-005  0.1385952E+03  0.7546771E-02  0.1227534E+00
          2   -1    0    0  501    0  0.00000000000E+00  0.00000000000E+00  0.19663878890E+03  0.19663878890E+03  0.00000000000E+00 0. -1.
         -2   -1    0    0    0  501 -0.00000000000E+00 -0.00000000000E+00 -0.77198421564E+02  0.77198421564E+02  0.00000000000E+00 0.  1.
         23    2    1    2    0    0 -0.59686526007E+02  0.45451957511E+01  0.41799856780E+02  0.11497665556E+03  0.88821523893E+02 0.  0.
          5    1    1    2  502    0 -0.20015690911E+02  0.29898165695E+02 -0.76248555558E+01  0.37077710512E+02  0.47000000000E+01 0.  1.
         -5    1    1    2    0  502  0.79702216918E+02 -0.34443361446E+02  0.85265366115E+02  0.12178284439E+03  0.47000000000E+01 0.  1.
        -11    1    3    3    0    0 -0.22829705371E+02 -0.18491778768E+02  0.60811480856E+02  0.67536490383E+02  0.00000000000E+00 0. -1.
         11    1    3    3    0    0 -0.36856820636E+02  0.23036974519E+02 -0.19011624077E+02  0.47440165181E+02  0.00000000000E+00 0.  1.
<mgrwt>
<rscale>  0 0.12994750E+03</rscale>
<asrwt>0</asrwt>
<pdfrwt beam="1">  1        2 0.30252121E-01 0.13859519E+03</pdfrwt>
<pdfrwt beam="2">  1       -2 0.11876680E-01 0.13859519E+03</pdfrwt>
<totfact> 0.82799330E+03</totfact>
</mgrwt>
</event>
<event>
 7    1  0.1422977E-005  0.1264337E+03  0.7546771E-02  0.1247138E+00
          1   -1    0    0  501    0  0.00000000000E+00  0.00000000000E+00  0.80195079870E+03  0.80195079870E+03  0.00000000000E+00 0. -1.
         -1   -1    0    0    0  501 -0.00000000000E+00 -0.00000000000E+00 -0.24493713398E+02  0.24493713398E+02  0.00000000000E+00 0.  1.
         23    2    1    2    0    0 -0.18675294728E+02 -0.33228165233E+01  0.10138324063E+03  0.13864997677E+03  0.92657686328E+02 0.  0.
          5    1    1    2  502    0  0.20291506082E+02  0.62536225780E+02  0.31007153215E+03  0.31699995237E+03  0.47000000000E+01 0. -1.
         -5    1    1    2    0  502 -0.16162113534E+01 -0.59213409257E+02  0.36600231253E+03  0.37079458296E+03  0.47000000000E+01 0. -1.
        -11    1    3    3    0    0  0.31141942303E+02 -0.18065669374E+02  0.17619460233E+02  0.40082843702E+02  0.00000000000E+00 0.  1.
         11    1    3    3    0    0 -0.49817237031E+02  0.14742852851E+02  0.83763780395E+02  0.98567133070E+02  0.00000000000E+00 0. -1.
<mgrwt>
<rscale>  0 0.11758345E+03</rscale>
<asrwt>0</asrwt>
<pdfrwt beam="1">  1        1 0.12337703E+00 0.12643370E+03</pdfrwt>
<pdfrwt beam="2">  1       -1 0.37682642E-02 0.12643370E+03</pdfrwt>
<totfact> 0.59578328E+03</totfact>
</mgrwt>
</event>
<event>
 7    1  0.1422977E-005  0.2262285E+03  0.7546771E-02  0.1132443E+00
          2   -1    0    0  501    0  0.00000000000E+00  0.00000000000E+00  0.13940675309E+04  0.13940675309E+04  0.00000000000E+00 0.  1.
         -2   -1    0    0    0  501 -0.00000000000E+00 -0.00000000000E+00 -0.36243271752E+02  0.36243271752E+02  0.00000000000E+00 0. -1.
         23    2    1    2    0    0  0.18703227270E+03  0.23924513019E+02  0.47903675054E+03  0.52287110255E+03  0.91457794407E+02 0.  0.
          5    1    1    2  502    0 -0.11462445307E+03 -0.94101355014E+01  0.75102895276E+03  0.75979858764E+03  0.47000000000E+01 0.  1.
         -5    1    1    2    0  502 -0.72407819638E+02 -0.14514377517E+02  0.12775855589E+03  0.14764111251E+03  0.47000000000E+01 0.  1.
        -11    1    3    3    0    0  0.13834169749E+03 -0.54913095005E+01  0.23918595392E+03  0.27636660489E+03  0.00000000000E+00 0. -1.
         11    1    3    3    0    0  0.48690575218E+02  0.29415822519E+02  0.23985079662E+03  0.24650449767E+03  0.00000000000E+00 0.  1.
<mgrwt>
<rscale>  0 0.22194264E+03</rscale>
<asrwt>0</asrwt>
<pdfrwt beam="1">  1        2 0.21447189E+00 0.22622848E+03</pdfrwt>
<pdfrwt beam="2">  1       -2 0.55758890E-02 0.22622848E+03</pdfrwt>
<totfact> 0.25782560E+03</totfact>
</mgrwt>
</event>
<event>
 7    1  0.1422977E-005  0.1497732E+03  0.7546771E-02  0.1209457E+00
         -2   -1    0    0    0  501 -0.00000000000E+00  0.00000000000E+00  0.54502780622E+02  0.54502780622E+02  0.00000000000E+00 0.  1.
          2   -1    0    0  501    0  0.00000000000E+00 -0.00000000000E+00 -0.35273047775E+03  0.35273047775E+03  0.00000000000E+00 0. -1.
         23    2    1    2    0    0  0.80732380366E+02 -0.17045150420E+02 -0.10404861525E+03  0.16200371407E+03  0.92794583054E+02 0.  0.
          5    1    1    2  502    0  0.24177938883E+02 -0.21762967079E+02 -0.74059254807E+02  0.81025074436E+02  0.47000000000E+01 0.  1.
         -5    1    1    2    0  502 -0.10491031925E+03  0.38808117499E+02 -0.12011982707E+03  0.16420446986E+03  0.47000000000E+01 0.  1.
        -11    1    3    3    0    0  0.38432387978E+01 -0.14968223244E+02 -0.79905920042E+02  0.81386572905E+02  0.00000000000E+00 0. -1.
         11    1    3    3    0    0  0.76889141568E+02 -0.20769271757E+01 -0.24142695211E+02  0.80617141165E+02  0.00000000000E+00 0.  1.
<mgrwt>
<rscale>  0 0.14291669E+03</rscale>
<asrwt>0</asrwt>
<pdfrwt beam="2">  1        2 0.54266227E-01 0.14977321E+03</pdfrwt>
<pdfrwt beam="1">  1       -2 0.83850432E-02 0.14977321E+03</pdfrwt>
<totfact> 0.77129832E+03</totfact>
</mgrwt>
</event>
<event>
 7    1  0.1422977E-005  0.1472579E+03  0.7546771E-02  0.1213894E+00
         -2   -1    0    0    0  501 -0.00000000000E+00  0.00000000000E+00  0.16274923157E+02  0.16274923157E+02  0.00000000000E+00 0.  1.
          2   -1    0    0  501    0  0.00000000000E+00 -0.00000000000E+00 -0.13312677060E+04  0.13312677060E+04  0.00000000000E+00 0. -1.
         23    2    1    2    0    0 -0.73172199658E+02 -0.26622177499E+02 -0.31345187275E+03  0.33523384087E+03  0.89815034349E+02 0.  0.
          5    1    1    2  502    0 -0.16947048434E+02  0.24449521360E+02 -0.59962004468E+03  0.60037594017E+03  0.47000000000E+01 0.  1.
         -5    1    1    2    0  502  0.90119248092E+02  0.21726561392E+01 -0.40192086542E+03  0.41193284814E+03  0.47000000000E+01 0.  1.
        -11    1    3    3    0    0  0.34178364608E+01  0.25757625191E+02 -0.63131689603E+02  0.68269664520E+02  0.00000000000E+00 0. -1.
         11    1    3    3    0    0 -0.76590036119E+02 -0.52379802690E+02 -0.25032018315E+03  0.26696417635E+03  0.00000000000E+00 0.  1.
<mgrwt>
<rscale>  0 0.13958070E+03</rscale>
<asrwt>0</asrwt>
<pdfrwt beam="2">  1        2 0.20481042E+00 0.14725790E+03</pdfrwt>
<pdfrwt beam="1">  1       -2 0.25038343E-02 0.14725790E+03</pdfrwt>
<totfact> 0.91289579E+03</totfact>
</mgrwt>
</event>
<event>
 7    1  0.1422977E-005  0.1410142E+03  0.7546771E-02  0.1223021E+00
          2   -1    0    0  501    0  0.00000000000E+00  0.00000000000E+00  0.64156456688E+02  0.64156456688E+02  0.00000000000E+00 0. -1.
         -2   -1    0    0    0  501 -0.00000000000E+00 -0.00000000000E+00 -0.36323034654E+03  0.36323034654E+03  0.00000000000E+00 0.  1.
         23    2    1    2    0    0  0.65193068095E+02  0.30362713813E+01 -0.25700465323E+03  0.28023104755E+03  0.90657008293E+02 0.  0.
          5    1    1    2  502    0 -0.49220616338E+02  0.14885774340E+02  0.37561026148E+02  0.63852768426E+02  0.47000000000E+01 0. -1.
         -5    1    1    2    0  502 -0.15972451757E+02 -0.17922045721E+02 -0.79630262769E+02  0.83302987261E+02  0.47000000000E+01 0. -1.
        -11    1    3    3    0    0  0.32903567221E+02 -0.41932256067E+02 -0.93715579381E+02  0.10781265535E+03  0.00000000000E+00 0. -1.
         11    1    3    3    0    0  0.32289500875E+02  0.44968527448E+02 -0.16328907385E+03  0.17241839220E+03  0.00000000000E+00 0.  1.
<mgrwt>
<rscale>  0 0.13303484E+03</rscale>
<asrwt>0</asrwt>
<pdfrwt beam="1">  1        2 0.98702240E-02 0.14101417E+03</pdfrwt>
<pdfrwt beam="2">  1       -2 0.55881593E-01 0.14101417E+03</pdfrwt>
<totfact> 0.19329192E+03</totfact>
</mgrwt>
</event>
<event>
 7    1  0.1422977E-005  0.1791637E+03  0.7546771E-02  0.1174984E+00
          2   -1    0    0  501    0  0.00000000000E+00  0.00000000000E+00  0.12044835929E+04  0.12044835929E+04  0.00000000000E+00 0. -1.
         -2   -1    0    0    0  501 -0.00000000000E+00 -0.00000000000E+00 -0.25706077690E+02  0.25706077690E+02  0.00000000000E+00 0.  1.
         23    2    1    2    0    0  0.12445144257E+03 -0.31432815288E+02  0.35810692099E+03  0.39018975149E+03  0.86783016028E+02 0.  0.
          5    1    1    2  502    0 -0.11879473976E+03 -0.18388125249E+02  0.44521863764E+03  0.46118547099E+03  0.47000000000E+01 0.  1.
         -5    1    1    2    0  502 -0.56567028164E+01  0.49820940537E+02  0.37545195660E+03  0.37881444813E+03  0.47000000000E+01 0.  1.
        -11    1    3    3    0    0  0.25478047682E+02  0.44105622411E+01  0.12143082220E+02  0.28566386169E+02  0.00000000000E+00 0. -1.
         11    1    3    3    0    0  0.98973394892E+02 -0.35843377529E+02  0.34596383877E+03  0.36162336532E+03  0.00000000000E+00 0.  1.
<mgrwt>
<rscale>  0 0.17277499E+03</rscale>
<asrwt>0</asrwt>
<pdfrwt beam="1">  1        2 0.18530512E+00 0.17916372E+03</pdfrwt>
<pdfrwt beam="2">  1       -2 0.39547821E-02 0.17916372E+03</pdfrwt>
<totfact> 0.54866557E+03</totfact>
</mgrwt>
</event>
<event>
 7    1  0.1422977E-005  0.1303741E+03  0.7546771E-02  0.1235906E+00
         -4   -1    0    0    0  501 -0.00000000000E+00  0.00000000000E+00  0.10607559328E+03  0.10607559328E+03  0.00000000000E+00 0.  1.
          4   -1    0    0  501    0  0.00000000000E+00 -0.00000000000E+00 -0.16321562904E+03  0.16321562904E+03  0.00000000000E+00 0. -1.
         23    2    1    2    0    0  0.29737427824E+02 -0.22336792258E+02  0.30119920762E+02  0.11241007114E+03  0.10171316318E+03 0.  0.
          5    1    1    2  502    0  0.14987599304E+02 -0.44905999012E+02 -0.45559093758E+02  0.65870311250E+02  0.47000000000E+01 0.  1.
         -5    1    1    2    0  502 -0.44725027128E+02  0.67242791270E+02 -0.41700862770E+02  0.91010839932E+02  0.47000000000E+01 0.  1.
        -11    1    3    3    0    0  0.51191548853E+02 -0.34660914189E+02 -0.12552680309E+02  0.63083463993E+02  0.00000000000E+00 0. -1.
         11    1    3    3    0    0 -0.21454121028E+02  0.12324121931E+02  0.42672601072E+02  0.49326607148E+02  0.00000000000E+00 0.  1.
<mgrwt>
<rscale>  0 0.12446584E+03</rscale>
<asrwt>0</asrwt>
<pdfrwt beam="2">  1        4 0.25110097E-01 0.13037406E+03</pdfrwt>
<pdfrwt beam="1">  1       -4 0.16319322E-01 0.13037406E+03</pdfrwt>
<totfact> 0.79145346E+02</totfact>
</mgrwt>
</event>
<event>
 7    1  0.1422977E-005  0.2712319E+03  0.7546771E-02  0.1142864E+00
          1   -1    0    0  501    0  0.00000000000E+00  0.00000000000E+00  0.12707919402E+04  0.12707919402E+04  0.00000000000E+00 0. -1.
         -1   -1    0    0    0  501 -0.00000000000E+00 -0.00000000000E+00 -0.56925088878E+02  0.56925088878E+02  0.00000000000E+00 0.  1.
         23    2    1    2    0    0  0.27950969561E+02 -0.73760777870E+01  0.11539750754E+02  0.95176081961E+02  0.89942523353E+02 0.  0.
          5    1    1    2  502    0 -0.33636754166E+01  0.46388664999E+02  0.11802912318E+04  0.11812166204E+04  0.47000000000E+01 0. -1.
         -5    1    1    2    0  502 -0.24587294144E+02 -0.39012587212E+02  0.22035868741E+02  0.51324326644E+02  0.47000000000E+01 0.  1.
        -11    1    3    3    0    0 -0.31737402672E+02  0.33840480066E+00  0.14551466855E+02  0.34915933810E+02  0.00000000000E+00 0. -1.
         11    1    3    3    0    0  0.59688372233E+02 -0.77144825877E+01 -0.30117161002E+01  0.60260148152E+02  0.00000000000E+00 0.  1.
<mgrwt>
<rscale>  0 0.20836920E+03</rscale>
<asrwt>0</asrwt>
<pdfrwt beam="1">  1        1 0.19550643E+00 0.27123187E+03</pdfrwt>
<pdfrwt beam="2">  1       -1 0.87577070E-02 0.27123187E+03</pdfrwt>
<totfact> 0.76681506E+02</totfact>
</mgrwt>
</event>
<event>
 7    1  0.1422977E-005  0.1412520E+03  0.7546771E-02  0.1221473E+00
          3   -1    0    0  501    0  0.00000000000E+00  0.00000000000E+00  0.51775580822E+02  0.51775580822E+02  0.00000000000E+00 0. -1.
         -3   -1    0    0    0  501 -0.00000000000E+00 -0.00000000000E+00 -0.32329132888E+03  0.32329132888E+03  0.00000000000E+00 0.  1.
         23    2    1    2    0    0  0.28028000965E+02 -0.59509474148E+02 -0.14892174009E+03  0.18803370396E+03  0.94085295357E+02 0.  0.
          5    1    1    2  502    0  0.29731300321E+02  0.69756693804E+02 -0.40704187546E+02  0.86190877899E+02  0.47000000000E+01 0. -1.
         -5    1    1    2    0  502 -0.57759301287E+02 -0.10247219656E+02 -0.81889820419E+02  0.10084232784E+03  0.47000000000E+01 0. -1.
        -11    1    3    3    0    0 -0.49336733968E+01 -0.60608007309E+02 -0.14180726828E+03  0.15429508424E+03  0.00000000000E+00 0.  1.
         11    1    3    3    0    0  0.32961674362E+02  0.10985331604E+01 -0.71144718143E+01  0.33738619727E+02  0.00000000000E+00 0. -1.
<mgrwt>
<rscale>  0 0.13411620E+03</rscale>
<asrwt>0</asrwt>
<pdfrwt beam="1">  1        3 0.79654738E-02 0.14125201E+03</pdfrwt>
<pdfrwt beam="2">  1       -3 0.49737129E-01 0.14125201E+03</pdfrwt>
<totfact> 0.10067230E+03</totfact>
</mgrwt>
</event>
<event>
 7    1  0.1422977E-005  0.1285543E+03  0.7546771E-02  0.1244653E+00
          1   -1    0    0  501    0  0.00000000000E+00  0.00000000000E+00  0.27377461196E+03  0.27377461196E+03  0.00000000000E+00 0. -1.
         -1   -1    0    0    0  501 -0.00000000000E+00 -0.00000000000E+00 -0.45467590345E+02  0.45467590345E+02  0.00000000000E+00 0.  1.
         23    2    1    2    0    0 -0.24038206975E+01  0.29788391683E+02  0.96555968574E+02  0.13516467041E+03  0.89740216325E+02 0.  0.
          5    1    1    2  502    0  0.29159162326E+02 -0.18751389451E+02  0.14694560058E+03  0.15105287447E+03  0.47000000000E+01 0.  1.
         -5    1    1    2    0  502 -0.26755341628E+02 -0.11037002232E+02 -0.15194547537E+02  0.33024657436E+02  0.47000000000E+01 0.  1.
        -11    1    3    3    0    0 -0.22970374429E+02  0.41786706562E+02  0.10030344804E+03  0.11106101312E+03  0.00000000000E+00 0. -1.
         11    1    3    3    0    0  0.20566553732E+02 -0.11998314879E+02 -0.37474794647E+01  0.24103657288E+02  0.00000000000E+00 0.  1.
<mgrwt>
<rscale>  0 0.11906143E+03</rscale>
<asrwt>0</asrwt>
<pdfrwt beam="1">  1        1 0.42119170E-01 0.12855426E+03</pdfrwt>
<pdfrwt beam="2">  1       -1 0.69950141E-02 0.12855426E+03</pdfrwt>
<totfact> 0.97993798E+03</totfact>
</mgrwt>
</event>
<event>
 7    1  0.1422977E-005  0.2017517E+03  0.7546771E-02  0.1152434E+00
         -2   -1    0    0    0  501 -0.00000000000E+00  0.00000000000E+00  0.14643762113E+03  0.14643762113E+03  0.00000000000E+00 0.  1.
          2   -1    0    0  501    0  0.00000000000E+00 -0.00000000000E+00 -0.29074430697E+03  0.29074430697E+03  0.00000000000E+00 0. -1.
         23    2    1    2    0    0 -0.12400284921E+03  0.98499328577E+02  0.10158854281E+02  0.18308872160E+03  0.91320607274E+02 0.  0.
          5    1    1    2  502    0 -0.53863759382E+01 -0.34456136153E+02 -0.88609155893E+02  0.95341024079E+02  0.47000000000E+01 0.  1.
         -5    1    1    2    0  502  0.12938922515E+03 -0.64043192423E+02 -0.65856384221E+02  0.15875218242E+03  0.47000000000E+01 0.  1.
        -11    1    3    3    0    0 -0.13159993051E+03  0.62630654943E+02  0.32534581642E+01  0.14577971614E+03  0.00000000000E+00 0. -1.
         11    1    3    3    0    0  0.75970812969E+01  0.35868673633E+02  0.69053961166E+01  0.37309005454E+02  0.00000000000E+00 0.  1.
<mgrwt>
<rscale>  0 0.19683890E+03</rscale>
<asrwt>0</asrwt>
<pdfrwt beam="2">  1        2 0.44729893E-01 0.20175172E+03</pdfrwt>
<pdfrwt beam="1">  1       -2 0.22528865E-01 0.20175172E+03</pdfrwt>
<totfact> 0.19135709E+03</totfact>
</mgrwt>
</event>
<event>
 7    1  0.1422977E-005  0.1530791E+03  0.7546771E-02  0.1204844E+00
         -2   -1    0    0    0  501 -0.00000000000E+00  0.00000000000E+00  0.34890331286E+02  0.34890331286E+02  0.00000000000E+00 0.  1.
          2   -1    0    0  501    0  0.00000000000E+00 -0.00000000000E+00 -0.57143024170E+03  0.57143024170E+03  0.00000000000E+00 0. -1.
         23    2    1    2    0    0 -0.85611756144E+02 -0.21879484472E+02 -0.22056087557E+03  0.25521380589E+03  0.93160626097E+02 0.  0.
          5    1    1    2  502    0  0.54617482640E+02 -0.45337034644E+02 -0.21024387558E+03  0.22195290793E+03  0.47000000000E+01 0.  1.
         -5    1    1    2    0  502  0.30994273504E+02  0.67216519116E+02 -0.10573515926E+03  0.12915385916E+03  0.47000000000E+01 0.  1.
        -11    1    3    3    0    0 -0.10172126589E+03 -0.32511876970E+02 -0.20170425608E+03  0.22822980743E+03  0.00000000000E+00 0. -1.
         11    1    3    3    0    0  0.16109509745E+02  0.10632392498E+02 -0.18856619492E+02  0.26983998465E+02  0.00000000000E+00 0.  1.
<mgrwt>
<rscale>  0 0.14649729E+03</rscale>
<asrwt>0</asrwt>
<pdfrwt beam="2">  1        2 0.87912340E-01 0.15307910E+03</pdfrwt>
<pdfrwt beam="1">  1       -2 0.53677436E-02 0.15307910E+03</pdfrwt>
<totfact> 0.90381523E+03</totfact>
</mgrwt>
</event>
<event>
 7    1  0.1422977E-005  0.1977108E+03  0.7546771E-02  0.1157075E+00
         -1   -1    0    0    0  501 -0.00000000000E+00  0.00000000000E+00  0.12971439424E+03  0.12971439424E+03  0.00000000000E+00 0.  1.
          1   -1    0    0  501    0  0.00000000000E+00 -0.00000000000E+00 -0.33598511360E+03  0.33598511360E+03  0.00000000000E+00 0. -1.
         23    2    1    2    0    0 -0.92675489134E+02 -0.12196373442E+03  0.77271391244E+01  0.17434981666E+03  0.82911103539E+02 0.  0.
          5    1    1    2  502    0  0.64630578904E+01  0.10526745729E+03 -0.86588004144E+02  0.13653783777E+03  0.47000000000E+01 0. -1.
         -5    1    1    2    0  502  0.86212431244E+02  0.16696277125E+02 -0.12740985434E+03  0.15481185340E+03  0.47000000000E+01 0. -1.
        -11    1    3    3    0    0 -0.16576731497E+02 -0.29331627798E+02 -0.33562911862E+02  0.47556297891E+02  0.00000000000E+00 0. -1.
         11    1    3    3    0    0 -0.76098757637E+02 -0.92632106621E+02  0.41290050987E+02  0.12679351877E+03  0.00000000000E+00 0.  1.
<mgrwt>
<rscale>  0 0.19154527E+03</rscale>
<asrwt>0</asrwt>
<pdfrwt beam="2">  1        1 0.51690017E-01 0.19771080E+03</pdfrwt>
<pdfrwt beam="1">  1       -1 0.19956061E-01 0.19771080E+03</pdfrwt>
<totfact> 0.15247005E+03</totfact>
</mgrwt>
</event>
<event>
 7    1  0.1422977E-005  0.1517715E+03  0.7546771E-02  0.1207822E+00
          1   -1    0    0  501    0  0.00000000000E+00  0.00000000000E+00  0.25265802803E+03  0.25265802803E+03  0.00000000000E+00 0. -1.
         -1   -1    0    0    0  501 -0.00000000000E+00 -0.00000000000E+00 -0.76183523999E+02  0.76183523999E+02  0.00000000000E+00 0.  1.
         23    2    1    2    0    0 -0.11007863844E+02 -0.85343350292E+02  0.99536408898E+02  0.15868261641E+03  0.88701835101E+02 0.  0.
          5    1    1    2  502    0  0.60072105884E+01 -0.97489913318E+01  0.73733656394E+02  0.74765443196E+02  0.47000000000E+01 0.  1.
         -5    1    1    2    0  502  0.50006532557E+01  0.95092341624E+02  0.32044387414E+01  0.95393492420E+02  0.47000000000E+01 0.  1.
        -11    1    3    3    0    0 -0.38643857663E+02 -0.61073712474E+02  0.98134645461E+02  0.12187598094E+03  0.00000000000E+00 0. -1.
         11    1    3    3    0    0  0.27635993819E+02 -0.24269637818E+02  0.14017634370E+01  0.36806635474E+02  0.00000000000E+00 0.  1.
<mgrwt>
<rscale>  0 0.14417239E+03</rscale>
<asrwt>0</asrwt>
<pdfrwt beam="1">  1        1 0.38870465E-01 0.15177152E+03</pdfrwt>
<pdfrwt beam="2">  1       -1 0.11720542E-01 0.15177152E+03</pdfrwt>
<totfact> 0.49937875E+03</totfact>
</mgrwt>
</event>
<event>
 7    1  0.1422977E-005  0.1405220E+03  0.7546771E-02  0.1223270E+00
         -2   -1    0    0    0  501 -0.00000000000E+00  0.00000000000E+00  0.36739147159E+02  0.36739147159E+02  0.00000000000E+00 0.  1.
          2   -1    0    0  501    0  0.00000000000E+00 -0.00000000000E+00 -0.50665728070E+03  0.50665728070E+03  0.00000000000E+00 0. -1.
         23    2    1    2    0    0  0.62589268506E+02 -0.14263837384E+02 -0.11076688420E+03  0.15773328097E+03  0.92139088886E+02 0.  0.
          5    1    1    2  502    0 -0.17871580307E+02  0.41437202449E+02 -0.31133657110E+03  0.31462515099E+03  0.47000000000E+01 0. -1.
         -5    1    1    2    0  502 -0.44717688199E+02 -0.27173365065E+02 -0.47814678248E+02  0.71037995909E+02  0.47000000000E+01 0. -1.
        -11    1    3    3    0    0  0.39911804029E+02  0.28083022019E+02 -0.15778083881E+02  0.51288947713E+02  0.00000000000E+00 0.  1.
         11    1    3    3    0    0  0.22677464477E+02 -0.42346859402E+02 -0.94988800316E+02  0.10644433325E+03  0.00000000000E+00 0. -1.
<mgrwt>
<rscale>  0 0.13286170E+03</rscale>
<asrwt>0</asrwt>
<pdfrwt beam="2">  1        2 0.77947266E-01 0.14052204E+03</pdfrwt>
<pdfrwt beam="1">  1       -2 0.56521771E-02 0.14052204E+03</pdfrwt>
<totfact> 0.95078622E+03</totfact>
</mgrwt>
</event>
<event>
 7    1  0.1422977E-005  0.1427295E+03  0.7546771E-02  0.1220281E+00
          2   -1    0    0  501    0  0.00000000000E+00  0.00000000000E+00  0.42484000167E+03  0.42484000167E+03  0.00000000000E+00 0.  1.
         -2   -1    0    0    0  501 -0.00000000000E+00 -0.00000000000E+00 -0.38834501807E+02  0.38834501807E+02  0.00000000000E+00 0. -1.
         23    2    1    2    0    0  0.43358832076E+00  0.68892787897E+02  0.17712158815E+03  0.21068400150E+03  0.90935621604E+02 0.  0.
          5    1    1    2  502    0 -0.13123400137E+01  0.36290229514E+02  0.42601610569E+02  0.56175530417E+02  0.47000000000E+01 0.  1.
         -5    1    1    2    0  502  0.87875169290E+00 -0.10518301741E+03  0.16628230114E+03  0.19681497155E+03  0.47000000000E+01 0.  1.
        -11    1    3    3    0    0  0.26213446085E+02  0.75723135308E+02  0.94690767798E+02  0.12404627960E+03  0.00000000000E+00 0. -1.
         11    1    3    3    0    0 -0.25779857765E+02 -0.68303474105E+01  0.82430820355E+02  0.86637721903E+02  0.00000000000E+00 0.  1.
<mgrwt>
<rscale>  0 0.13495646E+03</rscale>
<asrwt>0</asrwt>
<pdfrwt beam="1">  1        2 0.65359997E-01 0.14272948E+03</pdfrwt>
<pdfrwt beam="2">  1       -2 0.59745390E-02 0.14272948E+03</pdfrwt>
<totfact> 0.10599605E+04</totfact>
</mgrwt>
</event>
<event>
 6    1  0.1422977E-005  0.4846284E+03  0.7546771E-02  0.1017871E+00
          1   -1    0    0  501    0  0.00000000000E+00  0.00000000000E+00  0.30892117021E+03  0.30892117021E+03  0.00000000000E+00 0. -1.
         -1   -1    0    0    0  501 -0.00000000000E+00 -0.00000000000E+00 -0.19006848247E+03  0.19006848247E+03  0.00000000000E+00 0.  1.
          5    1    1    2  502    0  0.40711942874E+02 -0.28369954575E+02  0.43157379739E+02  0.65931525396E+02  0.47000000000E+01 0. -1.
         -5    1    1    2    0  502 -0.82702415222E+02 -0.25214000310E+02  0.74927831726E+02  0.11450635468E+03  0.47000000000E+01 0.  1.
        -11    1    1    2    0    0  0.83952219001E+01  0.94600926502E+02  0.14022253193E+03  0.16935812206E+03  0.00000000000E+00 0. -1.
         11    1    1    2    0    0  0.33595250448E+02 -0.41016971616E+02 -0.13945505565E+03  0.14919365054E+03  0.00000000000E+00 0.  1.
<mgrwt>
<rscale>  0 0.48462843E+03</rscale>
<asrwt>0</asrwt>
<pdfrwt beam="1">  1        1 0.47526334E-01 0.48462843E+03</pdfrwt>
<pdfrwt beam="2">  1       -1 0.29241305E-01 0.48462843E+03</pdfrwt>
<totfact> 0.90381059E+02</totfact>
</mgrwt>
</event>
<event>
 7    1  0.1422977E-005  0.1347475E+03  0.7546771E-02  0.1242965E+00
          2   -1    0    0  501    0  0.00000000000E+00  0.00000000000E+00  0.81029035279E+02  0.81029035279E+02  0.00000000000E+00 0. -1.
         -2   -1    0    0    0  501 -0.00000000000E+00 -0.00000000000E+00 -0.14898193345E+03  0.14898193345E+03  0.00000000000E+00 0.  1.
         23    2    1    2    0    0 -0.28113880294E+02  0.41742169913E+02 -0.24960782341E+02  0.88571150109E+02  0.68476338704E+02 0.  0.
          5    1    1    2  502    0  0.89823725457E+01 -0.46010357224E+02  0.36394585789E+02  0.59533955548E+02  0.47000000000E+01 0.  1.
         -5    1    1    2    0  502  0.19131507748E+02  0.42681873101E+01 -0.79386701616E+02  0.81905863069E+02  0.47000000000E+01 0.  1.
        -11    1    3    3    0    0 -0.47066569373E+02  0.44163213407E+02 -0.12446591875E+02  0.65731035442E+02  0.00000000000E+00 0. -1.
         11    1    3    3    0    0  0.18952689080E+02 -0.24210434935E+01 -0.12514190467E+02  0.22840114667E+02  0.00000000000E+00 0.  1.
<mgrwt>
<rscale>  0 0.12008019E+03</rscale>
<asrwt>0</asrwt>
<pdfrwt beam="1">  1        2 0.12466005E-01 0.13474754E+03</pdfrwt>
<pdfrwt beam="2">  1       -2 0.22920297E-01 0.13474754E+03</pdfrwt>
<totfact> 0.76260804E+03</totfact>
</mgrwt>
</event>
<event>
 7    1  0.1422977E-005  0.1480138E+03  0.7546771E-02  0.1212549E+00
          1   -1    0    0  501    0  0.00000000000E+00  0.00000000000E+00  0.21805049029E+02  0.21805049029E+02  0.00000000000E+00 0. -1.
         -1   -1    0    0    0  501 -0.00000000000E+00 -0.00000000000E+00 -0.82933056289E+03  0.82933056289E+03  0.00000000000E+00 0.  1.
         23    2    1    2    0    0 -0.79001213470E+02  0.59614942111E+01 -0.38795019485E+03  0.40621818000E+03  0.90725547314E+02 0.  0.
          5    1    1    2  502    0 -0.91570684960E+01 -0.42009698661E+02 -0.67597755345E+02  0.80250939015E+02  0.47000000000E+01 0. -1.
         -5    1    1    2    0  502  0.88158281966E+02  0.36048204450E+02 -0.35197756367E+03  0.36466649291E+03  0.47000000000E+01 0. -1.
        -11    1    3    3    0    0 -0.42559589295E+02 -0.35721646896E+02 -0.27340083421E+03  0.27898991172E+03  0.00000000000E+00 0.  1.
         11    1    3    3    0    0 -0.36441624175E+02  0.41683141107E+02 -0.11454936064E+03  0.12722826828E+03  0.00000000000E+00 0. -1.
<mgrwt>
<rscale>  0 0.14058111E+03</rscale>
<asrwt>0</asrwt>
<pdfrwt beam="1">  1        1 0.33546225E-02 0.14801376E+03</pdfrwt>
<pdfrwt beam="2">  1       -1 0.12758933E+00 0.14801376E+03</pdfrwt>
<totfact> 0.16224682E+03</totfact>
</mgrwt>
</event>
<event>
 7    1  0.1422977E-005  0.2073305E+03  0.7546771E-02  0.1147647E+00
         -3   -1    0    0    0  501 -0.00000000000E+00  0.00000000000E+00  0.23111723077E+03  0.23111723077E+03  0.00000000000E+00 0.  1.
          3   -1    0    0  501    0  0.00000000000E+00 -0.00000000000E+00 -0.17167315572E+03  0.17167315572E+03  0.00000000000E+00 0. -1.
         23    2    1    2    0    0 -0.15666111619E+03 -0.53075077294E+02  0.63881311373E+01  0.18877898559E+03  0.90758074176E+02 0.  0.
          5    1    1    2  502    0  0.35664707752E+01  0.26857296091E+02  0.51760904603E+02  0.58611562958E+02  0.47000000000E+01 0. -1.
         -5    1    1    2    0  502  0.15309464541E+03  0.26217781203E+02  0.12950393011E+01  0.15539983794E+03  0.47000000000E+01 0. -1.
        -11    1    3    3    0    0 -0.72269059728E+02 -0.54107543564E+01  0.44036478262E+02  0.84801560566E+02  0.00000000000E+00 0. -1.
         11    1    3    3    0    0 -0.84392056457E+02 -0.47664322938E+02 -0.37648347125E+02  0.10397742503E+03  0.00000000000E+00 0.  1.
<mgrwt>
<rscale>  0 0.20249936E+03</rscale>
<asrwt>0</asrwt>
<pdfrwt beam="2">  1        3 0.26411255E-01 0.20733052E+03</pdfrwt>
<pdfrwt beam="1">  1       -3 0.35556497E-01 0.20733052E+03</pdfrwt>
<totfact> 0.25952449E+02</totfact>
</mgrwt>
</event>
<event>
 7    1  0.1422977E-005  0.1347724E+03  0.7546771E-02  0.1231869E+00
         -2   -1    0    0    0  501 -0.00000000000E+00  0.00000000000E+00  0.21576774759E+02  0.21576774759E+02  0.00000000000E+00 0.  1.
          2   -1    0    0  501    0  0.00000000000E+00 -0.00000000000E+00 -0.12573561757E+04  0.12573561757E+04  0.00000000000E+00 0. -1.
         23    2    1    2    0    0  0.37898746847E+02  0.35910535552E+02 -0.14528453286E+03  0.18014149327E+03  0.92830385826E+02 0.  0.
          5    1    1    2  502    0 -0.23051487361E+02 -0.52101997934E+02 -0.10564914451E+04  0.10580369809E+04  0.47000000000E+01 0. -1.
         -5    1    1    2    0  502 -0.14847259486E+02  0.16191462382E+02 -0.34003422987E+02  0.40754476357E+02  0.47000000000E+01 0.  1.
        -11    1    3    3    0    0  0.36995407771E+02  0.65396386332E+02 -0.11840535374E+03  0.14023257587E+03  0.00000000000E+00 0.  1.
         11    1    3    3    0    0  0.90333907546E+00 -0.29485850780E+02 -0.26879179127E+02  0.39908917402E+02  0.00000000000E+00 0. -1.
<mgrwt>
<rscale>  0 0.12707015E+03</rscale>
<asrwt>0</asrwt>
<pdfrwt beam="2">  1        2 0.19343935E+00 0.13477243E+03</pdfrwt>
<pdfrwt beam="1">  1       -2 0.33195048E-02 0.13477243E+03</pdfrwt>
<totfact> 0.65905024E+03</totfact>
</mgrwt>
</event>
<event>
 7    1  0.1422977E-005  0.1347416E+03  0.7546771E-02  0.1231850E+00
         -1   -1    0    0    0  501 -0.00000000000E+00  0.00000000000E+00  0.30316643391E+02  0.30316643391E+02  0.00000000000E+00 0.  1.
          1   -1    0    0  501    0  0.00000000000E+00 -0.00000000000E+00 -0.51044920155E+03  0.51044920155E+03  0.00000000000E+00 0. -1.
         23    2    1    2    0    0 -0.25924938608E+02  0.43277174743E+02 -0.14855490111E+03  0.18285657823E+03  0.93930576822E+02 0.  0.
          5    1    1    2  502    0  0.60971492199E+02 -0.57190836040E+02 -0.28879651960E+03  0.30068893282E+03  0.47000000000E+01 0.  1.
         -5    1    1    2    0  502 -0.35046553591E+02  0.13913661297E+02 -0.42781137447E+02  0.57220333891E+02  0.47000000000E+01 0.  1.
        -11    1    3    3    0    0 -0.41401249449E+02 -0.15479601950E+02 -0.47047465727E+02  0.64553431852E+02  0.00000000000E+00 0.  1.
         11    1    3    3    0    0  0.15476310841E+02  0.58756776693E+02 -0.10150743539E+03  0.11830314638E+03  0.00000000000E+00 0. -1.
<mgrwt>
<rscale>  0 0.12708276E+03</rscale>
<asrwt>0</asrwt>
<pdfrwt beam="2">  1        1 0.78530637E-01 0.13474161E+03</pdfrwt>
<pdfrwt beam="1">  1       -1 0.46640995E-02 0.13474161E+03</pdfrwt>
<totfact> 0.81991804E+03</totfact>
</mgrwt>
</event>
<event>
 7    1  0.1422977E-005  0.2277818E+03  0.7546771E-02  0.1131196E+00
          2   -1    0    0  501    0  0.00000000000E+00  0.00000000000E+00  0.23341194508E+03  0.23341194508E+03  0.00000000000E+00 0. -1.
         -2   -1    0    0    0  501 -0.00000000000E+00 -0.00000000000E+00 -0.20913160582E+03  0.20913160582E+03  0.00000000000E+00 0.  1.
         23    2    1    2    0    0  0.19038983929E+03  0.12933252779E+01 -0.11431295736E+02  0.21197929047E+03  0.92490980474E+02 0.  0.
          5    1    1    2  502    0 -0.10680213394E+03  0.45906576119E+02 -0.22075108521E+02  0.11842090171E+03  0.47000000000E+01 0. -1.
         -5    1    1    2    0  502 -0.83587705350E+02 -0.47199901397E+02  0.57786743525E+02  0.11214335872E+03  0.47000000000E+01 0. -1.
        -11    1    3    3    0    0  0.39473393200E+02  0.27928894465E+02  0.25035506730E+02  0.54451340792E+02  0.00000000000E+00 0. -1.
         11    1    3    3    0    0  0.15091644609E+03 -0.26635569187E+02 -0.36466802466E+02  0.15752794968E+03  0.00000000000E+00 0.  1.
<mgrwt>
<rscale>  0 0.22364261E+03</rscale>
<asrwt>0</asrwt>
<pdfrwt beam="1">  1        2 0.35909530E-01 0.22778182E+03</pdfrwt>
<pdfrwt beam="2">  1       -2 0.32174093E-01 0.22778182E+03</pdfrwt>
<totfact> 0.12877701E+03</totfact>
</mgrwt>
</event>
<event>
 7    1  0.1422977E-005  0.1508266E+03  0.7546771E-02  0.1207962E+00
         -2   -1    0    0    0  501 -0.00000000000E+00  0.00000000000E+00  0.22571798941E+03  0.22571798941E+03  0.00000000000E+00 0.  1.
          2   -1    0    0  501    0  0.00000000000E+00 -0.00000000000E+00 -0.10098511244E+03  0.10098511244E+03  0.00000000000E+00 0. -1.
         23    2    1    2    0    0 -0.79332060895E+02  0.28815647711E+02  0.12315996100E+03  0.17586827242E+03  0.92937375758E+02 0.  0.
          5    1    1    2  502    0 -0.93131118776E+01 -0.27570002863E+02 -0.42497196501E+02  0.51719830057E+02  0.47000000000E+01 0.  1.
         -5    1    1    2    0  502  0.88645172773E+02 -0.12456448473E+01  0.44070112471E+02  0.99114999370E+02  0.47000000000E+01 0.  1.
        -11    1    3    3    0    0 -0.54901990809E+02 -0.12640391444E+02  0.11360856531E+03  0.12681054453E+03  0.00000000000E+00 0.  1.
         11    1    3    3    0    0 -0.24430070086E+02  0.41456039154E+02  0.95513956862E+01  0.49057727896E+02  0.00000000000E+00 0. -1.
<mgrwt>
<rscale>  0 0.14406465E+03</rscale>
<asrwt>0</asrwt>
<pdfrwt beam="2">  1        2 0.15536171E-01 0.15082663E+03</pdfrwt>
<pdfrwt beam="1">  1       -2 0.34725844E-01 0.15082663E+03</pdfrwt>
<totfact> 0.28223131E+03</totfact>
</mgrwt>
</event>
<event>
 7    1  0.1422977E-005  0.1379189E+03  0.7546771E-02  0.1227725E+00
          1   -1    0    0  501    0  0.00000000000E+00  0.00000000000E+00  0.18103460512E+03  0.18103460512E+03  0.00000000000E+00 0. -1.
         -1   -1    0    0    0  501 -0.00000000000E+00 -0.00000000000E+00 -0.83693068950E+02  0.83693068950E+02  0.00000000000E+00 0.  1.
         23    2    1    2    0    0  0.57910912424E+02 -0.60211543933E+01  0.42636739841E+02  0.11635569555E+03  0.91273370847E+02 0.  0.
          5    1    1    2  502    0 -0.57675173825E-01  0.15767675202E+01  0.83346436610E+02  0.83493760352E+02  0.47000000000E+01 0. -1.
         -5    1    1    2    0  502 -0.57853237250E+02  0.44443868730E+01 -0.28641640276E+02  0.64878218168E+02  0.47000000000E+01 0. -1.
        -11    1    3    3    0    0  0.52511832118E+02  0.30731933809E+02  0.14075567764E+01  0.60859884030E+02  0.00000000000E+00 0.  1.
         11    1    3    3    0    0  0.53990803053E+01 -0.36753088202E+02  0.41229183065E+02  0.55495811524E+02  0.00000000000E+00 0. -1.
<mgrwt>
<rscale>  0 0.12981873E+03</rscale>
<asrwt>0</asrwt>
<pdfrwt beam="1">  1        1 0.27851478E-01 0.13791892E+03</pdfrwt>
<pdfrwt beam="2">  1       -1 0.12875857E-01 0.13791892E+03</pdfrwt>
<totfact> 0.64962962E+03</totfact>
</mgrwt>
</event>
<event>
 7    1  0.1422977E-005  0.1854776E+03  0.7546771E-02  0.1167599E+00
          2   -1    0    0  501    0  0.00000000000E+00  0.00000000000E+00  0.18482504995E+03  0.18482504995E+03  0.00000000000E+00 0. -1.
         -2   -1    0    0    0  501 -0.00000000000E+00 -0.00000000000E+00 -0.20632058629E+03  0.20632058629E+03  0.00000000000E+00 0.  1.
         23    2    1    2    0    0 -0.62686336502E+02 -0.12185297285E+03 -0.96131390119E+02  0.19121453342E+03  0.92433921515E+02 0.  0.
          5    1    1    2  502    0 -0.30101330847E+01 -0.24324595901E+02  0.13200829569E+02  0.28232937648E+02  0.47000000000E+01 0.  1.
         -5    1    1    2    0  502  0.65696469587E+02  0.14617756875E+03  0.61435024212E+02  0.17169816517E+03  0.47000000000E+01 0.  1.
        -11    1    3    3    0    0 -0.38576597339E+02 -0.34039862958E+02  0.88911986335E+01  0.52210339451E+02  0.00000000000E+00 0. -1.
         11    1    3    3    0    0 -0.24109739163E+02 -0.87813109896E+02 -0.10502258875E+03  0.13900419397E+03  0.00000000000E+00 0.  1.
<mgrwt>
<rscale>  0 0.18021135E+03</rscale>
<asrwt>0</asrwt>
<pdfrwt beam="1">  1        2 0.28434623E-01 0.18547759E+03</pdfrwt>
<pdfrwt beam="2">  1       -2 0.31741629E-01 0.18547759E+03</pdfrwt>
<totfact> 0.16938380E+03</totfact>
</mgrwt>
</event>
<event>
 7    1  0.1422977E-005  0.4624149E+03  0.7546771E-02  0.1075103E+00
          2   -1    0    0  501    0  0.00000000000E+00  0.00000000000E+00  0.19178298656E+04  0.19178298656E+04  0.00000000000E+00 0. -1.
         -2   -1    0    0    0  501 -0.00000000000E+00 -0.00000000000E+00 -0.43092801667E+02  0.43092801667E+02  0.00000000000E+00 0.  1.
         23    2    1    2    0    0 -0.31906056729E+02 -0.21555167972E+02  0.26328470930E+03  0.28443638870E+03  0.10051168760E+03 0.  0.
          5    1    1    2  502    0 -0.24744666351E+02 -0.40199038950E+02  0.15888552933E+04  0.15895633031E+04  0.47000000000E+01 0. -1.
         -5    1    1    2    0  502  0.56650723081E+02  0.61754206921E+02  0.22597061339E+02  0.86922975554E+02  0.47000000000E+01 0.  1.
        -11    1    3    3    0    0  0.35659278494E+01  0.98732921848E+01 -0.52602215978E+01  0.11741706488E+02  0.00000000000E+00 0.  1.
         11    1    3    3    0    0 -0.35471984579E+02 -0.31428460156E+02  0.26854493089E+03  0.27269468221E+03  0.00000000000E+00 0. -1.
<mgrwt>
<rscale>  0 0.32118992E+03</rscale>
<asrwt>0</asrwt>
<pdfrwt beam="1">  1        2 0.29505068E+00 0.46241491E+03</pdfrwt>
<pdfrwt beam="2">  1       -2 0.66296633E-02 0.46241491E+03</pdfrwt>
<totfact> 0.10235046E+03</totfact>
</mgrwt>
</event>
<event>
 7    1  0.1422977E-005  0.1554822E+03  0.7546771E-02  0.1202109E+00
          1   -1    0    0  501    0  0.00000000000E+00  0.00000000000E+00  0.20666972446E+03  0.20666972446E+03  0.00000000000E+00 0. -1.
         -1   -1    0    0    0  501 -0.00000000000E+00 -0.00000000000E+00 -0.99331920050E+02  0.99331920050E+02  0.00000000000E+00 0.  1.
         23    2    1    2    0    0  0.17358717135E+02  0.90812206831E+02  0.35687319959E+02  0.13480435304E+03  0.91380779283E+02 0.  0.
          5    1    1    2  502    0  0.14634066966E+02  0.25013252397E+02 -0.32290642358E+01  0.29535327445E+02  0.47000000000E+01 0. -1.
         -5    1    1    2    0  502 -0.31992784101E+02 -0.11582545923E+03  0.74879548685E+02  0.14166196402E+03  0.47000000000E+01 0. -1.
        -11    1    3    3    0    0 -0.36710462642E+02  0.45651688935E+02  0.80613479918E+01  0.59133071132E+02  0.00000000000E+00 0. -1.
         11    1    3    3    0    0  0.54069179777E+02  0.45160517896E+02  0.27625971967E+02  0.75671281907E+02  0.00000000000E+00 0.  1.
<mgrwt>
<rscale>  0 0.14867638E+03</rscale>
<asrwt>0</asrwt>
<pdfrwt beam="1">  1        1 0.31795342E-01 0.15548222E+03</pdfrwt>
<pdfrwt beam="2">  1       -1 0.15281834E-01 0.15548222E+03</pdfrwt>
<totfact> 0.42443745E+03</totfact>
</mgrwt>
</event>
<event>
 7    1  0.1422977E-005  0.1305386E+03  0.7546771E-02  0.1240233E+00
         -4   -1    0    0    0  501 -0.00000000000E+00  0.00000000000E+00  0.29492394189E+03  0.29492394189E+03  0.00000000000E+00 0.  1.
          4   -1    0    0  501    0  0.00000000000E+00 -0.00000000000E+00 -0.59131263196E+02  0.59131263196E+02  0.00000000000E+00 0. -1.
         23    2    1    2    0    0  0.29971508728E+02  0.22740470087E+02  0.19277260139E+03  0.21661049521E+03  0.91342271011E+02 0.  0.
          5    1    1    2  502    0 -0.10148356936E+02 -0.69957109057E+02  0.48309707438E+02  0.85749076315E+02  0.47000000000E+01 0.  1.
         -5    1    1    2    0  502 -0.19823151791E+02  0.47216638970E+02 -0.52896301318E+01  0.51695633563E+02  0.47000000000E+01 0.  1.
        -11    1    3    3    0    0  0.53514925755E+02 -0.51427164640E+01  0.15513229435E+03  0.16418381029E+03  0.00000000000E+00 0.  1.
         11    1    3    3    0    0 -0.23543417027E+02  0.27883186551E+02  0.37640307037E+02  0.52426684917E+02  0.00000000000E+00 0. -1.
<mgrwt>
<rscale>  0 0.12175278E+03</rscale>
<asrwt>0</asrwt>
<pdfrwt beam="2">  1        4 0.90971176E-02 0.13053858E+03</pdfrwt>
<pdfrwt beam="1">  1       -4 0.45372913E-01 0.13053858E+03</pdfrwt>
<totfact> 0.69131656E+02</totfact>
</mgrwt>
</event>
<event>
 7    1  0.1422977E-005  0.1422862E+03  0.7546771E-02  0.1219097E+00
          3   -1    0    0  501    0  0.00000000000E+00  0.00000000000E+00  0.14860173342E+03  0.14860173342E+03  0.00000000000E+00 0. -1.
         -3   -1    0    0    0  501 -0.00000000000E+00 -0.00000000000E+00 -0.13260007009E+03  0.13260007009E+03  0.00000000000E+00 0.  1.
         23    2    1    2    0    0 -0.40023470523E+02 -0.54909089952E+02 -0.45064510696E+02  0.12636499200E+03  0.96542295013E+02 0.  0.
          5    1    1    2  502    0  0.45290988480E+02 -0.61297378439E+01 -0.22462520353E+02  0.51141980253E+02  0.47000000000E+01 0. -1.
         -5    1    1    2    0  502 -0.52675179571E+01  0.61038827796E+02  0.83528694380E+02  0.10369483125E+03  0.47000000000E+01 0. -1.
        -11    1    3    3    0    0 -0.43878761842E+02 -0.19074087664E+02  0.20101238449E+02  0.51896303801E+02  0.00000000000E+00 0. -1.
         11    1    3    3    0    0  0.38552913189E+01 -0.35835002288E+02 -0.65165749145E+02  0.74468688197E+02  0.00000000000E+00 0.  1.
<mgrwt>
<rscale>  0 0.13579832E+03</rscale>
<asrwt>0</asrwt>
<pdfrwt beam="1">  1        3 0.22861805E-01 0.14228619E+03</pdfrwt>
<pdfrwt beam="2">  1       -3 0.20400011E-01 0.14228619E+03</pdfrwt>
<totfact> 0.88984507E+02</totfact>
</mgrwt>
</event>
<event>
 7    1  0.1422977E-005  0.1502617E+03  0.7546771E-02  0.1209286E+00
         -2   -1    0    0    0  501 -0.00000000000E+00  0.00000000000E+00  0.17267469099E+03  0.17267469099E+03  0.00000000000E+00 0.  1.
          2   -1    0    0  501    0  0.00000000000E+00 -0.00000000000E+00 -0.10860256010E+03  0.10860256010E+03  0.00000000000E+00 0. -1.
         23    2    1    2    0    0  0.43770651658E+02 -0.70982077246E+02  0.34298059010E+02  0.12809408849E+03  0.90980291376E+02 0.  0.
          5    1    1    2  502    0  0.28473184869E+02  0.22374323945E+02  0.51674201251E+02  0.63274368456E+02  0.47000000000E+01 0.  1.
         -5    1    1    2    0  502 -0.72243836526E+02  0.48607753301E+02 -0.21900129375E+02  0.89908794140E+02  0.47000000000E+01 0.  1.
        -11    1    3    3    0    0  0.47215297764E+02 -0.49509143267E+02  0.62374752352E+02  0.92579961876E+02  0.00000000000E+00 0.  1.
         11    1    3    3    0    0 -0.34446461062E+01 -0.21472933979E+02 -0.28076693342E+02  0.35514126619E+02  0.00000000000E+00 0. -1.
<mgrwt>
<rscale>  0 0.14304740E+03</rscale>
<asrwt>0</asrwt>
<pdfrwt beam="2">  1        2 0.16708086E-01 0.15026172E+03</pdfrwt>
<pdfrwt beam="1">  1       -2 0.26565337E-01 0.15026172E+03</pdfrwt>
<totfact> 0.42061729E+03</totfact>
</mgrwt>
</event>
<event>
 6    1  0.1422977E-005  0.1732099E+03  0.7546771E-02  0.1227167E+00
          2   -1    0    0  501    0  0.00000000000E+00  0.00000000000E+00  0.50457205023E+03  0.50457205023E+03  0.00000000000E+00 0. -1.
         -2   -1    0    0    0  501 -0.00000000000E+00 -0.00000000000E+00 -0.30099595508E+02  0.30099595508E+02  0.00000000000E+00 0.  1.
          5    1    1    2  502    0  0.43805786225E+02 -0.92648510270E+02  0.23950231415E+03  0.26054969170E+03  0.47000000000E+01 0. -1.
         -5    1    1    2    0  502 -0.24055700558E+02  0.65780415426E+02  0.19095853705E+03  0.20345267915E+03  0.47000000000E+01 0.  1.
        -11    1    1    2    0    0 -0.14185238850E+02  0.11826943899E+02 -0.49725844784E+01  0.19126531301E+02  0.00000000000E+00 0.  1.
         11    1    1    2    0    0 -0.55648468166E+01  0.15041150945E+02  0.48984188005E+02  0.51542743586E+02  0.00000000000E+00 0. -1.
<mgrwt>
<rscale>  0 0.13019479E+03</rscale>
<asrwt>0</asrwt>
<pdfrwt beam="1">  1        2 0.77626463E-01 0.17320986E+03</pdfrwt>
<pdfrwt beam="2">  1       -2 0.46307074E-02 0.17320986E+03</pdfrwt>
<totfact> 0.13086333E+04</totfact>
</mgrwt>
</event>
<event>
 7    1  0.1422977E-005  0.1369922E+03  0.7546771E-02  0.1229263E+00
         -1   -1    0    0    0  501 -0.00000000000E+00  0.00000000000E+00  0.46679047632E+02  0.46679047632E+02  0.00000000000E+00 0.  1.
          1   -1    0    0  501    0  0.00000000000E+00 -0.00000000000E+00 -0.33425132906E+03  0.33425132906E+03  0.00000000000E+00 0. -1.
         23    2    1    2    0    0  0.52708562407E+02  0.19110356741E+02 -0.86369950539E+02  0.13751871623E+03  0.91149496278E+02 0.  0.
          5    1    1    2  502    0  0.13395098336E+02 -0.28733428469E+02 -0.73720183624E+00  0.32057324241E+02  0.47000000000E+01 0.  1.
         -5    1    1    2    0  502 -0.66103660743E+02  0.96230717275E+01 -0.20046512905E+03  0.21135433622E+03  0.47000000000E+01 0.  1.
        -11    1    3    3    0    0  0.61784868360E+02 -0.21413863069E+02 -0.55608099268E+02  0.85838127857E+02  0.00000000000E+00 0.  1.
         11    1    3    3    0    0 -0.90763059528E+01  0.40524219810E+02 -0.30761851271E+02  0.51680588373E+02  0.00000000000E+00 0. -1.
<mgrwt>
<rscale>  0 0.12878944E+03</rscale>
<asrwt>0</asrwt>
<pdfrwt beam="2">  1        1 0.51423279E-01 0.13699218E+03</pdfrwt>
<pdfrwt beam="1">  1       -1 0.71813922E-02 0.13699218E+03</pdfrwt>
<totfact> 0.73920951E+03</totfact>
</mgrwt>
</event>
<event>
 7    1  0.1422977E-005  0.1280809E+03  0.7546771E-02  0.1249342E+00
         -2   -1    0    0    0  501 -0.00000000000E+00  0.00000000000E+00  0.12708269011E+02  0.12708269011E+02  0.00000000000E+00 0.  1.
          2   -1    0    0  501    0  0.00000000000E+00 -0.00000000000E+00 -0.95997444146E+03  0.95997444146E+03  0.00000000000E+00 0. -1.
         23    2    1    2    0    0  0.91351033633E+01 -0.26417454405E+02 -0.27937766232E+03  0.29262405465E+03  0.82435593933E+02 0.  0.
          5    1    1    2  502    0 -0.67007277738E+02  0.13020029383E+02 -0.34571570706E+03  0.35242153247E+03  0.47000000000E+01 0. -1.
         -5    1    1    2    0  502  0.57872174375E+02  0.13397425021E+02 -0.32217280307E+03  0.32763712336E+03  0.47000000000E+01 0. -1.
        -11    1    3    3    0    0  0.41195944200E+02 -0.20212615396E+02 -0.96511478326E+02  0.10686496661E+03  0.00000000000E+00 0.  1.
         11    1    3    3    0    0 -0.32060840836E+02 -0.62048390085E+01 -0.18286618399E+03  0.18575908804E+03  0.00000000000E+00 0. -1.
<mgrwt>
<rscale>  0 0.11629207E+03</rscale>
<asrwt>0</asrwt>
<pdfrwt beam="2">  1        2 0.14768838E+00 0.12808089E+03</pdfrwt>
<pdfrwt beam="1">  1       -2 0.19551182E-02 0.12808089E+03</pdfrwt>
<totfact> 0.21066362E+04</totfact>
</mgrwt>
</event>
<event>
 7    1  0.1422977E-005  0.1309308E+03  0.7546771E-02  0.1241895E+00
          2   -1    0    0  501    0  0.00000000000E+00  0.00000000000E+00  0.66832356326E+03  0.66832356326E+03  0.00000000000E+00 0. -1.
         -2   -1    0    0    0  501 -0.00000000000E+00 -0.00000000000E+00 -0.28852951868E+02  0.28852951868E+02  0.00000000000E+00 0.  1.
         23    2    1    2    0    0 -0.29754329272E+01 -0.29490062869E+02  0.84230552105E+02  0.12670792675E+03  0.89897696208E+02 0.  0.
          5    1    1    2  502    0  0.23038933967E+02  0.76262039952E+02  0.34280703069E+03  0.35197363752E+03  0.47000000000E+01 0. -1.
         -5    1    1    2    0  502 -0.20063501040E+02 -0.46771977083E+02  0.21243302860E+03  0.21849495086E+03  0.47000000000E+01 0.  1.
        -11    1    3    3    0    0 -0.34041037127E+02 -0.47735523340E+02  0.51956319494E+02  0.78338569891E+02  0.00000000000E+00 0.  1.
         11    1    3    3    0    0  0.31065604200E+02  0.18245460471E+02  0.32274232611E+02  0.48369356856E+02  0.00000000000E+00 0. -1.
<mgrwt>
<rscale>  0 0.12073152E+03</rscale>
<asrwt>0</asrwt>
<pdfrwt beam="1">  1        2 0.10281900E+00 0.13093085E+03</pdfrwt>
<pdfrwt beam="2">  1       -2 0.44389162E-02 0.13093085E+03</pdfrwt>
<totfact> 0.99438568E+03</totfact>
</mgrwt>
</event>
<event>
 7    1  0.1422977E-005  0.2315356E+03  0.7546771E-02  0.1128209E+00
          2   -1    0    0  501    0  0.00000000000E+00  0.00000000000E+00  0.10584456097E+03  0.10584456097E+03  0.00000000000E+00 0. -1.
         -2   -1    0    0    0  501 -0.00000000000E+00 -0.00000000000E+00 -0.53369540744E+03  0.53369540744E+03  0.00000000000E+00 0.  1.
         23    2    1    2    0    0  0.18170683325E+02  0.19405130261E+03 -0.31374426098E+03  0.38141396387E+03  0.95158125048E+02 0.  0.
          5    1    1    2  502    0  0.13411190499E+02 -0.10778336799E+03  0.35551212228E+01  0.10877427698E+03  0.47000000000E+01 0. -1.
         -5    1    1    2    0  502 -0.31581873823E+02 -0.86267934618E+02 -0.11766170671E+03  0.14935172756E+03  0.47000000000E+01 0. -1.
        -11    1    3    3    0    0  0.50908314064E+02  0.60047720889E+02 -0.10579043466E+03  0.13186736249E+03  0.00000000000E+00 0.  1.
         11    1    3    3    0    0 -0.32737630739E+02  0.13400358172E+03 -0.20795382632E+03  0.24954660138E+03  0.00000000000E+00 0. -1.
<mgrwt>
<rscale>  0 0.22778391E+03</rscale>
<asrwt>0</asrwt>
<pdfrwt beam="1">  1        2 0.16283778E-01 0.23153557E+03</pdfrwt>
<pdfrwt beam="2">  1       -2 0.82106986E-01 0.23153557E+03</pdfrwt>
<totfact> 0.47504555E+02</totfact>
</mgrwt>
</event>
<event>
 7    1  0.1422977E-005  0.1778090E+03  0.7546771E-02  0.1175691E+00
         -2   -1    0    0    0  501 -0.00000000000E+00  0.00000000000E+00  0.25948218997E+02  0.25948218997E+02  0.00000000000E+00 0.  1.
          2   -1    0    0  501    0  0.00000000000E+00 -0.00000000000E+00 -0.11304998305E+04  0.11304998305E+04  0.00000000000E+00 0. -1.
         23    2    1    2    0    0 -0.12291222988E+03 -0.29711939442E+02 -0.38847033592E+03  0.41862121131E+03  0.91347145893E+02 0.  0.
          5    1    1    2  502    0  0.84790660961E+01 -0.15441618805E+01 -0.40102800574E+03  0.40114814020E+03  0.47000000000E+01 0.  1.
         -5    1    1    2    0  502  0.11443316379E+03  0.31256101323E+02 -0.31505326982E+03  0.33667869798E+03  0.47000000000E+01 0.  1.
        -11    1    3    3    0    0 -0.51630444087E+02 -0.56232842664E+02 -0.14987755407E+03  0.16819963307E+03  0.00000000000E+00 0.  1.
         11    1    3    3    0    0 -0.71281785797E+02  0.26520903222E+02 -0.23859278185E+03  0.25042157824E+03  0.00000000000E+00 0. -1.
<mgrwt>
<rscale>  0 0.17208507E+03</rscale>
<asrwt>0</asrwt>
<pdfrwt beam="2">  1        2 0.17392303E+00 0.17780903E+03</pdfrwt>
<pdfrwt beam="1">  1       -2 0.39920342E-02 0.17780903E+03</pdfrwt>
<totfact> 0.59563818E+03</totfact>
</mgrwt>
</event>
<event>
 7    1  0.1422977E-005  0.1317237E+03  0.7546771E-02  0.1241080E+00
          1   -1    0    0  501    0  0.00000000000E+00  0.00000000000E+00  0.27664788068E+03  0.27664788068E+03  0.00000000000E+00 0. -1.
         -1   -1    0    0    0  501 -0.00000000000E+00 -0.00000000000E+00 -0.46551442537E+02  0.46551442537E+02  0.00000000000E+00 0.  1.
         23    2    1    2    0    0 -0.13716375949E+02  0.39217837303E+02  0.83431219660E+02  0.12606533134E+03  0.84885343972E+02 0.  0.
          5    1    1    2  502    0 -0.12500144784E+02 -0.79837712636E+02  0.73651641315E+02  0.10943933592E+03  0.47000000000E+01 0.  1.
         -5    1    1    2    0  502  0.26216520733E+02  0.40619875334E+02  0.73013577169E+02  0.87694655952E+02  0.47000000000E+01 0.  1.
        -11    1    3    3    0    0 -0.13915318900E+02 -0.21870606435E+02  0.50261061608E+02  0.56552045408E+02  0.00000000000E+00 0. -1.
         11    1    3    3    0    0  0.19894295040E+00  0.61088443737E+02  0.33170158052E+02  0.69513285937E+02  0.00000000000E+00 0.  1.
<mgrwt>
<rscale>  0 0.12123126E+03</rscale>
<asrwt>0</asrwt>
<pdfrwt beam="1">  1        1 0.42561211E-01 0.13172367E+03</pdfrwt>
<pdfrwt beam="2">  1       -1 0.71617606E-02 0.13172367E+03</pdfrwt>
<totfact> 0.93560661E+03</totfact>
</mgrwt>
</event>
<event>
 7    1  0.1422977E-005  0.1339697E+03  0.7546771E-02  0.1234009E+00
         -1   -1    0    0    0  501 -0.00000000000E+00  0.00000000000E+00  0.26655318028E+02  0.26655318028E+02  0.00000000000E+00 0.  1.
          1   -1    0    0  501    0  0.00000000000E+00 -0.00000000000E+00 -0.53454867068E+03  0.53454867068E+03  0.00000000000E+00 0. -1.
         23    2    1    2    0    0  0.47057789040E+02  0.10134281460E+02 -0.19652676360E+03  0.22223933554E+03  0.91926134903E+02 0.  0.
          5    1    1    2  502    0 -0.75596471803E+02 -0.23211671230E+02 -0.11257472682E+03  0.13765452172E+03  0.47000000000E+01 0. -1.
         -5    1    1    2    0  502  0.28538682763E+02  0.13077389771E+02 -0.19879186223E+03  0.20131013146E+03  0.47000000000E+01 0. -1.
        -11    1    3    3    0    0  0.12469928970E+02  0.49667024931E+02 -0.94315664713E+02  0.10732081394E+03  0.00000000000E+00 0. -1.
         11    1    3    3    0    0  0.34587860069E+02 -0.39532743471E+02 -0.10221109889E+03  0.11491852160E+03  0.00000000000E+00 0.  1.
<mgrwt>
<rscale>  0 0.12568099E+03</rscale>
<asrwt>0</asrwt>
<pdfrwt beam="2">  1        1 0.82238260E-01 0.13396971E+03</pdfrwt>
<pdfrwt beam="1">  1       -1 0.41008180E-02 0.13396971E+03</pdfrwt>
<totfact> 0.93227720E+03</totfact>
</mgrwt>
</event>
<event>
 7    1  0.1422977E-005  0.2666044E+03  0.7546771E-02  0.1105346E+00
          1   -1    0    0  501    0  0.00000000000E+00  0.00000000000E+00  0.13318092613E+04  0.13318092613E+04  0.00000000000E+00 0. -1.
         -1   -1    0    0    0  501 -0.00000000000E+00 -0.00000000000E+00 -0.12121786024E+03  0.12121786024E+03  0.00000000000E+00 0.  1.
         23    2    1    2    0    0  0.21440218137E+03 -0.97427237276E+02  0.43969845000E+02  0.25633009573E+03  0.91166928033E+02 0.  0.
          5    1    1    2  502    0  0.83082312418E+01 -0.13738981797E+02  0.52603159233E+02  0.55199354059E+02  0.47000000000E+01 0. -1.
         -5    1    1    2    0  502 -0.22271041262E+03  0.11116621907E+03  0.11140183968E+04  0.11414976717E+04  0.47000000000E+01 0. -1.
        -11    1    3    3    0    0  0.12672009925E+03 -0.12177208676E+02  0.29419307981E+01  0.12733782990E+03  0.00000000000E+00 0.  1.
         11    1    3    3    0    0  0.87682082121E+02 -0.85250028600E+02  0.41027914201E+02  0.12899226583E+03  0.00000000000E+00 0. -1.
<mgrwt>
<rscale>  0 0.26301412E+03</rscale>
<asrwt>0</asrwt>
<pdfrwt beam="1">  1        1 0.20489372E+00 0.26660442E+03</pdfrwt>
<pdfrwt beam="2">  1       -1 0.18648903E-01 0.26660442E+03</pdfrwt>
<totfact> 0.21160343E+02</totfact>
</mgrwt>
</event>
<event>
 7    1  0.1422977E-005  0.1251743E+03  0.7546771E-02  0.1250184E+00
         -2   -1    0    0    0  501 -0.00000000000E+00  0.00000000000E+00  0.16933849393E+02  0.16933849393E+02  0.00000000000E+00 0. -1.
          2   -1    0    0  501    0  0.00000000000E+00 -0.00000000000E+00 -0.14736162176E+04  0.14736162176E+04  0.00000000000E+00 0.  1.
         23    2    1    2    0    0 -0.72217259483E+00 -0.66066899533E+01 -0.13645649462E+03  0.16440340665E+03  0.91454553238E+02 0.  0.
          5    1    1    2  502    0 -0.65526825894E+01  0.52602111341E+02 -0.10852955512E+04  0.10865994861E+04  0.47000000000E+01 0. -1.
         -5    1    1    2    0  502  0.72748551842E+01 -0.45995421388E+02 -0.23493032239E+03  0.23954717424E+03  0.47000000000E+01 0. -1.
        -11    1    3    3    0    0  0.13545793392E+02 -0.27036456013E+02 -0.13616534949E+03  0.13948283362E+03  0.00000000000E+00 0.  1.
         11    1    3    3    0    0 -0.14267965986E+02  0.20429766059E+02 -0.29114513020E+00  0.24920573029E+02  0.00000000000E+00 0. -1.
<mgrwt>
<rscale>  0 0.11580403E+03</rscale>
<asrwt>0</asrwt>
<pdfrwt beam="2">  1        2 0.22671024E+00 0.12517431E+03</pdfrwt>
<pdfrwt beam="1">  1       -2 0.26052070E-02 0.12517431E+03</pdfrwt>
<totfact> 0.71978288E+03</totfact>
</mgrwt>
</event>
<event>
 7    1  0.1422977E-005  0.1531054E+03  0.7546771E-02  0.1217468E+00
          2   -1    0    0  501    0  0.00000000000E+00  0.00000000000E+00  0.16571685655E+03  0.16571685655E+03  0.00000000000E+00 0. -1.
         -2   -1    0    0    0  501 -0.00000000000E+00 -0.00000000000E+00 -0.95920375590E+02  0.95920375590E+02  0.00000000000E+00 0.  1.
         23    2    1    2    0    0  0.27875440005E+02 -0.24493808691E+02  0.16024959081E+02  0.99363911464E+02  0.90771145019E+02 0.  0.
          5    1    1    2  502    0 -0.66335732342E+01  0.49767046972E+02  0.96016282997E+02  0.10845266183E+03  0.47000000000E+01 0. -1.
         -5    1    1    2    0  502 -0.21241866771E+02 -0.25273238281E+02 -0.42244761114E+02  0.53820658847E+02  0.47000000000E+01 0.  1.
        -11    1    3    3    0    0 -0.56395474943E+01 -0.33041242935E+02  0.43694562162E+02  0.55070345860E+02  0.00000000000E+00 0. -1.
         11    1    3    3    0    0  0.33514987500E+02  0.85474342440E+01 -0.27669603081E+02  0.44293565604E+02  0.00000000000E+00 0.  1.
<mgrwt>
<rscale>  0 0.13696806E+03</rscale>
<asrwt>0</asrwt>
<pdfrwt beam="1">  1        2 0.25494901E-01 0.15310537E+03</pdfrwt>
<pdfrwt beam="2">  1       -2 0.14756981E-01 0.15310537E+03</pdfrwt>
<totfact> 0.70790524E+03</totfact>
</mgrwt>
</event>
<event>
 7    1  0.1422977E-005  0.1819752E+03  0.7546771E-02  0.1171096E+00
         -3   -1    0    0    0  501 -0.00000000000E+00  0.00000000000E+00  0.98753613706E+02  0.98753613706E+02  0.00000000000E+00 0.  1.
          3   -1    0    0  501    0  0.00000000000E+00 -0.00000000000E+00 -0.31048667086E+03  0.31048667086E+03  0.00000000000E+00 0. -1.
         23    2    1    2    0    0 -0.38221314939E+02 -0.12660384400E+03 -0.60092669716E+02  0.17236522899E+03  0.92785995612E+02 0.  0.
          5    1    1    2  502    0 -0.28219203537E+02  0.15983365364E+02 -0.85982350788E+02  0.92015466437E+02  0.47000000000E+01 0. -1.
         -5    1    1    2    0  502  0.66440518476E+02  0.11062047863E+03 -0.65658036652E+02  0.14485958914E+03  0.47000000000E+01 0. -1.
        -11    1    3    3    0    0  0.58072789290E+01 -0.58294234418E+02  0.16320785332E+02  0.60813734376E+02  0.00000000000E+00 0.  1.
         11    1    3    3    0    0 -0.44028593869E+02 -0.68309609579E+02 -0.76413455048E+02  0.11155149462E+03  0.00000000000E+00 0. -1.
<mgrwt>
<rscale>  0 0.17663894E+03</rscale>
<asrwt>0</asrwt>
<pdfrwt beam="2">  1        3 0.47767180E-01 0.18197523E+03</pdfrwt>
<pdfrwt beam="1">  1       -3 0.15192864E-01 0.18197523E+03</pdfrwt>
<totfact> 0.38403315E+02</totfact>
</mgrwt>
</event>
<event>
 7    1  0.1422977E-005  0.1507178E+03  0.7546771E-02  0.1208251E+00
          2   -1    0    0  501    0  0.00000000000E+00  0.00000000000E+00  0.29113182527E+03  0.29113182527E+03  0.00000000000E+00 0. -1.
         -2   -1    0    0    0  501 -0.00000000000E+00 -0.00000000000E+00 -0.89444738066E+02  0.89444738066E+02  0.00000000000E+00 0.  1.
         23    2    1    2    0    0  0.43490181885E+02 -0.72118504670E+02 -0.45660062017E+01  0.12512363580E+03  0.92426193187E+02 0.  0.
          5    1    1    2  502    0 -0.52896359599E+02 -0.32880110178E+01  0.24856724080E+02  0.58726336573E+02  0.47000000000E+01 0. -1.
         -5    1    1    2    0  502  0.94061777137E+01  0.75406515688E+02  0.18139636932E+03  0.19672659096E+03  0.47000000000E+01 0. -1.
        -11    1    3    3    0    0  0.52740442469E+02 -0.89524454687E+02 -0.10764346307E+02  0.10446077451E+03  0.00000000000E+00 0.  1.
         11    1    3    3    0    0 -0.92502605838E+01  0.17405950017E+02  0.61983401054E+01  0.20662861295E+02  0.00000000000E+00 0. -1.
<mgrwt>
<rscale>  0 0.14384208E+03</rscale>
<asrwt>0</asrwt>
<pdfrwt beam="1">  1        2 0.44789511E-01 0.15071781E+03</pdfrwt>
<pdfrwt beam="2">  1       -2 0.13760729E-01 0.15071781E+03</pdfrwt>
<totfact> 0.43142046E+03</totfact>
</mgrwt>
</event>
<event>
 7    1  0.1422977E-005  0.3993912E+03  0.7546771E-02  0.1044811E+00
          1   -1    0    0  501    0  0.00000000000E+00  0.00000000000E+00  0.12964920959E+04  0.12964920959E+04  0.00000000000E+00 0. -1.
         -1   -1    0    0    0  501 -0.00000000000E+00 -0.00000000000E+00 -0.12304269899E+03  0.12304269899E+03  0.00000000000E+00 0.  1.
         23    2    1    2    0    0 -0.21901159320E+03 -0.30971973816E+03  0.47156538567E+03  0.61197395803E+03  0.90806487606E+02 0.  0.
          5    1    1    2  502    0  0.64609937392E+02  0.18656926909E+03  0.29152480072E+03  0.35212403442E+03  0.47000000000E+01 0. -1.
         -5    1    1    2    0  502  0.15440165581E+03  0.12315046906E+03  0.41035921050E+03  0.45543680241E+03  0.47000000000E+01 0. -1.
        -11    1    3    3    0    0 -0.51118517312E+02 -0.14698577117E+03  0.17181738072E+03  0.23181702279E+03  0.00000000000E+00 0.  1.
         11    1    3    3    0    0 -0.16789307589E+03 -0.16273396699E+03  0.29974800495E+03  0.38015693524E+03  0.00000000000E+00 0. -1.
<mgrwt>
<rscale>  0 0.39703488E+03</rscale>
<asrwt>0</asrwt>
<pdfrwt beam="1">  1        1 0.19946031E+00 0.39939121E+03</pdfrwt>
<pdfrwt beam="2">  1       -1 0.18929647E-01 0.39939121E+03</pdfrwt>
<totfact> 0.21397042E+02</totfact>
</mgrwt>
</event>
<event>
 7    1  0.1422977E-005  0.1403541E+03  0.7546771E-02  0.1220696E+00
         -1   -1    0    0    0  501 -0.00000000000E+00  0.00000000000E+00  0.83194516759E+02  0.83194516759E+02  0.00000000000E+00 0.  1.
          1   -1    0    0  501    0  0.00000000000E+00 -0.00000000000E+00 -0.22665640303E+03  0.22665640303E+03  0.00000000000E+00 0. -1.
         23    2    1    2    0    0  0.62497104712E+02  0.12974900760E+02 -0.15543378726E+02  0.11994984365E+03  0.10036001306E+03 0.  0.
          5    1    1    2  502    0 -0.54106473760E+01  0.15753303001E+02 -0.12453481943E+03  0.12573167028E+03  0.47000000000E+01 0.  1.
         -5    1    1    2    0  502 -0.57086457336E+02 -0.28728203761E+02 -0.33836881084E+01  0.64169405855E+02  0.47000000000E+01 0.  1.
        -11    1    3    3    0    0  0.27751537784E+02  0.55605012813E+02 -0.18598491800E+02  0.64868861533E+02  0.00000000000E+00 0. -1.
         11    1    3    3    0    0  0.34745566929E+02 -0.42630112053E+02  0.30551130740E+01  0.55080982115E+02  0.00000000000E+00 0.  1.
<mgrwt>
<rscale>  0 0.13466336E+03</rscale>
<asrwt>0</asrwt>
<pdfrwt beam="2">  1        1 0.34870215E-01 0.14035410E+03</pdfrwt>
<pdfrwt beam="1">  1       -1 0.12799157E-01 0.14035410E+03</pdfrwt>
<totfact> 0.49636648E+03</totfact>
</mgrwt>
</event>
<event>
 7    1  0.1422977E-005  0.1321322E+03  0.7546771E-02  0.1238146E+00
         -1   -1    0    0    0  501 -0.00000000000E+00  0.00000000000E+00  0.18374600986E+02  0.18374600986E+02  0.00000000000E+00 0.  1.
          1   -1    0    0  501    0  0.00000000000E+00 -0.00000000000E+00 -0.77811063424E+03  0.77811063424E+03  0.00000000000E+00 0. -1.
         23    2    1    2    0    0 -0.41067653375E+02 -0.12207939950E+02 -0.23068555137E+03  0.25118409684E+03  0.89677427149E+02 0.  0.
          5    1    1    2  502    0 -0.20770418836E+02  0.36950149337E+02 -0.74257168245E+02  0.85632592337E+02  0.47000000000E+01 0.  1.
         -5    1    1    2    0  502  0.61838072212E+02 -0.24742209388E+02 -0.45479331364E+03  0.45966854605E+03  0.47000000000E+01 0.  1.
        -11    1    3    3    0    0 -0.12545776624E+02  0.37818216519E+02 -0.70764791721E+02  0.81211266207E+02  0.00000000000E+00 0.  1.
         11    1    3    3    0    0 -0.28521876751E+02 -0.50026156469E+02 -0.15992075965E+03  0.16997283063E+03  0.00000000000E+00 0. -1.
<mgrwt>
<rscale>  0 0.12305183E+03</rscale>
<asrwt>0</asrwt>
<pdfrwt beam="2">  1        1 0.11970934E+00 0.13213220E+03</pdfrwt>
<pdfrwt beam="1">  1       -1 0.28268615E-02 0.13213220E+03</pdfrwt>
<totfact> 0.95008320E+03</totfact>
</mgrwt>
</event>
<event>
 7    1  0.1422977E-005  0.1310807E+03  0.7546771E-02  0.1238927E+00
         -2   -1    0    0    0  501 -0.00000000000E+00  0.00000000000E+00  0.12834101966E+03  0.12834101966E+03  0.00000000000E+00 0.  1.
          2   -1    0    0  501    0  0.00000000000E+00 -0.00000000000E+00 -0.13421894197E+03  0.13421894197E+03  0.00000000000E+00 0. -1.
         23    2    1    2    0    0  0.36167994350E+02 -0.15760391825E+02  0.59031727272E+02  0.11628827692E+03  0.92096171253E+02 0.  0.
          5    1    1    2  502    0 -0.45498305459E+01  0.58152239641E+02  0.47203924503E+01  0.58709079691E+02  0.47000000000E+01 0. -1.
         -5    1    1    2    0  502 -0.31618163804E+02 -0.42391847816E+02 -0.69630042037E+02  0.87562605019E+02  0.47000000000E+01 0. -1.
        -11    1    3    3    0    0  0.58829083718E+02  0.13832905592E+02  0.23650661229E+02  0.64896564969E+02  0.00000000000E+00 0. -1.
         11    1    3    3    0    0 -0.22661089368E+02 -0.29593297417E+02  0.35381066043E+02  0.51391711956E+02  0.00000000000E+00 0.  1.
<mgrwt>
<rscale>  0 0.12256348E+03</rscale>
<asrwt>0</asrwt>
<pdfrwt beam="2">  1        2 0.20649068E-01 0.13108067E+03</pdfrwt>
<pdfrwt beam="1">  1       -2 0.19744772E-01 0.13108067E+03</pdfrwt>
<totfact> 0.54643896E+03</totfact>
</mgrwt>
</event>
<event>
 7    1  0.1422977E-005  0.4640490E+03  0.7546771E-02  0.1024192E+00
          1   -1    0    0  501    0  0.00000000000E+00  0.00000000000E+00  0.25708038272E+04  0.25708038272E+04  0.00000000000E+00 0. -1.
         -1   -1    0    0    0  501 -0.00000000000E+00 -0.00000000000E+00 -0.82945683544E+02  0.82945683544E+02  0.00000000000E+00 0.  1.
         23    2    1    2    0    0  0.27713982154E+03  0.35058358766E+03  0.11186032642E+04  0.12079969653E+04  0.90928943838E+02 0.  0.
          5    1    1    2  502    0 -0.11866101334E+03 -0.16399813536E+03  0.81585485815E+03  0.84060517727E+03  0.47000000000E+01 0. -1.
         -5    1    1    2    0  502 -0.15847880819E+03 -0.18658545229E+03  0.55340002133E+03  0.60514736822E+03  0.47000000000E+01 0. -1.
        -11    1    3    3    0    0  0.21848209516E+03  0.20772121007E+03  0.75417506804E+03  0.81219613412E+03  0.00000000000E+00 0.  1.
         11    1    3    3    0    0  0.58657726376E+02  0.14286237758E+03  0.36442819619E+03  0.39580083119E+03  0.00000000000E+00 0. -1.
<mgrwt>
<rscale>  0 0.46203671E+03</rscale>
<asrwt>0</asrwt>
<pdfrwt beam="1">  1        1 0.39550822E+00 0.46404903E+03</pdfrwt>
<pdfrwt beam="2">  1       -1 0.12760876E-01 0.46404903E+03</pdfrwt>
<totfact> 0.56453979E+01</totfact>
</mgrwt>
</event>
<event>
 7    1  0.1422977E-005  0.1626092E+03  0.7546771E-02  0.1192709E+00
          2   -1    0    0  501    0  0.00000000000E+00  0.00000000000E+00  0.12828942792E+04  0.12828942792E+04  0.00000000000E+00 0. -1.
         -2   -1    0    0    0  501 -0.00000000000E+00 -0.00000000000E+00 -0.37727922511E+02  0.37727922511E+02  0.00000000000E+00 0.  1.
         23    2    1    2    0    0  0.10386637353E+03 -0.53602277682E+01  0.12074325630E+03  0.18450202674E+03  0.92979074711E+02 0.  0.
          5    1    1    2  502    0 -0.12041298127E+03  0.14242204591E+02  0.10891090344E+04  0.10958479389E+04  0.47000000000E+01 0. -1.
         -5    1    1    2    0  502  0.16546607735E+02 -0.88819768232E+01  0.35314066013E+02  0.40272236071E+02  0.47000000000E+01 0. -1.
        -11    1    3    3    0    0  0.48388771353E+02  0.28652620808E+02  0.11581647853E+02  0.57415855295E+02  0.00000000000E+00 0.  1.
         11    1    3    3    0    0  0.55477602179E+02 -0.34012848576E+02  0.10916160845E+03  0.12708617144E+03  0.00000000000E+00 0. -1.
<mgrwt>
<rscale>  0 0.15649750E+03</rscale>
<asrwt>0</asrwt>
<pdfrwt beam="1">  1        2 0.19736832E+00 0.16260917E+03</pdfrwt>
<pdfrwt beam="2">  1       -2 0.58042968E-02 0.16260917E+03</pdfrwt>
<totfact> 0.27796000E+03</totfact>
</mgrwt>
</event>
<event>
 7    1  0.1422977E-005  0.1351917E+03  0.7546771E-02  0.1232248E+00
         -2   -1    0    0    0  501 -0.00000000000E+00  0.00000000000E+00  0.22034795951E+02  0.22034795951E+02  0.00000000000E+00 0.  1.
          2   -1    0    0  501    0  0.00000000000E+00 -0.00000000000E+00 -0.66036610381E+03  0.66036610381E+03  0.00000000000E+00 0. -1.
         23    2    1    2    0    0  0.29657917070E+02  0.42097659784E+02 -0.24307579715E+03  0.26466447597E+03  0.91157208585E+02 0.  0.
          5    1    1    2  502    0 -0.40551522014E+02  0.67431770032E+01 -0.35592459633E+02  0.54578471548E+02  0.47000000000E+01 0.  1.
         -5    1    1    2    0  502  0.10893604945E+02 -0.48840836787E+02 -0.35966305108E+03  0.36315795224E+03  0.47000000000E+01 0.  1.
        -11    1    3    3    0    0 -0.14256540810E+02  0.44321956496E+02 -0.19058888377E+03  0.19619329092E+03  0.00000000000E+00 0. -1.
         11    1    3    3    0    0  0.43914457880E+02 -0.22242967123E+01 -0.52486913377E+02  0.68471185053E+02  0.00000000000E+00 0.  1.
<mgrwt>
<rscale>  0 0.12682242E+03</rscale>
<asrwt>0</asrwt>
<pdfrwt beam="2">  1        2 0.10159478E+00 0.13519172E+03</pdfrwt>
<pdfrwt beam="1">  1       -2 0.33899687E-02 0.13519172E+03</pdfrwt>
<totfact> 0.15076035E+04</totfact>
</mgrwt>
</event>
<event>
 7    1  0.1422977E-005  0.1252303E+03  0.7546771E-02  0.1250221E+00
         -4   -1    0    0    0  501 -0.00000000000E+00  0.00000000000E+00  0.17785593991E+03  0.17785593991E+03  0.00000000000E+00 0. -1.
          4   -1    0    0  501    0  0.00000000000E+00 -0.00000000000E+00 -0.66491087656E+02  0.66491087656E+02  0.00000000000E+00 0.  1.
         23    2    1    2    0    0  0.10941575055E-01  0.75350521039E+01  0.57140701396E+02  0.10788133810E+03  0.91195099779E+02 0.  0.
          5    1    1    2  502    0 -0.49125206540E+02  0.23730780220E+02 -0.28059126285E+01  0.54830639182E+02  0.47000000000E+01 0. -1.
         -5    1    1    2    0  502  0.49114264965E+02 -0.31265832324E+02  0.57030063483E+02  0.81635050284E+02  0.47000000000E+01 0. -1.
        -11    1    3    3    0    0  0.86107133911E+01  0.37434096368E+02  0.65262480944E+02  0.75727454565E+02  0.00000000000E+00 0. -1.
         11    1    3    3    0    0 -0.85997718160E+01 -0.29899044264E+02 -0.81217795479E+01  0.32153883532E+02  0.00000000000E+00 0.  1.
<mgrwt>
<rscale>  0 0.11578286E+03</rscale>
<asrwt>0</asrwt>
<pdfrwt beam="2">  1        4 0.10229398E-01 0.12523029E+03</pdfrwt>
<pdfrwt beam="1">  1       -4 0.27362452E-01 0.12523029E+03</pdfrwt>
<totfact> 0.14941190E+03</totfact>
</mgrwt>
</event>
<event>
 7    1  0.1422977E-005  0.1558976E+03  0.7546771E-02  0.1202073E+00
         -2   -1    0    0    0  501 -0.00000000000E+00  0.00000000000E+00  0.11014713476E+02  0.11014713476E+02  0.00000000000E+00 0. -1.
          2   -1    0    0  501    0  0.00000000000E+00 -0.00000000000E+00 -0.19137280227E+04  0.19137280227E+04  0.00000000000E+00 0.  1.
         23    2    1    2    0    0  0.68995046391E+02  0.62544270695E+02 -0.68082400785E+03  0.69294830202E+03  0.89352769334E+02 0.  0.
          5    1    1    2  502    0 -0.24081405806E+02 -0.92319486792E+02 -0.93362013065E+03  0.93849424085E+03  0.47000000000E+01 0. -1.
         -5    1    1    2    0  502 -0.44913640585E+02  0.29775216097E+02 -0.28826917070E+03  0.29330019328E+03  0.47000000000E+01 0. -1.
        -11    1    3    3    0    0  0.88562885113E+02  0.37324440860E+02 -0.54627278802E+03  0.55466247164E+03  0.00000000000E+00 0.  1.
         11    1    3    3    0    0 -0.19567838722E+02  0.25219829835E+02 -0.13455121983E+03  0.13828583039E+03  0.00000000000E+00 0. -1.
<mgrwt>
<rscale>  0 0.14870514E+03</rscale>
<asrwt>0</asrwt>
<pdfrwt beam="2">  1        2 0.29441982E+00 0.15589760E+03</pdfrwt>
<pdfrwt beam="1">  1       -2 0.16945706E-02 0.15589760E+03</pdfrwt>
<totfact> 0.80436683E+03</totfact>
</mgrwt>
</event>
<event>
 7    1  0.1422977E-005  0.1307902E+03  0.7546771E-02  0.1239772E+00
         -2   -1    0    0    0  501 -0.00000000000E+00  0.00000000000E+00  0.38530200156E+02  0.38530200156E+02  0.00000000000E+00 0.  1.
          2   -1    0    0  501    0  0.00000000000E+00 -0.00000000000E+00 -0.37570437754E+03  0.37570437754E+03  0.00000000000E+00 0. -1.
         23    2    1    2    0    0  0.34347397866E+02 -0.17370166106E+02 -0.86858706391E+02  0.13180950588E+03  0.91366539573E+02 0.  0.
          5    1    1    2  502    0  0.29945357081E+01  0.67682623287E+02 -0.12624961874E+03  0.14335606360E+03  0.47000000000E+01 0. -1.
         -5    1    1    2    0  502 -0.37341933574E+02 -0.50312457182E+02 -0.12406585225E+03  0.13906900821E+03  0.47000000000E+01 0. -1.
        -11    1    3    3    0    0 -0.23892952303E+02 -0.26011926279E+02 -0.13658977901E+02  0.37868999931E+02  0.00000000000E+00 0.  1.
         11    1    3    3    0    0  0.58240350169E+02  0.86417601734E+01 -0.73199728490E+02  0.93940505948E+02  0.00000000000E+00 0. -1.
<mgrwt>
<rscale>  0 0.12203851E+03</rscale>
<asrwt>0</asrwt>
<pdfrwt beam="2">  1        2 0.57800670E-01 0.13079024E+03</pdfrwt>
<pdfrwt beam="1">  1       -2 0.59277234E-02 0.13079024E+03</pdfrwt>
<totfact> 0.12154264E+04</totfact>
</mgrwt>
</event>
<event>
 7    1  0.1422977E-005  0.1378940E+03  0.7546771E-02  0.1227394E+00
         -2   -1    0    0    0  501 -0.00000000000E+00  0.00000000000E+00  0.87260856940E+01  0.87260856940E+01  0.00000000000E+00 0.  1.
          2   -1    0    0  501    0  0.00000000000E+00 -0.00000000000E+00 -0.21486769682E+04  0.21486769682E+04  0.00000000000E+00 0. -1.
         23    2    1    2    0    0 -0.70904643544E+01 -0.57784136379E+02 -0.50479639689E+03  0.51644450583E+03  0.92229302254E+02 0.  0.
          5    1    1    2  502    0  0.45611652173E+02 -0.16023212771E+02 -0.85042979974E+03  0.85181576673E+03  0.47000000000E+01 0.  1.
         -5    1    1    2    0  502 -0.38521187819E+02  0.73807349150E+02 -0.78472468589E+03  0.78914278134E+03  0.47000000000E+01 0.  1.
        -11    1    3    3    0    0  0.13818184235E+01  0.20552863163E+02 -0.39752052791E+02  0.44772260469E+02  0.00000000000E+00 0.  1.
         11    1    3    3    0    0 -0.84722827779E+01 -0.78336999542E+02 -0.46504434410E+03  0.47167224537E+03  0.00000000000E+00 0. -1.
<mgrwt>
<rscale>  0 0.13004153E+03</rscale>
<asrwt>0</asrwt>
<pdfrwt beam="2">  1        2 0.33056605E+00 0.13789403E+03</pdfrwt>
<pdfrwt beam="1">  1       -2 0.13424733E-02 0.13789403E+03</pdfrwt>
<totfact> 0.85004244E+03</totfact>
</mgrwt>
</event>
<event>
 7    1  0.1422977E-005  0.3592432E+03  0.7546771E-02  0.1097351E+00
          2   -1    0    0  501    0  0.00000000000E+00  0.00000000000E+00  0.24099792722E+03  0.24099792722E+03  0.00000000000E+00 0. -1.
         -2   -1    0    0    0  501 -0.00000000000E+00 -0.00000000000E+00 -0.24522855605E+03  0.24522855605E+03  0.00000000000E+00 0.  1.
         23    2    1    2    0    0 -0.81384622446E+02  0.34916599972E+02 -0.30235820134E+01  0.12698127265E+03  0.90953151852E+02 0.  0.
          5    1    1    2  502    0  0.14644969347E+02  0.19781735222E+02  0.16767484239E+03  0.16953682475E+03  0.47000000000E+01 0. -1.
         -5    1    1    2    0  502  0.66739653099E+02 -0.54698335194E+02 -0.16888188921E+03  0.18970838587E+03  0.47000000000E+01 0.  1.
        -11    1    3    3    0    0 -0.84803286604E+02  0.18851614751E+02  0.28505503509E+02  0.91430544830E+02  0.00000000000E+00 0.  1.
         11    1    3    3    0    0  0.34186641586E+01  0.16064985222E+02 -0.31529085522E+02  0.35550727822E+02  0.00000000000E+00 0. -1.
<mgrwt>
<rscale>  0 0.27697816E+03</rscale>
<asrwt>0</asrwt>
<pdfrwt beam="1">  1        2 0.37076604E-01 0.35924318E+03</pdfrwt>
<pdfrwt beam="2">  1       -2 0.37727470E-01 0.35924318E+03</pdfrwt>
<totfact> 0.92925538E+02</totfact>
</mgrwt>
</event>
<event>
 7    1  0.1422977E-005  0.1453481E+03  0.7546771E-02  0.1216667E+00
          1   -1    0    0  501    0  0.00000000000E+00  0.00000000000E+00  0.24297127578E+03  0.24297127578E+03  0.00000000000E+00 0. -1.
         -1   -1    0    0    0  501 -0.00000000000E+00 -0.00000000000E+00 -0.70585746773E+02  0.70585746773E+02  0.00000000000E+00 0.  1.
         23    2    1    2    0    0 -0.68262388512E+02  0.29008709651E+02  0.76784381942E+02  0.13958680884E+03  0.89929844719E+02 0.  0.
          5    1    1    2  502    0  0.40385370436E+02 -0.48731928710E+02  0.11720796050E+03  0.13328756516E+03  0.47000000000E+01 0. -1.
         -5    1    1    2    0  502  0.27877018076E+02  0.19723219059E+02 -0.21606813433E+02  0.40682648557E+02  0.47000000000E+01 0. -1.
        -11    1    3    3    0    0  0.13879956646E+00 -0.11976428121E+02 -0.14218479870E+02  0.18590838219E+02  0.00000000000E+00 0.  1.
         11    1    3    3    0    0 -0.68401188079E+02  0.40985137772E+02  0.91002861812E+02  0.12099597062E+03  0.00000000000E+00 0. -1.
<mgrwt>
<rscale>  0 0.13754788E+03</rscale>
<asrwt>0</asrwt>
<pdfrwt beam="1">  1        1 0.37380196E-01 0.14534805E+03</pdfrwt>
<pdfrwt beam="2">  1       -1 0.10859346E-01 0.14534805E+03</pdfrwt>
<totfact> 0.58807900E+03</totfact>
</mgrwt>
</event>
<event>
 7    1  0.1422977E-005  0.1288269E+03  0.7546771E-02  0.1243932E+00
          3   -1    0    0  501    0  0.00000000000E+00  0.00000000000E+00  0.19762242448E+03  0.19762242448E+03  0.00000000000E+00 0. -1.
         -3   -1    0    0    0  501 -0.00000000000E+00 -0.00000000000E+00 -0.85182711232E+02  0.85182711232E+02  0.00000000000E+00 0.  1.
         23    2    1    2    0    0  0.22694988186E+02 -0.21485659952E+02 -0.20653570475E+02  0.97575050215E+02  0.90097860012E+02 0.  0.
          5    1    1    2  502    0 -0.50619021353E+02 -0.31605579112E+02  0.10003152647E+03  0.11657441504E+03  0.47000000000E+01 0.  1.
         -5    1    1    2    0  502  0.27924033167E+02  0.53091239064E+02  0.33061757258E+02  0.68655670462E+02  0.47000000000E+01 0.  1.
        -11    1    3    3    0    0  0.42753728522E+02  0.29527173769E+01  0.18984553503E+02  0.46872306474E+02  0.00000000000E+00 0. -1.
         11    1    3    3    0    0 -0.20058740336E+02 -0.24438377329E+02 -0.39638123979E+02  0.50702743741E+02  0.00000000000E+00 0.  1.
<mgrwt>
<rscale>  0 0.11949538E+03</rscale>
<asrwt>0</asrwt>
<pdfrwt beam="1">  1        3 0.30403450E-01 0.12882687E+03</pdfrwt>
<pdfrwt beam="2">  1       -3 0.13105033E-01 0.12882687E+03</pdfrwt>
<totfact> 0.11192618E+03</totfact>
</mgrwt>
</event>
<event>
 7    1  0.1422977E-005  0.2707776E+03  0.7546771E-02  0.1102729E+00
          2   -1    0    0  501    0  0.00000000000E+00  0.00000000000E+00  0.12292920833E+03  0.12292920833E+03  0.00000000000E+00 0. -1.
         -2   -1    0    0    0  501 -0.00000000000E+00 -0.00000000000E+00 -0.60266586677E+03  0.60266586677E+03  0.00000000000E+00 0.  1.
         23    2    1    2    0    0  0.22998149310E+03  0.69305785433E+02 -0.32096288331E+03  0.41170076347E+03  0.93731356098E+02 0.  0.
          5    1    1    2  502    0 -0.11917612061E+03  0.80329198211E+01 -0.21953942466E+02  0.12153822902E+03  0.47000000000E+01 0. -1.
         -5    1    1    2    0  502 -0.11080537250E+03 -0.77338705254E+02 -0.13681983267E+03  0.19235608261E+03  0.47000000000E+01 0. -1.
        -11    1    3    3    0    0  0.17886545112E+03  0.94971620242E+01 -0.22650367190E+03  0.28876800216E+03  0.00000000000E+00 0.  1.
         11    1    3    3    0    0  0.51116041986E+02  0.59808623409E+02 -0.94459211410E+02  0.12293276131E+03  0.00000000000E+00 0. -1.
<mgrwt>
<rscale>  0 0.26748304E+03</rscale>
<asrwt>0</asrwt>
<pdfrwt beam="1">  1        2 0.18912186E-01 0.27077763E+03</pdfrwt>
<pdfrwt beam="2">  1       -2 0.92717826E-01 0.27077763E+03</pdfrwt>
<totfact> 0.30360110E+02</totfact>
</mgrwt>
</event>
<event>
 7    1  0.1422977E-005  0.1295664E+03  0.7546771E-02  0.1245671E+00
         -1   -1    0    0    0  501 -0.00000000000E+00  0.00000000000E+00  0.36282780408E+03  0.36282780408E+03  0.00000000000E+00 0.  1.
          1   -1    0    0  501    0  0.00000000000E+00 -0.00000000000E+00 -0.33676060609E+02  0.33676060609E+02  0.00000000000E+00 0. -1.
         23    2    1    2    0    0 -0.19280987573E+02 -0.28122556494E+02  0.15414563770E+03  0.17875493037E+03  0.83843979190E+02 0.  0.
          5    1    1    2  502    0  0.28128890317E+02 -0.46046759049E+02  0.63610512421E+02  0.83545950110E+02  0.47000000000E+01 0. -1.
         -5    1    1    2    0  502 -0.88479027436E+01  0.74169315543E+02  0.11139559335E+03  0.13420298421E+03  0.47000000000E+01 0. -1.
        -11    1    3    3    0    0 -0.19807121798E+02  0.13531369291E+02  0.58107310865E+01  0.24681665757E+02  0.00000000000E+00 0. -1.
         11    1    3    3    0    0  0.52613422456E+00 -0.41653925785E+02  0.14833490661E+03  0.15407326462E+03  0.00000000000E+00 0.  1.
<mgrwt>
<rscale>  0 0.11845301E+03</rscale>
<asrwt>0</asrwt>
<pdfrwt beam="2">  1        1 0.51809327E-02 0.12956644E+03</pdfrwt>
<pdfrwt beam="1">  1       -1 0.55819659E-01 0.12956644E+03</pdfrwt>
<totfact> 0.50300163E+03</totfact>
</mgrwt>
</event>
<event>
 7    1  0.1422977E-005  0.1322860E+03  0.7546771E-02  0.1238794E+00
          2   -1    0    0  501    0  0.00000000000E+00  0.00000000000E+00  0.40591235197E+03  0.40591235197E+03  0.00000000000E+00 0. -1.
         -2   -1    0    0    0  501 -0.00000000000E+00 -0.00000000000E+00 -0.36416772193E+02  0.36416772193E+02  0.00000000000E+00 0.  1.
         23    2    1    2    0    0  0.92019195601E+01  0.42310709032E+02  0.88942586029E+02  0.13215246383E+03  0.87627727710E+02 0.  0.
          5    1    1    2  502    0  0.15951316106E+02  0.19846249135E+02  0.21408436194E+03  0.21564443447E+03  0.47000000000E+01 0.  1.
         -5    1    1    2    0  502 -0.25153235666E+02 -0.62156958167E+02  0.66468631808E+02  0.94532225867E+02  0.47000000000E+01 0.  1.
        -11    1    3    3    0    0  0.44964619391E+02  0.14883687701E+02  0.23983907777E+02  0.53090196730E+02  0.00000000000E+00 0.  1.
         11    1    3    3    0    0 -0.35762699831E+02  0.27427021331E+02  0.64958678253E+02  0.79062267098E+02  0.00000000000E+00 0. -1.
<mgrwt>
<rscale>  0 0.12264662E+03</rscale>
<asrwt>0</asrwt>
<pdfrwt beam="1">  1        2 0.62448051E-01 0.13228597E+03</pdfrwt>
<pdfrwt beam="2">  1       -2 0.56025806E-02 0.13228597E+03</pdfrwt>
<totfact> 0.12199957E+04</totfact>
</mgrwt>
</event>
<event>
 7    1  0.1422977E-005  0.1394373E+03  0.7546771E-02  0.1224668E+00
          2   -1    0    0  501    0  0.00000000000E+00  0.00000000000E+00  0.36838754412E+03  0.36838754412E+03  0.00000000000E+00 0. -1.
         -2   -1    0    0    0  501 -0.00000000000E+00 -0.00000000000E+00 -0.52525252502E+02  0.52525252502E+02  0.00000000000E+00 0.  1.
         23    2    1    2    0    0  0.57221724423E+02  0.23319763377E+02  0.53487914378E+02  0.12378813719E+03  0.92975312932E+02 0.  0.
          5    1    1    2  502    0 -0.39950126847E+02 -0.58623632194E+02  0.24274454139E+03  0.25294217770E+03  0.47000000000E+01 0. -1.
         -5    1    1    2    0  502 -0.17271597576E+02  0.35303868817E+02  0.19629835853E+02  0.44182481731E+02  0.47000000000E+01 0. -1.
        -11    1    3    3    0    0  0.34223740811E+02  0.57592340625E+02  0.47403323473E+02  0.82068369120E+02  0.00000000000E+00 0.  1.
         11    1    3    3    0    0  0.22997983611E+02 -0.34272577248E+02  0.60845909057E+01  0.41719768071E+02  0.00000000000E+00 0. -1.
<mgrwt>
<rscale>  0 0.13189702E+03</rscale>
<asrwt>0</asrwt>
<pdfrwt beam="1">  1        2 0.56675005E-01 0.13943726E+03</pdfrwt>
<pdfrwt beam="2">  1       -2 0.80808083E-02 0.13943726E+03</pdfrwt>
<totfact> 0.77620688E+03</totfact>
</mgrwt>
</event>
<event>
 7    1  0.1422977E-005  0.1408636E+03  0.7546771E-02  0.1222839E+00
          2   -1    0    0  501    0  0.00000000000E+00  0.00000000000E+00  0.39352527973E+03  0.39352527973E+03  0.00000000000E+00 0. -1.
         -2   -1    0    0    0  501 -0.00000000000E+00 -0.00000000000E+00 -0.43360406401E+02  0.43360406401E+02  0.00000000000E+00 0.  1.
         23    2    1    2    0    0  0.26006114908E+02  0.59508892569E+02  0.10364624882E+03  0.15295968321E+03  0.91850386415E+02 0.  0.
          5    1    1    2  502    0 -0.22815359687E+02 -0.97065592363E+02  0.14976074746E+03  0.17997955812E+03  0.47000000000E+01 0.  1.
         -5    1    1    2    0  502 -0.31907552208E+01  0.37556699794E+02  0.96757877049E+02  0.10394644481E+03  0.47000000000E+01 0.  1.
        -11    1    3    3    0    0 -0.27317972632E+02  0.43546426413E+02  0.73399247402E+02  0.89610336465E+02  0.00000000000E+00 0. -1.
         11    1    3    3    0    0  0.53324087540E+02  0.15962466155E+02  0.30247001417E+02  0.63349346740E+02  0.00000000000E+00 0.  1.
<mgrwt>
<rscale>  0 0.13316129E+03</rscale>
<asrwt>0</asrwt>
<pdfrwt beam="1">  1        2 0.60542349E-01 0.14086356E+03</pdfrwt>
<pdfrwt beam="2">  1       -2 0.66708320E-02 0.14086356E+03</pdfrwt>
<totfact> 0.97199132E+03</totfact>
</mgrwt>
</event>
<event>
 7    1  0.1422977E-005  0.1343786E+03  0.7546771E-02  0.1235644E+00
         -4   -1    0    0    0  501 -0.00000000000E+00  0.00000000000E+00  0.21704683766E+03  0.21704683766E+03  0.00000000000E+00 0.  1.
          4   -1    0    0  501    0  0.00000000000E+00 -0.00000000000E+00 -0.64809069233E+02  0.64809069233E+02  0.00000000000E+00 0. -1.
         23    2    1    2    0    0 -0.49319687687E+02 -0.31459374974E+00  0.88551262608E+02  0.13314952447E+03  0.86341989752E+02 0.  0.
          5    1    1    2  502    0  0.32956049739E+01 -0.50642234687E+02 -0.53214171042E+01  0.51243579366E+02  0.47000000000E+01 0.  1.
         -5    1    1    2    0  502  0.46024082713E+02  0.50956828437E+02  0.69007922926E+02  0.97462803061E+02  0.47000000000E+01 0.  1.
        -11    1    3    3    0    0 -0.29542170536E+02  0.23991356070E+02  0.93937951990E+02  0.10135415053E+03  0.00000000000E+00 0.  1.
         11    1    3    3    0    0 -0.19777517151E+02 -0.24305949820E+02 -0.53866893822E+01  0.31795373937E+02  0.00000000000E+00 0. -1.
<mgrwt>
<rscale>  0 0.12463308E+03</rscale>
<asrwt>0</asrwt>
<pdfrwt beam="2">  1        4 0.99706262E-02 0.13437863E+03</pdfrwt>
<pdfrwt beam="1">  1       -4 0.33391821E-01 0.13437863E+03</pdfrwt>
<totfact> 0.10874515E+03</totfact>
</mgrwt>
</event>
<event>
 7    1  0.1422977E-005  0.2080439E+03  0.7546771E-02  0.1153873E+00
          2   -1    0    0  501    0  0.00000000000E+00  0.00000000000E+00  0.29909063668E+04  0.29909063668E+04  0.00000000000E+00 0. -1.
         -2   -1    0    0    0  501 -0.00000000000E+00 -0.00000000000E+00 -0.17292161745E+02  0.17292161745E+02  0.00000000000E+00 0.  1.
         23    2    1    2    0    0  0.12196031288E+03  0.51811997667E+02  0.48862340697E+03  0.51451420319E+03  0.91723663367E+02 0.  0.
          5    1    1    2  502    0 -0.74372522095E+02 -0.60900104648E+02  0.23112783816E+04  0.23132812069E+04  0.47000000000E+01 0. -1.
         -5    1    1    2    0  502 -0.47587790789E+02  0.90881069801E+01  0.17371241652E+03  0.18040311853E+03  0.47000000000E+01 0.  1.
        -11    1    3    3    0    0  0.90111617544E+02  0.33639683997E+01  0.38838379376E+03  0.39871467386E+03  0.00000000000E+00 0. -1.
         11    1    3    3    0    0  0.31848695340E+02  0.48448029268E+02  0.10023961321E+03  0.11579952932E+03  0.00000000000E+00 0.  1.
<mgrwt>
<rscale>  0 0.19517735E+03</rscale>
<asrwt>0</asrwt>
<pdfrwt beam="1">  1        2 0.46013903E+00 0.20804386E+03</pdfrwt>
<pdfrwt beam="2">  1       -2 0.26603350E-02 0.20804386E+03</pdfrwt>
<totfact> 0.10819946E+03</totfact>
</mgrwt>
</event>
<event>
 7    1  0.1422977E-005  0.1525623E+03  0.7546771E-02  0.1205824E+00
         -1   -1    0    0    0  501 -0.00000000000E+00  0.00000000000E+00  0.36766112192E+02  0.36766112192E+02  0.00000000000E+00 0.  1.
          1   -1    0    0  501    0  0.00000000000E+00 -0.00000000000E+00 -0.53780415180E+03  0.53780415180E+03  0.00000000000E+00 0. -1.
         23    2    1    2    0    0 -0.86874776612E+02  0.10070888140E+02 -0.19678726520E+03  0.23421192177E+03  0.92094228675E+02 0.  0.
          5    1    1    2  502    0  0.75831054495E+02 -0.55054101416E+02 -0.13214720221E+03  0.16206873838E+03  0.47000000000E+01 0. -1.
         -5    1    1    2    0  502  0.11043722117E+02  0.44983213276E+02 -0.17210357219E+03  0.17828960384E+03  0.47000000000E+01 0. -1.
        -11    1    3    3    0    0 -0.58196094809E+02 -0.36205468482E+02 -0.13802724264E+03  0.15410756344E+03  0.00000000000E+00 0. -1.
         11    1    3    3    0    0 -0.28678681803E+02  0.46276356622E+02 -0.58760022564E+02  0.80104358333E+02  0.00000000000E+00 0.  1.
<mgrwt>
<rscale>  0 0.14572692E+03</rscale>
<asrwt>0</asrwt>
<pdfrwt beam="2">  1        1 0.82739100E-01 0.15256234E+03</pdfrwt>
<pdfrwt beam="1">  1       -1 0.56563250E-02 0.15256234E+03</pdfrwt>
<totfact> 0.57914048E+03</totfact>
</mgrwt>
</event>
<event>
 7    1  0.1422977E-005  0.1304641E+03  0.7546771E-02  0.1240787E+00
          2   -1    0    0  501    0  0.00000000000E+00  0.00000000000E+00  0.57682274777E+03  0.57682274777E+03  0.00000000000E+00 0. -1.
         -2   -1    0    0    0  501 -0.00000000000E+00 -0.00000000000E+00 -0.37388908128E+02  0.37388908128E+02  0.00000000000E+00 0.  1.
         23    2    1    2    0    0  0.16377912188E+02  0.33572092042E+02  0.54437848922E+02  0.11197466120E+03  0.90440720824E+02 0.  0.
          5    1    1    2  502    0 -0.49295947773E+02 -0.13117587969E+02  0.43868767070E+03  0.44166856806E+03  0.47000000000E+01 0. -1.
         -5    1    1    2    0  502  0.32918035585E+02 -0.20454504073E+02  0.46308320015E+02  0.60568426644E+02  0.47000000000E+01 0. -1.
        -11    1    3    3    0    0  0.16150040366E+02 -0.17478796331E+02  0.56055254717E+02  0.60897649433E+02  0.00000000000E+00 0. -1.
         11    1    3    3    0    0  0.22787182217E+00  0.51050888373E+02 -0.16174057952E+01  0.51077011764E+02  0.00000000000E+00 0.  1.
<mgrwt>
<rscale>  0 0.12141149E+03</rscale>
<asrwt>0</asrwt>
<pdfrwt beam="1">  1        2 0.88741955E-01 0.13046412E+03</pdfrwt>
<pdfrwt beam="2">  1       -2 0.57521401E-02 0.13046412E+03</pdfrwt>
<totfact> 0.79766145E+03</totfact>
</mgrwt>
</event>
<event>
 7    1  0.1422977E-005  0.1353865E+03  0.7546771E-02  0.1231050E+00
          1   -1    0    0  501    0  0.00000000000E+00  0.00000000000E+00  0.42221897508E+03  0.42221897508E+03  0.00000000000E+00 0. -1.
         -1   -1    0    0    0  501 -0.00000000000E+00 -0.00000000000E+00 -0.40560255427E+02  0.40560255427E+02  0.00000000000E+00 0.  1.
         23    2    1    2    0    0  0.46800723446E+02  0.22650404605E+02  0.84473293456E+02  0.13620814372E+03  0.93346518757E+02 0.  0.
          5    1    1    2  502    0 -0.66506488685E+02  0.31768475716E+02  0.12902143611E+03  0.14866395011E+03  0.47000000000E+01 0. -1.
         -5    1    1    2    0  502  0.19705765238E+02 -0.54418880321E+02  0.16816399009E+03  0.17790713668E+03  0.47000000000E+01 0. -1.
        -11    1    3    3    0    0  0.64304325024E+02 -0.10963997614E+01  0.85138968703E+02  0.10670001078E+03  0.00000000000E+00 0. -1.
         11    1    3    3    0    0 -0.17503601578E+02  0.23746804366E+02 -0.66567524685E+00  0.29508132936E+02  0.00000000000E+00 0.  1.
<mgrwt>
<rscale>  0 0.12760717E+03</rscale>
<asrwt>0</asrwt>
<pdfrwt beam="1">  1        1 0.64956762E-01 0.13538647E+03</pdfrwt>
<pdfrwt beam="2">  1       -1 0.62400396E-02 0.13538647E+03</pdfrwt>
<totfact> 0.67993898E+03</totfact>
</mgrwt>
</event>
<event>
 7    1  0.1422977E-005  0.1596485E+03  0.7546771E-02  0.1196774E+00
          1   -1    0    0  501    0  0.00000000000E+00  0.00000000000E+00  0.33663602260E+03  0.33663602260E+03  0.00000000000E+00 0. -1.
         -1   -1    0    0    0  501 -0.00000000000E+00 -0.00000000000E+00 -0.66059448629E+02  0.66059448629E+02  0.00000000000E+00 0.  1.
         23    2    1    2    0    0  0.20888748774E+02 -0.97087989709E+02  0.92449687631E+02  0.16349503939E+03  0.91220971216E+02 0.  0.
          5    1    1    2  502    0 -0.55910924833E+02  0.11366540135E+02  0.11046600150E+03  0.12441887814E+03  0.47000000000E+01 0. -1.
         -5    1    1    2    0  502  0.35022176058E+02  0.85721449574E+02  0.67660884838E+02  0.11478155370E+03  0.47000000000E+01 0. -1.
        -11    1    3    3    0    0  0.18510984993E+02 -0.36437551039E+02  0.94293804137E+02  0.10277000141E+03  0.00000000000E+00 0. -1.
         11    1    3    3    0    0  0.23777637815E+01 -0.60650438670E+02 -0.18441165065E+01  0.60725037975E+02  0.00000000000E+00 0.  1.
<mgrwt>
<rscale>  0 0.15305022E+03</rscale>
<asrwt>0</asrwt>
<pdfrwt beam="1">  1        1 0.51790156E-01 0.15964855E+03</pdfrwt>
<pdfrwt beam="2">  1       -1 0.10162992E-01 0.15964855E+03</pdfrwt>
<totfact> 0.43650241E+03</totfact>
</mgrwt>
</event>
<event>
 7    1  0.1422977E-005  0.1331785E+03  0.7546771E-02  0.1236812E+00
         -1   -1    0    0    0  501 -0.00000000000E+00  0.00000000000E+00  0.56842577884E+02  0.56842577884E+02  0.00000000000E+00 0.  1.
          1   -1    0    0  501    0  0.00000000000E+00 -0.00000000000E+00 -0.24597367088E+03  0.24597367088E+03  0.00000000000E+00 0. -1.
         23    2    1    2    0    0 -0.43995783031E+02  0.13279281720E+02 -0.55440423929E+02  0.11411093561E+03  0.88519471151E+02 0.  0.
          5    1    1    2  502    0  0.56406878775E+02  0.45484971107E+02 -0.66521676528E+02  0.98477621914E+02  0.47000000000E+01 0. -1.
         -5    1    1    2    0  502 -0.12411095745E+02 -0.58764252827E+02 -0.67168992538E+02  0.90227691240E+02  0.47000000000E+01 0. -1.
        -11    1    3    3    0    0 -0.24740268143E+01 -0.25175890524E+02  0.10346199886E+02  0.27331120073E+02  0.00000000000E+00 0.  1.
         11    1    3    3    0    0 -0.41521756217E+02  0.38455172244E+02 -0.65786623815E+02  0.86779815537E+02  0.00000000000E+00 0. -1.
<mgrwt>
<rscale>  0 0.12389124E+03</rscale>
<asrwt>0</asrwt>
<pdfrwt beam="2">  1        1 0.37842104E-01 0.13317845E+03</pdfrwt>
<pdfrwt beam="1">  1       -1 0.87450118E-02 0.13317845E+03</pdfrwt>
<totfact> 0.80124622E+03</totfact>
</mgrwt>
</event>
<event>
 7    1  0.1422977E-005  0.2462817E+03  0.7546771E-02  0.1118081E+00
          1   -1    0    0  501    0  0.00000000000E+00  0.00000000000E+00  0.15161961956E+04  0.15161961956E+04  0.00000000000E+00 0. -1.
         -1   -1    0    0    0  501 -0.00000000000E+00 -0.00000000000E+00 -0.51134046169E+02  0.51134046169E+02  0.00000000000E+00 0.  1.
         23    2    1    2    0    0  0.19404146445E+03 -0.85906848070E+02  0.31455802031E+03  0.39076132495E+03  0.93357316057E+02 0.  0.
          5    1    1    2  502    0 -0.95502218054E+02  0.70067787434E+02  0.34299521857E+03  0.36290216099E+03  0.47000000000E+01 0.  1.
         -5    1    1    2    0  502 -0.98539246399E+02  0.15839060636E+02  0.80750891055E+03  0.81366675583E+03  0.47000000000E+01 0.  1.
        -11    1    3    3    0    0  0.74123223447E+02 -0.75692695729E+02  0.10535624982E+03  0.14941076205E+03  0.00000000000E+00 0.  1.
         11    1    3    3    0    0  0.11991824101E+03 -0.10214152341E+02  0.20920177049E+03  0.24135056289E+03  0.00000000000E+00 0. -1.
<mgrwt>
<rscale>  0 0.24258784E+03</rscale>
<asrwt>0</asrwt>
<pdfrwt beam="1">  1        1 0.23326092E+00 0.24628168E+03</pdfrwt>
<pdfrwt beam="2">  1       -1 0.78667775E-02 0.24628168E+03</pdfrwt>
<totfact> 0.61942451E+02</totfact>
</mgrwt>
</event>
<event>
 7    1  0.1422977E-005  0.1998949E+03  0.7546771E-02  0.1153496E+00
          1   -1    0    0  501    0  0.00000000000E+00  0.00000000000E+00  0.10427137363E+03  0.10427137363E+03  0.00000000000E+00 0. -1.
         -1   -1    0    0    0  501 -0.00000000000E+00 -0.00000000000E+00 -0.35261092368E+03  0.35261092368E+03  0.00000000000E+00 0.  1.
         23    2    1    2    0    0 -0.82300977788E+02 -0.13250402068E+03 -0.12782576249E+03  0.22346946062E+03  0.96272570515E+02 0.  0.
          5    1    1    2  502    0  0.63035139137E+02  0.42774216109E+02 -0.11916086963E+03  0.14150782728E+03  0.47000000000E+01 0. -1.
         -5    1    1    2    0  502  0.19265838651E+02  0.89729804566E+02 -0.13529179243E+01  0.91905009402E+02  0.47000000000E+01 0. -1.
        -11    1    3    3    0    0 -0.90727689362E+02 -0.11458928201E+03 -0.13817220368E+03  0.20113123834E+03  0.00000000000E+00 0.  1.
         11    1    3    3    0    0  0.84267115734E+01 -0.17914738664E+02  0.10346441184E+02  0.22338222278E+02  0.00000000000E+00 0. -1.
<mgrwt>
<rscale>  0 0.19561060E+03</rscale>
<asrwt>0</asrwt>
<pdfrwt beam="1">  1        1 0.16041750E-01 0.19989492E+03</pdfrwt>
<pdfrwt beam="2">  1       -1 0.54247834E-01 0.19989492E+03</pdfrwt>
<totfact> 0.11940924E+03</totfact>
</mgrwt>
</event>
<event>
 6    1  0.1422977E-005  0.1308668E+03  0.7546771E-02  0.1274566E+00
         -3   -1    0    0    0  501 -0.00000000000E+00  0.00000000000E+00  0.20602270491E+03  0.20602270491E+03  0.00000000000E+00 0.  1.
          3   -1    0    0  501    0  0.00000000000E+00 -0.00000000000E+00 -0.40322347485E+02  0.40322347485E+02  0.00000000000E+00 0. -1.
          5    1    1    2  502    0 -0.46063026539E+02  0.42640545075E+02  0.98336607626E+02  0.11675699935E+03  0.47000000000E+01 0. -1.
         -5    1    1    2    0  502  0.50004310567E+02 -0.40798814402E+01  0.62673902290E+01  0.50778407695E+02  0.47000000000E+01 0. -1.
        -11    1    1    2    0    0 -0.52951585311E+00 -0.14793496573E+02  0.18941630446E+01  0.14923665151E+02  0.00000000000E+00 0. -1.
         11    1    1    2    0    0 -0.34117681740E+01 -0.23767167062E+02  0.59202196524E+02  0.63885980195E+02  0.00000000000E+00 0.  1.
<mgrwt>
<rscale>  0 0.10277536E+03</rscale>
<asrwt>0</asrwt>
<pdfrwt beam="2">  1        3 0.62034382E-02 0.13086679E+03</pdfrwt>
<pdfrwt beam="1">  1       -3 0.31695800E-01 0.13086679E+03</pdfrwt>
<totfact> 0.35419073E+03</totfact>
</mgrwt>
</event>
<event>
 7    1  0.1422977E-005  0.2284201E+03  0.7546771E-02  0.1130691E+00
          2   -1    0    0  501    0  0.00000000000E+00  0.00000000000E+00  0.56625213908E+02  0.56625213908E+02  0.00000000000E+00 0. -1.
         -2   -1    0    0    0  501 -0.00000000000E+00 -0.00000000000E+00 -0.10031732742E+04  0.10031732742E+04  0.00000000000E+00 0.  1.
         23    2    1    2    0    0  0.11956719623E+03  0.14919438270E+03 -0.65987144165E+03  0.69324805339E+03  0.92775351113E+02 0.  0.
          5    1    1    2  502    0 -0.24655338936E+02 -0.76956222845E+02 -0.20901695373E+03  0.22414353196E+03  0.47000000000E+01 0.  1.
         -5    1    1    2    0  502 -0.94911857295E+02 -0.72238159855E+02 -0.77659664865E+02  0.14240690272E+03  0.47000000000E+01 0.  1.
        -11    1    3    3    0    0  0.11804251133E+03  0.78742980138E+02 -0.45304972880E+03  0.47475103809E+03  0.00000000000E+00 0.  1.
         11    1    3    3    0    0  0.15246849032E+01  0.70451402563E+02 -0.20682171286E+03  0.21849701530E+03  0.00000000000E+00 0. -1.
<mgrwt>
<rscale>  0 0.22433551E+03</rscale>
<asrwt>0</asrwt>
<pdfrwt beam="1">  1        2 0.87115716E-02 0.22842009E+03</pdfrwt>
<pdfrwt beam="2">  1       -2 0.15433435E+00 0.22842009E+03</pdfrwt>
<totfact> 0.22453592E+02</totfact>
</mgrwt>
</event>
<event>
 7    1  0.1422977E-005  0.1930255E+03  0.7546771E-02  0.1160367E+00
         -1   -1    0    0    0  501 -0.00000000000E+00  0.00000000000E+00  0.10696714679E+03  0.10696714679E+03  0.00000000000E+00 0.  1.
          1   -1    0    0  501    0  0.00000000000E+00 -0.00000000000E+00 -0.41450285409E+03  0.41450285409E+03  0.00000000000E+00 0. -1.
         23    2    1    2    0    0  0.94448185030E+02  0.11275628546E+03 -0.19069500142E+02  0.17437983759E+03  0.91707373503E+02 0.  0.
          5    1    1    2  502    0 -0.91378327478E+02 -0.25542054964E+02 -0.92839322320E+02  0.13282930804E+03  0.47000000000E+01 0. -1.
         -5    1    1    2    0  502 -0.30698575523E+01 -0.87214230499E+02 -0.19562688484E+03  0.21426085526E+03  0.47000000000E+01 0. -1.
        -11    1    3    3    0    0  0.70761984834E+02  0.17756731119E+02 -0.22696568356E+02  0.76404804906E+02  0.00000000000E+00 0. -1.
         11    1    3    3    0    0  0.23686200196E+02  0.94999554344E+02  0.36270682140E+01  0.97975032683E+02  0.00000000000E+00 0.  1.
<mgrwt>
<rscale>  0 0.18790222E+03</rscale>
<asrwt>0</asrwt>
<pdfrwt beam="2">  1        1 0.63769670E-01 0.19302546E+03</pdfrwt>
<pdfrwt beam="1">  1       -1 0.16456484E-01 0.19302546E+03</pdfrwt>
<totfact> 0.15912726E+03</totfact>
</mgrwt>
</event>
<event>
 7    1  0.1422977E-005  0.1816394E+03  0.7546771E-02  0.1172178E+00
          2   -1    0    0  501    0  0.00000000000E+00  0.00000000000E+00  0.18495045222E+03  0.18495045222E+03  0.00000000000E+00 0. -1.
         -2   -1    0    0    0  501 -0.00000000000E+00 -0.00000000000E+00 -0.15676672927E+03  0.15676672927E+03  0.00000000000E+00 0.  1.
         23    2    1    2    0    0  0.10202351052E+03 -0.83419204695E+02  0.46418484882E+01  0.15855854568E+03  0.88043768893E+02 0.  0.
          5    1    1    2  502    0 -0.49864782268E+01 -0.29289663033E+02 -0.78390581656E+01  0.31085208036E+02  0.47000000000E+01 0.  1.
         -5    1    1    2    0  502 -0.97037032290E+02  0.11270886773E+03  0.31380932627E+02  0.15207342777E+03  0.47000000000E+01 0.  1.
        -11    1    3    3    0    0  0.30053448914E+02  0.85556026832E+01  0.24991774934E+02  0.40012459850E+02  0.00000000000E+00 0.  1.
         11    1    3    3    0    0  0.71970061604E+02 -0.91974807378E+02 -0.20349926446E+02  0.11854608583E+03  0.00000000000E+00 0. -1.
<mgrwt>
<rscale>  0 0.17555305E+03</rscale>
<asrwt>0</asrwt>
<pdfrwt beam="1">  1        2 0.28453916E-01 0.18163938E+03</pdfrwt>
<pdfrwt beam="2">  1       -2 0.24117958E-01 0.18163938E+03</pdfrwt>
<totfact> 0.27624063E+03</totfact>
</mgrwt>
</event>
<event>
 7    1  0.1422977E-005  0.1648892E+03  0.7546771E-02  0.1189908E+00
         -2   -1    0    0    0  501 -0.00000000000E+00  0.00000000000E+00  0.19364115099E+03  0.19364115099E+03  0.00000000000E+00 0.  1.
          2   -1    0    0  501    0  0.00000000000E+00 -0.00000000000E+00 -0.12194069261E+03  0.12194069261E+03  0.00000000000E+00 0. -1.
         23    2    1    2    0    0 -0.72695867455E+01 -0.10728471756E+03  0.37606439753E+02  0.14720470093E+03  0.93231551269E+02 0.  0.
          5    1    1    2  502    0 -0.62188471052E+01  0.70274082834E+01  0.62359727383E+02  0.63236730827E+02  0.47000000000E+01 0. -1.
         -5    1    1    2    0  502  0.13488433851E+02  0.10025730928E+03 -0.28265708760E+02  0.10514041185E+03  0.47000000000E+01 0. -1.
        -11    1    3    3    0    0  0.15998249257E+02 -0.11462865286E+03  0.40529811851E+02  0.12263090020E+03  0.00000000000E+00 0.  1.
         11    1    3    3    0    0 -0.23267836003E+02  0.73439352980E+01 -0.29233720982E+01  0.24573800730E+02  0.00000000000E+00 0. -1.
<mgrwt>
<rscale>  0 0.15893176E+03</rscale>
<asrwt>0</asrwt>
<pdfrwt beam="2">  1        2 0.18760107E-01 0.16488924E+03</pdfrwt>
<pdfrwt beam="1">  1       -2 0.29790946E-01 0.16488924E+03</pdfrwt>
<totfact> 0.30149174E+03</totfact>
</mgrwt>
</event>
<event>
 7    1  0.1422977E-005  0.1353436E+03  0.7546771E-02  0.1231173E+00
          2   -1    0    0  501    0  0.00000000000E+00  0.00000000000E+00  0.19182690006E+03  0.19182690006E+03  0.00000000000E+00 0. -1.
         -2   -1    0    0    0  501 -0.00000000000E+00 -0.00000000000E+00 -0.95151524839E+02  0.95151524839E+02  0.00000000000E+00 0.  1.
         23    2    1    2    0    0  0.41041360305E+02  0.31853990606E+02 -0.19697396643E+02  0.10848327443E+03  0.93174907695E+02 0.  0.
          5    1    1    2  502    0 -0.28118799263E+02  0.29089638629E+02 -0.59293768499E+01  0.41159706722E+02  0.47000000000E+01 0.  1.
         -5    1    1    2    0  502 -0.12922561042E+02 -0.60943629235E+02  0.12230214871E+03  0.13733544374E+03  0.47000000000E+01 0.  1.
        -11    1    3    3    0    0  0.16646013743E+02 -0.29576699692E+02 -0.25030582796E+02  0.42171092152E+02  0.00000000000E+00 0.  1.
         11    1    3    3    0    0  0.24395346562E+02  0.61430690298E+02  0.53331861526E+01  0.66312182281E+02  0.00000000000E+00 0. -1.
<mgrwt>
<rscale>  0 0.12752612E+03</rscale>
<asrwt>0</asrwt>
<pdfrwt beam="1">  1        2 0.29511831E-01 0.13534362E+03</pdfrwt>
<pdfrwt beam="2">  1       -2 0.14638696E-01 0.13534362E+03</pdfrwt>
<totfact> 0.60614814E+03</totfact>
</mgrwt>
</event>
<event>
 7    1  0.1422977E-005  0.1610591E+03  0.7546771E-02  0.1194782E+00
         -1   -1    0    0    0  501 -0.00000000000E+00  0.00000000000E+00  0.98604292042E+02  0.98604292042E+02  0.00000000000E+00 0. -1.
          1   -1    0    0  501    0  0.00000000000E+00 -0.00000000000E+00 -0.22552597960E+03  0.22552597960E+03  0.00000000000E+00 0.  1.
         23    2    1    2    0    0 -0.73897776351E+02 -0.69672338012E+02 -0.57764318221E+02  0.14885112115E+03  0.92221601459E+02 0.  0.
          5    1    1    2  502    0  0.53237901389E+02  0.10574568398E+03 -0.43581937749E+02  0.12624539248E+03  0.47000000000E+01 0.  1.
         -5    1    1    2    0  502  0.20659874962E+02 -0.36073345970E+02 -0.25575431585E+02  0.49033758001E+02  0.47000000000E+01 0.  1.
        -11    1    3    3    0    0  0.17885571009E+02 -0.31641201269E+02 -0.60481587180E+01  0.36846159799E+02  0.00000000000E+00 0. -1.
         11    1    3    3    0    0 -0.91783347360E+02 -0.38031136744E+02 -0.51716159503E+02  0.11200496136E+03  0.00000000000E+00 0.  1.
<mgrwt>
<rscale>  0 0.15472706E+03</rscale>
<asrwt>0</asrwt>
<pdfrwt beam="2">  1        1 0.34696304E-01 0.16105912E+03</pdfrwt>
<pdfrwt beam="1">  1       -1 0.15169891E-01 0.16105912E+03</pdfrwt>
<totfact> 0.38583643E+03</totfact>
</mgrwt>
</event>
<event>
 7    1  0.1422977E-005  0.1331403E+03  0.7546771E-02  0.1235562E+00
          2   -1    0    0  501    0  0.00000000000E+00  0.00000000000E+00  0.72521200450E+03  0.72521200450E+03  0.00000000000E+00 0. -1.
         -2   -1    0    0    0  501 -0.00000000000E+00 -0.00000000000E+00 -0.26356205138E+02  0.26356205138E+02  0.00000000000E+00 0.  1.
         23    2    1    2    0    0  0.41518069416E+02  0.19443397231E+02  0.12074910080E+03  0.15832820639E+03  0.91573357548E+02 0.  0.
          5    1    1    2  502    0 -0.59853395020E+01  0.22517041271E+02  0.16513059199E+02  0.28941536943E+02  0.47000000000E+01 0.  1.
         -5    1    1    2    0  502 -0.35532729914E+02 -0.41960438502E+02  0.56159363937E+03  0.56429846630E+03  0.47000000000E+01 0.  1.
        -11    1    3    3    0    0  0.21240469692E+02  0.55242059962E+02  0.55166186629E+02  0.80908286898E+02  0.00000000000E+00 0.  1.
         11    1    3    3    0    0  0.20277599724E+02 -0.35798662731E+02  0.65582914167E+02  0.77419919495E+02  0.00000000000E+00 0. -1.
<mgrwt>
<rscale>  0 0.12468554E+03</rscale>
<asrwt>0</asrwt>
<pdfrwt beam="1">  1        2 0.11157106E+00 0.13314033E+03</pdfrwt>
<pdfrwt beam="2">  1       -2 0.40548014E-02 0.13314033E+03</pdfrwt>
<totfact> 0.10340521E+04</totfact>
</mgrwt>
</event>
<event>
 7    1  0.1422977E-005  0.2127196E+03  0.7546771E-02  0.1143094E+00
          1   -1    0    0  501    0  0.00000000000E+00  0.00000000000E+00  0.20876267303E+03  0.20876267303E+03  0.00000000000E+00 0. -1.
         -1   -1    0    0    0  501 -0.00000000000E+00 -0.00000000000E+00 -0.36213244774E+03  0.36213244774E+03  0.00000000000E+00 0.  1.
         23    2    1    2    0    0  0.17051448674E+03 -0.23431802263E+02 -0.26640425164E+03  0.33000837694E+03  0.91159552509E+02 0.  0.
          5    1    1    2  502    0 -0.46586563221E+02  0.40793145908E+02 -0.12748841206E+02  0.63395674757E+02  0.47000000000E+01 0. -1.
         -5    1    1    2    0  502 -0.12392792352E+03 -0.17361343644E+02  0.12578331813E+03  0.17749106907E+03  0.47000000000E+01 0. -1.
        -11    1    3    3    0    0  0.96473658215E+02 -0.25139952891E+02 -0.22274245346E+03  0.24403562145E+03  0.00000000000E+00 0.  1.
         11    1    3    3    0    0  0.74040828522E+02  0.17081506278E+01 -0.43661798179E+02  0.85972755493E+02  0.00000000000E+00 0. -1.
<mgrwt>
<rscale>  0 0.20808207E+03</rscale>
<asrwt>0</asrwt>
<pdfrwt beam="1">  1        1 0.32117335E-01 0.21271961E+03</pdfrwt>
<pdfrwt beam="2">  1       -1 0.55712684E-01 0.21271961E+03</pdfrwt>
<totfact> 0.46800578E+02</totfact>
</mgrwt>
</event>
<event>
 7    1  0.1422977E-005  0.1901713E+03  0.7546771E-02  0.1163172E+00
         -2   -1    0    0    0  501 -0.00000000000E+00  0.00000000000E+00  0.37895995710E+02  0.37895995710E+02  0.00000000000E+00 0. -1.
          2   -1    0    0  501    0  0.00000000000E+00 -0.00000000000E+00 -0.93713264456E+03  0.93713264456E+03  0.00000000000E+00 0.  1.
         23    2    1    2    0    0  0.56229833971E+02  0.13183751895E+03 -0.28232660409E+03  0.32947220639E+03  0.91108165260E+02 0.  0.
          5    1    1    2  502    0  0.51547590847E+01 -0.27775089558E+02 -0.16412683085E+02  0.33007473506E+02  0.47000000000E+01 0. -1.
         -5    1    1    2    0  502 -0.61384593056E+02 -0.10406242939E+03 -0.60049736167E+03  0.61254896037E+03  0.47000000000E+01 0. -1.
        -11    1    3    3    0    0  0.62654061564E+02  0.62371034529E+02 -0.21523134281E+03  0.23268048545E+03  0.00000000000E+00 0.  1.
         11    1    3    3    0    0 -0.64242275927E+01  0.69466484418E+02 -0.67095261274E+02  0.96791720943E+02  0.00000000000E+00 0. -1.
<mgrwt>
<rscale>  0 0.18486934E+03</rscale>
<asrwt>0</asrwt>
<pdfrwt beam="2">  1        2 0.14417425E+00 0.19017125E+03</pdfrwt>
<pdfrwt beam="1">  1       -2 0.58301533E-02 0.19017125E+03</pdfrwt>
<totfact> 0.43947547E+03</totfact>
</mgrwt>
</event>
<event>
 7    1  0.1422977E-005  0.1580830E+03  0.7546771E-02  0.1202731E+00
         -2   -1    0    0    0  501 -0.00000000000E+00  0.00000000000E+00  0.28232284846E+03  0.28232284846E+03  0.00000000000E+00 0.  1.
          2   -1    0    0  501    0  0.00000000000E+00 -0.00000000000E+00 -0.11528793382E+03  0.11528793382E+03  0.00000000000E+00 0. -1.
         23    2    1    2    0    0  0.77769223947E+02 -0.18034520421E+02  0.20172760652E+03  0.23576575972E+03  0.92293933188E+02 0.  0.
          5    1    1    2  502    0 -0.82823685335E+02  0.25651828191E+02 -0.78373371202E+02  0.11697116934E+03  0.47000000000E+01 0. -1.
         -5    1    1    2    0  502  0.50544613883E+01 -0.76173077706E+01  0.43680679325E+02  0.44873853232E+02  0.47000000000E+01 0.  1.
        -11    1    3    3    0    0  0.55496921290E+02 -0.25653287655E+02  0.20318216893E+03  0.21218151006E+03  0.00000000000E+00 0.  1.
         11    1    3    3    0    0  0.22272302657E+02  0.76187672347E+01 -0.14545624171E+01  0.23584249652E+02  0.00000000000E+00 0. -1.
<mgrwt>
<rscale>  0 0.14817707E+03</rscale>
<asrwt>0</asrwt>
<pdfrwt beam="2">  1        2 0.17736605E-01 0.15808298E+03</pdfrwt>
<pdfrwt beam="1">  1       -2 0.43434284E-01 0.15808298E+03</pdfrwt>
<totfact> 0.15898864E+03</totfact>
</mgrwt>
</event>
<event>
 7    1  0.1422977E-005  0.1253280E+03  0.7546771E-02  0.1251132E+00
          3   -1    0    0  501    0  0.00000000000E+00  0.00000000000E+00  0.49568236379E+03  0.49568236379E+03  0.00000000000E+00 0. -1.
         -3   -1    0    0    0  501 -0.00000000000E+00 -0.00000000000E+00 -0.28267577840E+02  0.28267577840E+02  0.00000000000E+00 0.  1.
         23    2    1    2    0    0  0.82067238758E+01 -0.35110829805E+01  0.93245098812E+02  0.12934879554E+03  0.89200809612E+02 0.  0.
          5    1    1    2  502    0  0.19709308686E+02 -0.27430006330E+02  0.23458511194E+02  0.41391470662E+02  0.47000000000E+01 0. -1.
         -5    1    1    2    0  502 -0.27916032561E+02  0.30941089311E+02  0.35071117595E+03  0.35320967543E+03  0.47000000000E+01 0. -1.
        -11    1    3    3    0    0  0.19162321179E+02 -0.14053667000E+02  0.10653609302E+03  0.10915419930E+03  0.00000000000E+00 0. -1.
         11    1    3    3    0    0 -0.10955597303E+02  0.10542584020E+02 -0.13290994212E+02  0.20194596238E+02  0.00000000000E+00 0.  1.
<mgrwt>
<rscale>  0 0.11525751E+03</rscale>
<asrwt>0</asrwt>
<pdfrwt beam="1">  1        3 0.76258819E-01 0.12532801E+03</pdfrwt>
<pdfrwt beam="2">  1       -3 0.43488585E-02 0.12532801E+03</pdfrwt>
<totfact> 0.10729721E+03</totfact>
</mgrwt>
</event>
<event>
 7    1  0.1422977E-005  0.1299996E+03  0.7546771E-02  0.1242080E+00
         -1   -1    0    0    0  501 -0.00000000000E+00  0.00000000000E+00  0.81385322945E+02  0.81385322945E+02  0.00000000000E+00 0.  1.
          1   -1    0    0  501    0  0.00000000000E+00 -0.00000000000E+00 -0.15908174882E+03  0.15908174882E+03  0.00000000000E+00 0. -1.
         23    2    1    2    0    0 -0.25592015934E+02 -0.24891800253E+02 -0.20818843419E+02  0.98569393256E+02  0.89487138998E+02 0.  0.
          5    1    1    2  502    0 -0.25650975921E+02  0.97760707650E+01  0.29280749864E+02  0.40410350628E+02  0.47000000000E+01 0.  1.
         -5    1    1    2    0  502  0.51242991855E+02  0.15115729488E+02 -0.86158332317E+02  0.10148732788E+03  0.47000000000E+01 0.  1.
        -11    1    3    3    0    0 -0.39598031542E+01  0.22274563516E+02 -0.37729770009E+02  0.43992860395E+02  0.00000000000E+00 0. -1.
         11    1    3    3    0    0 -0.21632212780E+02 -0.47166363769E+02  0.16910926590E+02  0.54576532861E+02  0.00000000000E+00 0.  1.
<mgrwt>
<rscale>  0 0.12061869E+03</rscale>
<asrwt>0</asrwt>
<pdfrwt beam="2">  1        1 0.24474115E-01 0.12999958E+03</pdfrwt>
<pdfrwt beam="1">  1       -1 0.12520819E-01 0.12999958E+03</pdfrwt>
<totfact> 0.79420355E+03</totfact>
</mgrwt>
</event>
<event>
 7    1  0.1422977E-005  0.1543657E+03  0.7546771E-02  0.1203183E+00
         -1   -1    0    0    0  501 -0.00000000000E+00  0.00000000000E+00  0.12761491502E+02  0.12761491502E+02  0.00000000000E+00 0.  1.
          1   -1    0    0  501    0  0.00000000000E+00 -0.00000000000E+00 -0.16570878846E+04  0.16570878846E+04  0.00000000000E+00 0. -1.
         23    2    1    2    0    0  0.63844244157E+02  0.64245995000E+02 -0.57692387190E+03  0.59134258401E+03  0.92958390213E+02 0.  0.
          5    1    1    2  502    0 -0.88458917155E+02 -0.92151917206E+01 -0.76106826051E+03  0.76626163087E+03  0.47000000000E+01 0.  1.
         -5    1    1    2    0  502  0.24614672998E+02 -0.55030803279E+02 -0.30633426069E+03  0.31224516122E+03  0.47000000000E+01 0.  1.
        -11    1    3    3    0    0  0.61772530208E+02  0.78739576802E+02 -0.56039765580E+03  0.56926382203E+03  0.00000000000E+00 0. -1.
         11    1    3    3    0    0  0.20717139488E+01 -0.14493581802E+02 -0.16526216101E+02  0.22078761985E+02  0.00000000000E+00 0.  1.
<mgrwt>
<rscale>  0 0.14781604E+03</rscale>
<asrwt>0</asrwt>
<pdfrwt beam="2">  1        1 0.25493642E+00 0.15436566E+03</pdfrwt>
<pdfrwt beam="1">  1       -1 0.19633077E-02 0.15436566E+03</pdfrwt>
<totfact> 0.39389973E+03</totfact>
</mgrwt>
</event>
<event>
 7    1  0.1422977E-005  0.1409342E+03  0.7546771E-02  0.1223119E+00
          2   -1    0    0  501    0  0.00000000000E+00  0.00000000000E+00  0.12405500003E+03  0.12405500003E+03  0.00000000000E+00 0. -1.
         -2   -1    0    0    0  501 -0.00000000000E+00 -0.00000000000E+00 -0.13284153098E+03  0.13284153098E+03  0.00000000000E+00 0.  1.
         23    2    1    2    0    0 -0.64348148495E+02  0.98523496674E+01 -0.26737984885E+02  0.11482362332E+03  0.90729221462E+02 0.  0.
          5    1    1    2  502    0  0.13833961869E+02  0.53451703135E+02  0.24699881324E+02  0.60668255344E+02  0.47000000000E+01 0.  1.
         -5    1    1    2    0  502  0.50514186626E+02 -0.63304052802E+02 -0.67484273852E+01  0.81404652348E+02  0.47000000000E+01 0.  1.
        -11    1    3    3    0    0 -0.39312503374E+02 -0.37478761132E+02 -0.28321830026E+02  0.61255665155E+02  0.00000000000E+00 0.  1.
         11    1    3    3    0    0 -0.25035645121E+02  0.47331110800E+02  0.15838451414E+01  0.53567958162E+02  0.00000000000E+00 0. -1.
<mgrwt>
<rscale>  0 0.13296694E+03</rscale>
<asrwt>0</asrwt>
<pdfrwt beam="1">  1        2 0.19085385E-01 0.14093423E+03</pdfrwt>
<pdfrwt beam="2">  1       -2 0.20437159E-01 0.14093423E+03</pdfrwt>
<totfact> 0.56619807E+03</totfact>
</mgrwt>
</event>
<event>
 7    1  0.1422977E-005  0.1673779E+03  0.7546771E-02  0.1187341E+00
         -1   -1    0    0    0  501 -0.00000000000E+00  0.00000000000E+00  0.72966403652E+02  0.72966403652E+02  0.00000000000E+00 0.  1.
          1   -1    0    0  501    0  0.00000000000E+00 -0.00000000000E+00 -0.40652340412E+03  0.40652340412E+03  0.00000000000E+00 0. -1.
         23    2    1    2    0    0 -0.26217266931E+02  0.10818573297E+03 -0.54316693909E+02  0.15392798699E+03  0.91389408772E+02 0.  0.
          5    1    1    2  502    0  0.18881198145E+02 -0.69496175764E+02 -0.27655085151E+03  0.28581231877E+03  0.47000000000E+01 0. -1.
         -5    1    1    2    0  502  0.73360687854E+01 -0.38689557211E+02 -0.26894550517E+01  0.39749502020E+02  0.47000000000E+01 0. -1.
        -11    1    3    3    0    0 -0.51529128266E+02  0.91140577849E+02 -0.17570752667E+02  0.10616302247E+03  0.00000000000E+00 0.  1.
         11    1    3    3    0    0  0.25311861335E+02  0.17045155125E+02 -0.36745941242E+02  0.47764964516E+02  0.00000000000E+00 0. -1.
<mgrwt>
<rscale>  0 0.16120698E+03</rscale>
<asrwt>0</asrwt>
<pdfrwt beam="2">  1        1 0.62542062E-01 0.16737787E+03</pdfrwt>
<pdfrwt beam="1">  1       -1 0.11225601E-01 0.16737787E+03</pdfrwt>
<totfact> 0.29588894E+03</totfact>
</mgrwt>
</event>
<event>
 7    1  0.1422977E-005  0.4005790E+03  0.7546771E-02  0.1083508E+00
         -2   -1    0    0    0  501 -0.00000000000E+00  0.00000000000E+00  0.25347260460E+03  0.25347260460E+03  0.00000000000E+00 0.  1.
          2   -1    0    0  501    0  0.00000000000E+00 -0.00000000000E+00 -0.28154653811E+03  0.28154653811E+03  0.00000000000E+00 0. -1.
         23    2    1    2    0    0 -0.74811894803E+02  0.60607112384E+02  0.11533633262E+02  0.13248679322E+03  0.90275600287E+02 0.  0.
          5    1    1    2  502    0  0.21855114636E+03  0.39172056999E+02 -0.48306005247E+02  0.22727651389E+03  0.47000000000E+01 0. -1.
         -5    1    1    2    0  502 -0.14373925155E+03 -0.99779169383E+02  0.86984384722E+01  0.17525583560E+03  0.47000000000E+01 0.  1.
        -11    1    3    3    0    0 -0.14912547950E+02 -0.18669477854E+02  0.22122264118E+02  0.32562678935E+02  0.00000000000E+00 0.  1.
         11    1    3    3    0    0 -0.59899346853E+02  0.79276590238E+02 -0.10588630856E+02  0.99924114290E+02  0.00000000000E+00 0. -1.
<mgrwt>
<rscale>  0 0.30349133E+03</rscale>
<asrwt>0</asrwt>
<pdfrwt beam="2">  1        2 0.43314852E-01 0.40057900E+03</pdfrwt>
<pdfrwt beam="1">  1       -2 0.38995785E-01 0.40057900E+03</pdfrwt>
<totfact> 0.73609231E+02</totfact>
</mgrwt>
</event>
<event>
 7    1  0.1422977E-005  0.2372111E+03  0.7546771E-02  0.1139223E+00
         -1   -1    0    0    0  501 -0.00000000000E+00  0.00000000000E+00  0.36920927540E+02  0.36920927540E+02  0.00000000000E+00 0.  1.
          1   -1    0    0  501    0  0.00000000000E+00 -0.00000000000E+00 -0.14399697983E+04  0.14399697983E+04  0.00000000000E+00 0. -1.
         23    2    1    2    0    0 -0.71703863773E+02  0.10109075909E+03 -0.21015838290E+03  0.26064369902E+03  0.91694090767E+02 0.  0.
          5    1    1    2  502    0  0.12035033059E+03 -0.13121362174E+03 -0.96015724564E+03  0.97653737407E+03  0.47000000000E+01 0. -1.
         -5    1    1    2    0  502 -0.48646466816E+02  0.30122862646E+02 -0.23273324221E+03  0.23970965274E+03  0.47000000000E+01 0.  1.
        -11    1    3    3    0    0 -0.75684396022E+02  0.11548626392E+03 -0.19797212259E+03  0.24136728502E+03  0.00000000000E+00 0.  1.
         11    1    3    3    0    0  0.39805322488E+01 -0.14395504831E+02 -0.12186260317E+02  0.19276414004E+02  0.00000000000E+00 0. -1.
<mgrwt>
<rscale>  0 0.21298632E+03</rscale>
<asrwt>0</asrwt>
<pdfrwt beam="2">  1        1 0.22153382E+00 0.23721112E+03</pdfrwt>
<pdfrwt beam="1">  1       -1 0.56801427E-02 0.23721112E+03</pdfrwt>
<totfact> 0.11416834E+03</totfact>
</mgrwt>
</event>
<event>
 7    1  0.1422977E-005  0.2046610E+03  0.7546771E-02  0.1149698E+00
         -1   -1    0    0    0  501 -0.00000000000E+00  0.00000000000E+00  0.56185928055E+02  0.56185928055E+02  0.00000000000E+00 0.  1.
          1   -1    0    0  501    0  0.00000000000E+00 -0.00000000000E+00 -0.68318819933E+03  0.68318819933E+03  0.00000000000E+00 0. -1.
         23    2    1    2    0    0 -0.12609536406E+03  0.10179072071E+03 -0.28342787451E+03  0.33946228366E+03  0.92961768025E+02 0.  0.
          5    1    1    2  502    0  0.92208270202E+02 -0.30179742655E+02 -0.28549401356E+03  0.30156608520E+03  0.47000000000E+01 0. -1.
         -5    1    1    2    0  502  0.33887093861E+02 -0.71610978055E+02 -0.58080383200E+02  0.98345758531E+02  0.47000000000E+01 0. -1.
        -11    1    3    3    0    0 -0.74202864221E+01  0.29289193930E+02 -0.85403417869E+01  0.31398327495E+02  0.00000000000E+00 0.  1.
         11    1    3    3    0    0 -0.11867507764E+03  0.72501526781E+02 -0.27488753272E+03  0.30806395616E+03  0.00000000000E+00 0. -1.
<mgrwt>
<rscale>  0 0.20004816E+03</rscale>
<asrwt>0</asrwt>
<pdfrwt beam="2">  1        1 0.10510588E+00 0.20466098E+03</pdfrwt>
<pdfrwt beam="1">  1       -1 0.86439886E-02 0.20466098E+03</pdfrwt>
<totfact> 0.22176087E+03</totfact>
</mgrwt>
</event>
<event>
 6    1  0.1422977E-005  0.1599641E+03  0.7546771E-02  0.1206295E+00
          1   -1    0    0  501    0  0.00000000000E+00  0.00000000000E+00  0.15222858896E+03  0.15222858896E+03  0.00000000000E+00 0. -1.
         -1   -1    0    0    0  501 -0.00000000000E+00 -0.00000000000E+00 -0.16264162807E+03  0.16264162807E+03  0.00000000000E+00 0.  1.
          5    1    1    2  502    0  0.12762462690E+02 -0.17589151378E+02  0.92716416400E+02  0.95345071032E+02  0.47000000000E+01 0.  1.
         -5    1    1    2    0  502  0.23289683484E+02 -0.75512291711E+02 -0.18039766653E+02  0.81191371076E+02  0.47000000000E+01 0.  1.
        -11    1    1    2    0    0 -0.25258740234E+02  0.36448796167E+02 -0.61965854001E+02  0.76198987935E+02  0.00000000000E+00 0. -1.
         11    1    1    2    0    0 -0.10793405940E+02  0.56652646922E+02 -0.23123834863E+02  0.62134786987E+02  0.00000000000E+00 0.  1.
<mgrwt>
<rscale>  0 0.14535900E+03</rscale>
<asrwt>0</asrwt>
<pdfrwt beam="1">  1        1 0.23419783E-01 0.15996410E+03</pdfrwt>
<pdfrwt beam="2">  1       -1 0.25021789E-01 0.15996410E+03</pdfrwt>
<totfact> 0.28211773E+03</totfact>
</mgrwt>
</event>
<event>
 7    1  0.1422977E-005  0.1508242E+03  0.7546771E-02  0.1211094E+00
          2   -1    0    0  501    0  0.00000000000E+00  0.00000000000E+00  0.83350703694E+02  0.83350703694E+02  0.00000000000E+00 0. -1.
         -2   -1    0    0    0  501 -0.00000000000E+00 -0.00000000000E+00 -0.24186722414E+03  0.24186722414E+03  0.00000000000E+00 0.  1.
         23    2    1    2    0    0 -0.51425066753E+02 -0.56334467917E+02 -0.12344033525E+03  0.17036874021E+03  0.89274192834E+02 0.  0.
          5    1    1    2  502    0  0.52018577121E+02  0.94786900216E+02 -0.99706991862E+01  0.10868299619E+03  0.47000000000E+01 0. -1.
         -5    1    1    2    0  502 -0.59351036751E+00 -0.38452432299E+02 -0.25105486008E+02  0.46166191439E+02  0.47000000000E+01 0.  1.
        -11    1    3    3    0    0 -0.43718314181E+02 -0.30399959869E+02 -0.10553045693E+02  0.54284577259E+02  0.00000000000E+00 0. -1.
         11    1    3    3    0    0 -0.77067525723E+01 -0.25934508048E+02 -0.11288728956E+03  0.11608416295E+03  0.00000000000E+00 0.  1.
<mgrwt>
<rscale>  0 0.14167423E+03</rscale>
<asrwt>0</asrwt>
<pdfrwt beam="1">  1        2 0.12823185E-01 0.15082418E+03</pdfrwt>
<pdfrwt beam="2">  1       -2 0.37210342E-01 0.15082418E+03</pdfrwt>
<totfact> 0.31144727E+03</totfact>
</mgrwt>
</event>
<event>
 7    1  0.1422977E-005  0.1406789E+03  0.7546771E-02  0.1223766E+00
          3   -1    0    0  501    0  0.00000000000E+00  0.00000000000E+00  0.24245273400E+03  0.24245273400E+03  0.00000000000E+00 0. -1.
         -3   -1    0    0    0  501 -0.00000000000E+00 -0.00000000000E+00 -0.71457863257E+02  0.71457863257E+02  0.00000000000E+00 0.  1.
         23    2    1    2    0    0  0.61826655794E+02  0.18559218822E+02  0.30051991439E+02  0.11477381404E+03  0.90016255365E+02 0.  0.
          5    1    1    2  502    0 -0.28256874974E+02  0.27531017481E+02  0.13602990254E+03  0.14171320437E+03  0.47000000000E+01 0.  1.
         -5    1    1    2    0  502 -0.33569780820E+02 -0.46090236303E+02  0.49129767599E+01  0.57423578845E+02  0.47000000000E+01 0.  1.
        -11    1    3    3    0    0  0.50648750728E+02  0.48363129416E+02 -0.13730035531E+01  0.70044081663E+02  0.00000000000E+00 0.  1.
         11    1    3    3    0    0  0.11177905066E+02 -0.29803910593E+02  0.31424994992E+02  0.44729732378E+02  0.00000000000E+00 0. -1.
<mgrwt>
<rscale>  0 0.13251864E+03</rscale>
<asrwt>0</asrwt>
<pdfrwt beam="1">  1        3 0.37300420E-01 0.14067894E+03</pdfrwt>
<pdfrwt beam="2">  1       -3 0.10993518E-01 0.14067894E+03</pdfrwt>
<totfact> 0.10379632E+03</totfact>
</mgrwt>
</event>
<event>
 7    1  0.1422977E-005  0.1489369E+03  0.7546771E-02  0.1211011E+00
         -1   -1    0    0    0  501 -0.00000000000E+00  0.00000000000E+00  0.10368444575E+03  0.10368444575E+03  0.00000000000E+00 0.  1.
          1   -1    0    0  501    0  0.00000000000E+00 -0.00000000000E+00 -0.19599211360E+03  0.19599211360E+03  0.00000000000E+00 0. -1.
         23    2    1    2    0    0 -0.50159658951E+02  0.63569186862E+02  0.41565002130E+01  0.12222924630E+03  0.91464087226E+02 0.  0.
          5    1    1    2  502    0  0.82485176376E+02 -0.21705222032E+02 -0.89784923956E+02  0.12392878421E+03  0.47000000000E+01 0. -1.
         -5    1    1    2    0  502 -0.32325517425E+02 -0.41863964829E+02 -0.66792441093E+01  0.53518528847E+02  0.47000000000E+01 0. -1.
        -11    1    3    3    0    0 -0.47394614178E+01  0.69402130215E+02 -0.17263648828E+02  0.71673926527E+02  0.00000000000E+00 0. -1.
         11    1    3    3    0    0 -0.45420197533E+02 -0.58329433539E+01  0.21420149041E+02  0.50555319770E+02  0.00000000000E+00 0.  1.
<mgrwt>
<rscale>  0 0.14173686E+03</rscale>
<asrwt>0</asrwt>
<pdfrwt beam="2">  1        1 0.30152633E-01 0.14893694E+03</pdfrwt>
<pdfrwt beam="1">  1       -1 0.15951453E-01 0.14893694E+03</pdfrwt>
<totfact> 0.42282722E+03</totfact>
</mgrwt>
</event>
<event>
 7    1  0.1422977E-005  0.1382575E+03  0.7546771E-02  0.1228243E+00
          1   -1    0    0  501    0  0.00000000000E+00  0.00000000000E+00  0.10526560371E+04  0.10526560371E+04  0.00000000000E+00 0. -1.
         -1   -1    0    0    0  501 -0.00000000000E+00 -0.00000000000E+00 -0.14474989746E+02  0.14474989746E+02  0.00000000000E+00 0.  1.
         23    2    1    2    0    0 -0.21597042187E+02 -0.55001633857E+02  0.38053561073E+03  0.39510971414E+03  0.88389610334E+02 0.  0.
          5    1    1    2  502    0 -0.44952755694E+01  0.92273542943E+02  0.44477609897E+03  0.45429338807E+03  0.47000000000E+01 0.  1.
         -5    1    1    2    0  502  0.26092317757E+02 -0.37271909086E+02  0.21286933762E+03  0.21772792460E+03  0.47000000000E+01 0.  1.
        -11    1    3    3    0    0 -0.55748695553E+02 -0.39300368038E+02  0.22601740606E+03  0.23608537402E+03  0.00000000000E+00 0. -1.
         11    1    3    3    0    0  0.34151653366E+02 -0.15701265820E+02  0.15451820467E+03  0.15902434012E+03  0.00000000000E+00 0.  1.
<mgrwt>
<rscale>  0 0.12947087E+03</rscale>
<asrwt>0</asrwt>
<pdfrwt beam="1">  1        1 0.16194702E+00 0.13825746E+03</pdfrwt>
<pdfrwt beam="2">  1       -1 0.22269223E-02 0.13825746E+03</pdfrwt>
<totfact> 0.82945438E+03</totfact>
</mgrwt>
</event>
<event>
 7    1  0.1422977E-005  0.1505330E+03  0.7546771E-02  0.1210162E+00
         -1   -1    0    0    0  501 -0.00000000000E+00  0.00000000000E+00  0.32254608456E+03  0.32254608456E+03  0.00000000000E+00 0.  1.
          1   -1    0    0  501    0  0.00000000000E+00 -0.00000000000E+00 -0.73249858725E+02  0.73249858725E+02  0.00000000000E+00 0. -1.
         23    2    1    2    0    0 -0.40130115951E+02 -0.73639243997E+02  0.20687726016E+03  0.23940041886E+03  0.86493903365E+02 0.  0.
          5    1    1    2  502    0 -0.22051918955E+02  0.49927013464E+02 -0.26169618579E+02  0.60711883018E+02  0.47000000000E+01 0.  1.
         -5    1    1    2    0  502  0.62182034906E+02  0.23712230533E+02  0.68588584259E+02  0.95683641405E+02  0.47000000000E+01 0.  1.
        -11    1    3    3    0    0 -0.10812802642E+02 -0.71565602763E+02  0.74768743194E+02  0.10406208319E+03  0.00000000000E+00 0. -1.
         11    1    3    3    0    0 -0.29317313309E+02 -0.20736412339E+01  0.13210851697E+03  0.13533833567E+03  0.00000000000E+00 0.  1.
<mgrwt>
<rscale>  0 0.14237986E+03</rscale>
<asrwt>0</asrwt>
<pdfrwt beam="2">  1        1 0.11269209E-01 0.15053302E+03</pdfrwt>
<pdfrwt beam="1">  1       -1 0.49622473E-01 0.15053302E+03</pdfrwt>
<totfact> 0.22180322E+03</totfact>
</mgrwt>
</event>
<event>
 7    1  0.1422977E-005  0.1429867E+03  0.7546771E-02  0.1224735E+00
          1   -1    0    0  501    0  0.00000000000E+00  0.00000000000E+00  0.75572241068E+03  0.75572241068E+03  0.00000000000E+00 0. -1.
         -1   -1    0    0    0  501 -0.00000000000E+00 -0.00000000000E+00 -0.23820193230E+02  0.23820193230E+02  0.00000000000E+00 0.  1.
         23    2    1    2    0    0 -0.12347668651E+02 -0.46100714027E+02  0.16358821072E+03  0.19351701004E+03  0.91705996183E+02 0.  0.
          5    1    1    2  502    0 -0.33713378601E+01  0.53865042788E+02  0.56497931960E+03  0.56757072716E+03  0.47000000000E+01 0. -1.
         -5    1    1    2    0  502  0.15719006511E+02 -0.77643287607E+01  0.33346871319E+01  0.18454866704E+02  0.47000000000E+01 0.  1.
        -11    1    3    3    0    0 -0.35472855567E+02 -0.64248164012E+02  0.12578574293E+03  0.14563036491E+03  0.00000000000E+00 0.  1.
         11    1    3    3    0    0  0.23125186916E+02  0.18147449985E+02  0.37802467792E+02  0.47886645132E+02  0.00000000000E+00 0. -1.
<mgrwt>
<rscale>  0 0.13185067E+03</rscale>
<asrwt>0</asrwt>
<pdfrwt beam="1">  1        1 0.11626497E+00 0.14298667E+03</pdfrwt>
<pdfrwt beam="2">  1       -1 0.36646457E-02 0.14298667E+03</pdfrwt>
<totfact> 0.68226673E+03</totfact>
</mgrwt>
</event>
<event>
 6    1  0.1422977E-005  0.1212487E+03  0.7546771E-02  0.1303168E+00
         -2   -1    0    0    0  501 -0.00000000000E+00  0.00000000000E+00  0.87002136235E+01  0.87002136235E+01  0.00000000000E+00 0.  1.
          2   -1    0    0  501    0  0.00000000000E+00 -0.00000000000E+00 -0.97237301218E+03  0.97237301218E+03  0.00000000000E+00 0. -1.
          5    1    1    2  502    0  0.52339838962E+02  0.17701232493E+02 -0.73401342885E+03  0.73610501704E+03  0.47000000000E+01 0. -1.
         -5    1    1    2    0  502 -0.22973705960E+02 -0.38117480033E+02 -0.16174263434E+03  0.16781985345E+03  0.47000000000E+01 0.  1.
        -11    1    1    2    0    0 -0.15906000484E+02  0.15645549511E+02 -0.41910477210E+02  0.47479176182E+02  0.00000000000E+00 0.  1.
         11    1    1    2    0    0 -0.13460132518E+02  0.47706980286E+01 -0.26006258153E+02  0.29669179129E+02  0.00000000000E+00 0. -1.
<mgrwt>
<rscale>  0 0.89869622E+02</rscale>
<asrwt>0</asrwt>
<pdfrwt beam="2">  1        2 0.14959574E+00 0.12124870E+03</pdfrwt>
<pdfrwt beam="1">  1       -2 0.13384954E-02 0.12124870E+03</pdfrwt>
<totfact> 0.35582697E+04</totfact>
</mgrwt>
</event>
<event>
 7    1  0.1422977E-005  0.1303603E+03  0.7546771E-02  0.1238669E+00
         -1   -1    0    0    0  501 -0.00000000000E+00  0.00000000000E+00  0.27151903362E+03  0.27151903362E+03  0.00000000000E+00 0.  1.
          1   -1    0    0  501    0  0.00000000000E+00 -0.00000000000E+00 -0.51248316799E+02  0.51248316799E+02  0.00000000000E+00 0. -1.
         23    2    1    2    0    0  0.18677419577E+02 -0.31930339343E+02  0.12341391968E+03  0.16036336061E+03  0.95483083747E+02 0.  0.
          5    1    1    2  502    0  0.46180632723E+02 -0.93488283828E+01  0.14226848034E+02  0.49442336472E+02  0.47000000000E+01 0.  1.
         -5    1    1    2    0  502 -0.64858052300E+02  0.41279167726E+02  0.82629949113E+02  0.11296165335E+03  0.47000000000E+01 0.  1.
        -11    1    3    3    0    0 -0.26206475910E+02 -0.35400228719E+02  0.10076178889E+03  0.10996769377E+03  0.00000000000E+00 0.  1.
         11    1    3    3    0    0  0.44883895488E+02  0.34698893759E+01  0.22652130786E+02  0.50395666833E+02  0.00000000000E+00 0. -1.
<mgrwt>
<rscale>  0 0.12272479E+03</rscale>
<asrwt>0</asrwt>
<pdfrwt beam="2">  1        1 0.78843565E-02 0.13036033E+03</pdfrwt>
<pdfrwt beam="1">  1       -1 0.41772159E-01 0.13036033E+03</pdfrwt>
<totfact> 0.48227075E+03</totfact>
</mgrwt>
</event>
<event>
 7    1  0.1422977E-005  0.1277611E+03  0.7546771E-02  0.1247078E+00
          2   -1    0    0  501    0  0.00000000000E+00  0.00000000000E+00  0.13635544748E+04  0.13635544748E+04  0.00000000000E+00 0. -1.
         -2   -1    0    0    0  501 -0.00000000000E+00 -0.00000000000E+00 -0.76584522969E+02  0.76584522969E+02  0.00000000000E+00 0.  1.
         23    2    1    2    0    0 -0.98856189698E+01  0.24497970495E+02 -0.44891513663E+02  0.10216371782E+03  0.87888003845E+02 0.  0.
          5    1    1    2  502    0 -0.45903464916E+02  0.13787614360E+01  0.24161682187E+03  0.24598741368E+03  0.47000000000E+01 0.  1.
         -5    1    1    2    0  502  0.55789083886E+02 -0.25876731931E+02  0.10902446436E+04  0.10919878662E+04  0.47000000000E+01 0.  1.
        -11    1    3    3    0    0  0.20411337846E+02  0.46250838942E+02 -0.10933675645E+02  0.51723380387E+02  0.00000000000E+00 0. -1.
         11    1    3    3    0    0 -0.30296956816E+02 -0.21752868447E+02 -0.33957838017E+02  0.50440337437E+02  0.00000000000E+00 0.  1.
<mgrwt>
<rscale>  0 0.11761884E+03</rscale>
<asrwt>0</asrwt>
<pdfrwt beam="1">  1        2 0.20977759E+00 0.12776105E+03</pdfrwt>
<pdfrwt beam="2">  1       -2 0.11782235E-01 0.12776105E+03</pdfrwt>
<totfact> 0.83845367E+02</totfact>
</mgrwt>
</event>
<event>
 7    1  0.1422977E-005  0.3885350E+03  0.7546771E-02  0.1088086E+00
         -1   -1    0    0    0  501 -0.00000000000E+00  0.00000000000E+00  0.37545457375E+02  0.37545457375E+02  0.00000000000E+00 0.  1.
          1   -1    0    0  501    0  0.00000000000E+00 -0.00000000000E+00 -0.23320584397E+04  0.23320584397E+04  0.00000000000E+00 0. -1.
         23    2    1    2    0    0  0.39178355321E+02  0.79763270945E+02 -0.18734883903E+03  0.22691862996E+03  0.92170245846E+02 0.  0.
          5    1    1    2  502    0 -0.19092484629E+03 -0.11090613984E+03 -0.14941509877E+04  0.15103846308E+04  0.47000000000E+01 0. -1.
         -5    1    1    2    0  502  0.15174649097E+03  0.31142868893E+02 -0.61301315561E+03  0.63230063637E+03  0.47000000000E+01 0.  1.
        -11    1    3    3    0    0  0.51005837825E+02  0.95142440622E+02 -0.14968567463E+03  0.18455210833E+03  0.00000000000E+00 0.  1.
         11    1    3    3    0    0 -0.11827482504E+02 -0.15379169677E+02 -0.37663164402E+02  0.42366521631E+02  0.00000000000E+00 0. -1.
<mgrwt>
<rscale>  0 0.29437652E+03</rscale>
<asrwt>0</asrwt>
<pdfrwt beam="2">  1        1 0.35877820E+00 0.38853498E+03</pdfrwt>
<pdfrwt beam="1">  1       -1 0.57762246E-02 0.38853498E+03</pdfrwt>
<totfact> 0.28394392E+02</totfact>
</mgrwt>
</event>
<event>
 7    1  0.1422977E-005  0.1581304E+03  0.7546771E-02  0.1198530E+00
         -2   -1    0    0    0  501 -0.00000000000E+00  0.00000000000E+00  0.27102837999E+02  0.27102837999E+02  0.00000000000E+00 0.  1.
          2   -1    0    0  501    0  0.00000000000E+00 -0.00000000000E+00 -0.78888356307E+03  0.78888356307E+03  0.00000000000E+00 0. -1.
         23    2    1    2    0    0  0.15453839393E+02  0.95615874242E+02 -0.31968548569E+03  0.34646170935E+03  0.91954824378E+02 0.  0.
          5    1    1    2  502    0 -0.67541378477E+02 -0.33823688192E+02 -0.24592191321E+03  0.25730440550E+03  0.47000000000E+01 0. -1.
         -5    1    1    2    0  502  0.52087539084E+02 -0.61792186050E+02 -0.19617332616E+03  0.21222028622E+03  0.47000000000E+01 0. -1.
        -11    1    3    3    0    0 -0.21388022557E+02  0.55954191034E+02 -0.75652305821E+02  0.96496582216E+02  0.00000000000E+00 0.  1.
         11    1    3    3    0    0  0.36841861950E+02  0.39661683208E+02 -0.24403317987E+03  0.24996512714E+03  0.00000000000E+00 0. -1.
<mgrwt>
<rscale>  0 0.15159209E+03</rscale>
<asrwt>0</asrwt>
<pdfrwt beam="2">  1        2 0.12136672E+00 0.15813044E+03</pdfrwt>
<pdfrwt beam="1">  1       -2 0.41696668E-02 0.15813044E+03</pdfrwt>
<totfact> 0.90412641E+03</totfact>
</mgrwt>
</event>
<event>
 7    1  0.1422977E-005  0.1758485E+03  0.7546771E-02  0.1177715E+00
          1   -1    0    0  501    0  0.00000000000E+00  0.00000000000E+00  0.38561988551E+03  0.38561988551E+03  0.00000000000E+00 0. -1.
         -1   -1    0    0    0  501 -0.00000000000E+00 -0.00000000000E+00 -0.70853820202E+02  0.70853820202E+02  0.00000000000E+00 0.  1.
         23    2    1    2    0    0 -0.90467419063E-01  0.12368212324E+03  0.13236132403E+03  0.20310801860E+03  0.91848088309E+02 0.  0.
          5    1    1    2  502    0  0.17285337282E+01 -0.14777372431E+03  0.13624241102E+03  0.20105756883E+03  0.47000000000E+01 0.  1.
         -5    1    1    2    0  502 -0.16380663091E+01  0.24091601068E+02  0.46162330260E+02  0.52308118283E+02  0.47000000000E+01 0.  1.
        -11    1    3    3    0    0  0.37489607710E+02  0.28360135788E+02  0.20122364851E+02  0.51133917856E+02  0.00000000000E+00 0. -1.
         11    1    3    3    0    0 -0.37580075129E+02  0.95321987452E+02  0.11223895918E+03  0.15197410074E+03  0.00000000000E+00 0.  1.
<mgrwt>
<rscale>  0 0.17012722E+03</rscale>
<asrwt>0</asrwt>
<pdfrwt beam="1">  1        1 0.59326135E-01 0.17584846E+03</pdfrwt>
<pdfrwt beam="2">  1       -1 0.10900588E-01 0.17584846E+03</pdfrwt>
<totfact> 0.33169978E+03</totfact>
</mgrwt>
</event>
<event>
 7    1  0.1422977E-005  0.1731875E+03  0.7546771E-02  0.1180992E+00
         -2   -1    0    0    0  501 -0.00000000000E+00  0.00000000000E+00  0.49240914974E+02  0.49240914974E+02  0.00000000000E+00 0. -1.
          2   -1    0    0  501    0  0.00000000000E+00 -0.00000000000E+00 -0.56938483814E+03  0.56938483814E+03  0.00000000000E+00 0.  1.
         23    2    1    2    0    0  0.87731968873E+02 -0.81684900676E+02 -0.16104479718E+03  0.21994532495E+03  0.89839845887E+02 0.  0.
          5    1    1    2  502    0 -0.92115962938E+02  0.10857518951E+03 -0.26846922204E+03  0.30392718797E+03  0.47000000000E+01 0.  1.
         -5    1    1    2    0  502  0.43839940643E+01 -0.26890288831E+02 -0.90629903955E+02  0.94753240199E+02  0.47000000000E+01 0.  1.
        -11    1    3    3    0    0  0.10209852470E+03 -0.73602642574E+02 -0.15979977291E+03  0.20341441730E+03  0.00000000000E+00 0.  1.
         11    1    3    3    0    0 -0.14366555831E+02 -0.80822581026E+01 -0.12450242629E+01  0.16530907655E+02  0.00000000000E+00 0. -1.
<mgrwt>
<rscale>  0 0.16701923E+03</rscale>
<asrwt>0</asrwt>
<pdfrwt beam="2">  1        2 0.87597667E-01 0.17318748E+03</pdfrwt>
<pdfrwt beam="1">  1       -2 0.75755254E-02 0.17318748E+03</pdfrwt>
<totfact> 0.53947232E+03</totfact>
</mgrwt>
</event>
<event>
 7    1  0.1422977E-005  0.1487755E+03  0.7546771E-02  0.1215255E+00
          3   -1    0    0  501    0  0.00000000000E+00  0.00000000000E+00  0.72281492384E+02  0.72281492384E+02  0.00000000000E+00 0. -1.
         -3   -1    0    0    0  501 -0.00000000000E+00 -0.00000000000E+00 -0.24384589418E+03  0.24384589418E+03  0.00000000000E+00 0.  1.
         23    2    1    2    0    0 -0.18529815214E+02  0.78508264880E+02 -0.10360486532E+03  0.15256504885E+03  0.77686706117E+02 0.  0.
          5    1    1    2  502    0  0.52903779896E+02 -0.24902946801E+01  0.39541125647E+01  0.53317318960E+02  0.47000000000E+01 0. -1.
         -5    1    1    2    0  502 -0.34373964683E+02 -0.76017970199E+02 -0.71913649041E+02  0.11024501875E+03  0.47000000000E+01 0. -1.
        -11    1    3    3    0    0  0.10996242075E+02  0.66759068321E+02 -0.99782660995E+02  0.12055816015E+03  0.00000000000E+00 0.  1.
         11    1    3    3    0    0 -0.29526057289E+02  0.11749196558E+02 -0.38222043267E+01  0.32006888707E+02  0.00000000000E+00 0. -1.
<mgrwt>
<rscale>  0 0.13857819E+03</rscale>
<asrwt>0</asrwt>
<pdfrwt beam="1">  1        3 0.11120230E-01 0.14877547E+03</pdfrwt>
<pdfrwt beam="2">  1       -3 0.37514752E-01 0.14877547E+03</pdfrwt>
<totfact> 0.10156971E+03</totfact>
</mgrwt>
</event>
<event>
 7    1  0.1422977E-005  0.1431707E+03  0.7546771E-02  0.1218065E+00
         -1   -1    0    0    0  501 -0.00000000000E+00  0.00000000000E+00  0.13166758368E+03  0.13166758368E+03  0.00000000000E+00 0.  1.
          1   -1    0    0  501    0  0.00000000000E+00 -0.00000000000E+00 -0.13353654101E+03  0.13353654101E+03  0.00000000000E+00 0. -1.
         23    2    1    2    0    0 -0.61435306850E+02  0.33239209325E+02 -0.22530313457E+02  0.12055026917E+03  0.95632684837E+02 0.  0.
          5    1    1    2  502    0  0.33138610993E+02 -0.80363715574E+02  0.20715285072E+02  0.89485794152E+02  0.47000000000E+01 0. -1.
         -5    1    1    2    0  502  0.28296695858E+02  0.47124506249E+02 -0.53928941376E-01  0.55168061358E+02  0.47000000000E+01 0. -1.
        -11    1    3    3    0    0  0.18113141291E+02  0.34390991539E+02 -0.73676228174E+01  0.39561446542E+02  0.00000000000E+00 0.  1.
         11    1    3    3    0    0 -0.79548448142E+02 -0.11517822144E+01 -0.15162690639E+02  0.80988822633E+02  0.00000000000E+00 0. -1.
<mgrwt>
<rscale>  0 0.13653767E+03</rscale>
<asrwt>0</asrwt>
<pdfrwt beam="2">  1        1 0.20544083E-01 0.14317069E+03</pdfrwt>
<pdfrwt beam="1">  1       -1 0.20256551E-01 0.14317069E+03</pdfrwt>
<totfact> 0.46724384E+03</totfact>
</mgrwt>
</event>
<event>
 7    1  0.1422977E-005  0.1269740E+03  0.7546771E-02  0.1248216E+00
         -1   -1    0    0    0  501 -0.00000000000E+00  0.00000000000E+00  0.31234876262E+02  0.31234876262E+02  0.00000000000E+00 0.  1.
          1   -1    0    0  501    0  0.00000000000E+00 -0.00000000000E+00 -0.48690773752E+03  0.48690773752E+03  0.00000000000E+00 0. -1.
         23    2    1    2    0    0 -0.12867291474E+02 -0.18030569126E+02 -0.79511285565E+02  0.12112884979E+03  0.88653737130E+02 0.  0.
          5    1    1    2  502    0 -0.97115253500E+00  0.13707872845E+02 -0.38080465516E+03  0.38108151925E+03  0.47000000000E+01 0.  1.
         -5    1    1    2    0  502  0.13838444009E+02  0.43226962806E+01  0.46430794687E+01  0.15932244747E+02  0.47000000000E+01 0.  1.
        -11    1    3    3    0    0 -0.43796045851E+02 -0.17076591927E+02 -0.14605313488E+02  0.49224168922E+02  0.00000000000E+00 0.  1.
         11    1    3    3    0    0  0.30928754377E+02 -0.95397719913E+00 -0.64905972077E+02  0.71904680870E+02  0.00000000000E+00 0. -1.
<mgrwt>
<rscale>  0 0.11694938E+03</rscale>
<asrwt>0</asrwt>
<pdfrwt beam="2">  1        1 0.74908881E-01 0.12697400E+03</pdfrwt>
<pdfrwt beam="1">  1       -1 0.48053657E-02 0.12697400E+03</pdfrwt>
<totfact> 0.83106092E+03</totfact>
</mgrwt>
</event>
<event>
 7    1  0.1422977E-005  0.1382489E+03  0.7546771E-02  0.1226933E+00
         -3   -1    0    0    0  501 -0.00000000000E+00  0.00000000000E+00  0.17116455625E+02  0.17116455625E+02  0.00000000000E+00 0.  1.
          3   -1    0    0  501    0  0.00000000000E+00 -0.00000000000E+00 -0.98296043127E+03  0.98296043127E+03  0.00000000000E+00 0. -1.
         23    2    1    2    0    0 -0.21415596305E+02 -0.55046475968E+02 -0.28265382655E+03  0.30303919092E+03  0.91928359532E+02 0.  0.
          5    1    1    2  502    0  0.14427875432E+02  0.59570582174E+02 -0.68461776704E+03  0.68737209341E+03  0.47000000000E+01 0.  1.
         -5    1    1    2    0  502  0.69877208720E+01 -0.45241062053E+01  0.14276179495E+01  0.96656025654E+01  0.47000000000E+01 0.  1.
        -11    1    3    3    0    0  0.15220954415E+01 -0.10647514173E+02  0.44343032372E+01  0.11633975150E+02  0.00000000000E+00 0.  1.
         11    1    3    3    0    0 -0.22937691746E+02 -0.44398961796E+02 -0.28708812979E+03  0.29140521577E+03  0.00000000000E+00 0. -1.
<mgrwt>
<rscale>  0 0.13035267E+03</rscale>
<asrwt>0</asrwt>
<pdfrwt beam="2">  1        3 0.15122466E+00 0.13824894E+03</pdfrwt>
<pdfrwt beam="1">  1       -3 0.26333012E-02 0.13824894E+03</pdfrwt>
<totfact> 0.49024659E+02</totfact>
</mgrwt>
</event>
<event>
 7    1  0.1422977E-005  0.1370426E+03  0.7546771E-02  0.1229149E+00
          1   -1    0    0  501    0  0.00000000000E+00  0.00000000000E+00  0.11410261935E+04  0.11410261935E+04  0.00000000000E+00 0. -1.
         -1   -1    0    0    0  501 -0.00000000000E+00 -0.00000000000E+00 -0.14414007752E+02  0.14414007752E+02  0.00000000000E+00 0.  1.
         23    2    1    2    0    0 -0.29495572647E+02  0.47804211386E+02  0.32523981785E+03  0.34243445413E+03  0.91242450821E+02 0.  0.
          5    1    1    2  502    0 -0.25302592810E+02 -0.35355333125E+02  0.97258036829E+02  0.10663693784E+03  0.47000000000E+01 0. -1.
         -5    1    1    2    0  502  0.54798165456E+02 -0.12448878261E+02  0.70411433105E+03  0.70636880926E+03  0.47000000000E+01 0. -1.
        -11    1    3    3    0    0  0.27877445865E+02 -0.27801502487E+01  0.12457076121E+03  0.12768224533E+03  0.00000000000E+00 0. -1.
         11    1    3    3    0    0 -0.57373018512E+02  0.50584361634E+02  0.20066905664E+03  0.21475220881E+03  0.00000000000E+00 0.  1.
<mgrwt>
<rscale>  0 0.12886542E+03</rscale>
<asrwt>0</asrwt>
<pdfrwt beam="1">  1        1 0.17554242E+00 0.13704259E+03</pdfrwt>
<pdfrwt beam="2">  1       -1 0.22175406E-02 0.13704259E+03</pdfrwt>
<totfact> 0.72256416E+03</totfact>
</mgrwt>
</event>
<event>
 7    1  0.1422977E-005  0.1622165E+03  0.7546771E-02  0.1198475E+00
         -2   -1    0    0    0  501 -0.00000000000E+00  0.00000000000E+00  0.57803342283E+02  0.57803342283E+02  0.00000000000E+00 0.  1.
          2   -1    0    0  501    0  0.00000000000E+00 -0.00000000000E+00 -0.43376595819E+03  0.43376595819E+03  0.00000000000E+00 0. -1.
         23    2    1    2    0    0 -0.33164763787E+02  0.77475504366E+02 -0.62770932698E+02  0.13886090916E+03  0.90773381385E+02 0.  0.
          5    1    1    2  502    0 -0.90398588901E+01 -0.60949501351E+02 -0.29850206710E+03  0.30483132193E+03  0.47000000000E+01 0. -1.
         -5    1    1    2    0  502  0.42204622677E+02 -0.16526003014E+02 -0.14689616101E+02  0.47877069377E+02  0.47000000000E+01 0.  1.
        -11    1    3    3    0    0 -0.51412402065E+01 -0.20178170039E+02 -0.19175974636E+02  0.28307400096E+02  0.00000000000E+00 0. -1.
         11    1    3    3    0    0 -0.28023523580E+02  0.97653674405E+02 -0.43594958062E+02  0.11055350907E+03  0.00000000000E+00 0.  1.
<mgrwt>
<rscale>  0 0.15163764E+03</rscale>
<asrwt>0</asrwt>
<pdfrwt beam="2">  1        2 0.66733227E-01 0.16221646E+03</pdfrwt>
<pdfrwt beam="1">  1       -2 0.88928216E-02 0.16221646E+03</pdfrwt>
<totfact> 0.56634863E+03</totfact>
</mgrwt>
</event>
<event>
 7    1  0.1422977E-005  0.1340605E+03  0.7546771E-02  0.1234682E+00
         -2   -1    0    0    0  501 -0.00000000000E+00  0.00000000000E+00  0.32588600927E+03  0.32588600927E+03  0.00000000000E+00 0.  1.
          2   -1    0    0  501    0  0.00000000000E+00 -0.00000000000E+00 -0.57183538788E+02  0.57183538788E+02  0.00000000000E+00 0. -1.
         23    2    1    2    0    0  0.61157428215E+01  0.48072364337E+02  0.21616864022E+03  0.23908337205E+03  0.89908972033E+02 0.  0.
          5    1    1    2  502    0  0.28880806957E+02  0.14661674343E+02 -0.22722016354E+02  0.39842762608E+02  0.47000000000E+01 0.  1.
         -5    1    1    2    0  502 -0.34996549779E+02 -0.62734038680E+02  0.75255846613E+02  0.10414341340E+03  0.47000000000E+01 0.  1.
        -11    1    3    3    0    0 -0.35451529432E+02  0.11578863502E+02  0.14042222857E+03  0.14529034137E+03  0.00000000000E+00 0.  1.
         11    1    3    3    0    0  0.41567272254E+02  0.36493500834E+02  0.75746411654E+02  0.93793030681E+02  0.00000000000E+00 0. -1.
<mgrwt>
<rscale>  0 0.12524818E+03</rscale>
<asrwt>0</asrwt>
<pdfrwt beam="2">  1        2 0.87974677E-02 0.13406049E+03</pdfrwt>
<pdfrwt beam="1">  1       -2 0.50136308E-01 0.13406049E+03</pdfrwt>
<totfact> 0.27612865E+03</totfact>
</mgrwt>
</event>
<event>
 7    1  0.1422977E-005  0.1885037E+03  0.7546771E-02  0.1164770E+00
          1   -1    0    0  501    0  0.00000000000E+00  0.00000000000E+00  0.98412318419E+03  0.98412318419E+03  0.00000000000E+00 0. -1.
         -1   -1    0    0    0  501 -0.00000000000E+00 -0.00000000000E+00 -0.32317435218E+02  0.32317435218E+02  0.00000000000E+00 0.  1.
         23    2    1    2    0    0 -0.31448784871E+02 -0.13754658847E+03  0.43571454958E+03  0.46700109721E+03  0.91294939694E+02 0.  0.
          5    1    1    2  502    0 -0.32801276274E+02  0.49085560455E+01  0.46980289011E+02  0.57699698467E+02  0.47000000000E+01 0.  1.
         -5    1    1    2    0  502  0.64250061145E+02  0.13263803242E+03  0.46911091038E+03  0.49173982373E+03  0.47000000000E+01 0.  1.
        -11    1    3    3    0    0 -0.10202697260E+01 -0.56882546562E+02  0.30604073670E+03  0.31128378945E+03  0.00000000000E+00 0. -1.
         11    1    3    3    0    0 -0.30428515145E+02 -0.80664041905E+02  0.12967381288E+03  0.15571730776E+03  0.00000000000E+00 0.  1.
<mgrwt>
<rscale>  0 0.18316967E+03</rscale>
<asrwt>0</asrwt>
<pdfrwt beam="1">  1        1 0.15140354E+00 0.18850375E+03</pdfrwt>
<pdfrwt beam="2">  1       -1 0.49719139E-02 0.18850375E+03</pdfrwt>
<totfact> 0.28962371E+03</totfact>
</mgrwt>
</event>
<event>
 7    1  0.1422977E-005  0.3350515E+03  0.7546771E-02  0.1070181E+00
         -1   -1    0    0    0  501 -0.00000000000E+00  0.00000000000E+00  0.77957230261E+02  0.77957230261E+02  0.00000000000E+00 0.  1.
          1   -1    0    0  501    0  0.00000000000E+00 -0.00000000000E+00 -0.13970255531E+04  0.13970255531E+04  0.00000000000E+00 0. -1.
         23    2    1    2    0    0 -0.23934892434E+03 -0.19837795451E+03 -0.60196052747E+03  0.68346329410E+03  0.90132554228E+02 0.  0.
          5    1    1    2  502    0  0.17045450230E+02  0.53807890274E+02 -0.58074251864E+02  0.81120559409E+02  0.47000000000E+01 0.  1.
         -5    1    1    2    0  502  0.22230347411E+03  0.14457006423E+03 -0.65903354353E+03  0.71039892988E+03  0.47000000000E+01 0.  1.
        -11    1    3    3    0    0 -0.16442305180E+03 -0.12853816863E+03 -0.30698313175E+03  0.37120835651E+03  0.00000000000E+00 0.  1.
         11    1    3    3    0    0 -0.74925872534E+02 -0.69839785876E+02 -0.29497739572E+03  0.31225493759E+03  0.00000000000E+00 0. -1.
<mgrwt>
<rscale>  0 0.33217047E+03</rscale>
<asrwt>0</asrwt>
<pdfrwt beam="2">  1        1 0.21492700E+00 0.33505151E+03</pdfrwt>
<pdfrwt beam="1">  1       -1 0.11993421E-01 0.33505151E+03</pdfrwt>
<totfact> 0.38277791E+02</totfact>
</mgrwt>
</event>
<event>
 7    1  0.1422977E-005  0.1345667E+03  0.7546771E-02  0.1232719E+00
          1   -1    0    0  501    0  0.00000000000E+00  0.00000000000E+00  0.11123119410E+03  0.11123119410E+03  0.00000000000E+00 0. -1.
         -1   -1    0    0    0  501 -0.00000000000E+00 -0.00000000000E+00 -0.14882389094E+03  0.14882389094E+03  0.00000000000E+00 0.  1.
         23    2    1    2    0    0  0.18855326671E+02  0.46133427367E+02 -0.63767186387E+02  0.12296646800E+03  0.92577976480E+02 0.  0.
          5    1    1    2  502    0 -0.68264366135E+02 -0.15517733115E+02  0.34492058208E+02  0.78183219454E+02  0.47000000000E+01 0. -1.
         -5    1    1    2    0  502  0.49409039464E+02 -0.30615694252E+02 -0.83175686594E+01  0.58905397577E+02  0.47000000000E+01 0. -1.
        -11    1    3    3    0    0 -0.78534269395E-01  0.72500414204E+02 -0.40688609216E+02  0.83137711944E+02  0.00000000000E+00 0. -1.
         11    1    3    3    0    0  0.18933860941E+02 -0.26366986837E+02 -0.23078577172E+02  0.39828756060E+02  0.00000000000E+00 0.  1.
<mgrwt>
<rscale>  0 0.12651601E+03</rscale>
<asrwt>0</asrwt>
<pdfrwt beam="1">  1        1 0.17112491E-01 0.13456666E+03</pdfrwt>
<pdfrwt beam="2">  1       -1 0.22895983E-01 0.13456666E+03</pdfrwt>
<totfact> 0.48220031E+03</totfact>
</mgrwt>
</event>
<event>
 7    1  0.1422977E-005  0.2501255E+03  0.7546771E-02  0.1116022E+00
         -2   -1    0    0    0  501 -0.00000000000E+00  0.00000000000E+00  0.23889022400E+03  0.23889022400E+03  0.00000000000E+00 0.  1.
          2   -1    0    0  501    0  0.00000000000E+00 -0.00000000000E+00 -0.26261292589E+03  0.26261292589E+03  0.00000000000E+00 0. -1.
         23    2    1    2    0    0  0.19678723487E+03  0.79926939206E+02  0.54640448853E+02  0.23938949349E+03  0.95959468138E+02 0.  0.
          5    1    1    2  502    0 -0.18322059364E+03 -0.15431180227E+02 -0.61239228684E+02  0.19385623639E+03  0.47000000000E+01 0. -1.
         -5    1    1    2    0  502 -0.13566641230E+02 -0.64495758979E+02 -0.17123922060E+02  0.68257420016E+02  0.47000000000E+01 0.  1.
        -11    1    3    3    0    0  0.50942957560E+02 -0.20650197221E+02  0.22195841789E+02  0.59281286785E+02  0.00000000000E+00 0.  1.
         11    1    3    3    0    0  0.14584427731E+03  0.10057713643E+03  0.32444607064E+02  0.18010820671E+03  0.00000000000E+00 0. -1.
<mgrwt>
<rscale>  0 0.24574815E+03</rscale>
<asrwt>0</asrwt>
<pdfrwt beam="2">  1        2 0.40401989E-01 0.25012554E+03</pdfrwt>
<pdfrwt beam="1">  1       -2 0.36752342E-01 0.25012554E+03</pdfrwt>
<totfact> 0.88597186E+02</totfact>
</mgrwt>
</event>
<event>
 7    1  0.1422977E-005  0.1807497E+03  0.7546771E-02  0.1172560E+00
         -1   -1    0    0    0  501 -0.00000000000E+00  0.00000000000E+00  0.18657810036E+02  0.18657810036E+02  0.00000000000E+00 0.  1.
          1   -1    0    0  501    0  0.00000000000E+00 -0.00000000000E+00 -0.15508258730E+04  0.15508258730E+04  0.00000000000E+00 0. -1.
         23    2    1    2    0    0 -0.77188932554E+02 -0.10529480152E+03 -0.71308640633E+03  0.73069574944E+03  0.91536488970E+02 0.  0.
          5    1    1    2  502    0  0.50264813586E+02  0.13270157813E+03 -0.63430704624E+03  0.65000290710E+03  0.47000000000E+01 0.  1.
         -5    1    1    2    0  502  0.26924118967E+02 -0.27406776608E+02 -0.18477461034E+03  0.18878502645E+03  0.47000000000E+01 0.  1.
        -11    1    3    3    0    0 -0.85445940609E+02 -0.41403276892E+02 -0.43596492450E+03  0.44618455318E+03  0.00000000000E+00 0. -1.
         11    1    3    3    0    0  0.82570080551E+01 -0.63891524628E+02 -0.27712148183E+03  0.28451119626E+03  0.00000000000E+00 0.  1.
<mgrwt>
<rscale>  0 0.17517160E+03</rscale>
<asrwt>0</asrwt>
<pdfrwt beam="2">  1        1 0.23858864E+00 0.18074965E+03</pdfrwt>
<pdfrwt beam="1">  1       -1 0.28704317E-02 0.18074965E+03</pdfrwt>
<totfact> 0.26604495E+03</totfact>
</mgrwt>
</event>
<event>
 7    1  0.1422977E-005  0.1300196E+03  0.7546771E-02  0.1241446E+00
          2   -1    0    0  501    0  0.00000000000E+00  0.00000000000E+00  0.13675524277E+04  0.13675524277E+04  0.00000000000E+00 0. -1.
         -2   -1    0    0    0  501 -0.00000000000E+00 -0.00000000000E+00 -0.12457814835E+02  0.12457814835E+02  0.00000000000E+00 0.  1.
         23    2    1    2    0    0 -0.53529712027E+01 -0.35398066189E+02  0.26860626322E+03  0.28576985664E+03  0.90738133851E+02 0.  0.
          5    1    1    2  502    0  0.49213694007E+02  0.34080762507E+02  0.92142151350E+03  0.92337596980E+03  0.47000000000E+01 0.  1.
         -5    1    1    2    0  502 -0.43860722804E+02  0.13173036827E+01  0.16506683618E+03  0.17086441614E+03  0.47000000000E+01 0.  1.
        -11    1    3    3    0    0 -0.18655159863E+02 -0.58029075213E+02  0.11718324476E+03  0.13208823344E+03  0.00000000000E+00 0.  1.
         11    1    3    3    0    0  0.13302188661E+02  0.22631009024E+02  0.15142301846E+03  0.15368162321E+03  0.00000000000E+00 0. -1.
<mgrwt>
<rscale>  0 0.12100634E+03</rscale>
<asrwt>0</asrwt>
<pdfrwt beam="1">  1        2 0.21039256E+00 0.13001957E+03</pdfrwt>
<pdfrwt beam="2">  1       -2 0.19165880E-02 0.13001957E+03</pdfrwt>
<totfact> 0.12808516E+04</totfact>
</mgrwt>
</event>
<event>
 7    1  0.1422977E-005  0.1339795E+03  0.7546771E-02  0.1233280E+00
          1   -1    0    0  501    0  0.00000000000E+00  0.00000000000E+00  0.25962227902E+03  0.25962227902E+03  0.00000000000E+00 0. -1.
         -1   -1    0    0    0  501 -0.00000000000E+00 -0.00000000000E+00 -0.74895963172E+02  0.74895963172E+02  0.00000000000E+00 0.  1.
         23    2    1    2    0    0  0.23767070954E+02  0.41962697848E+02 -0.12399973247E+01  0.10531530308E+03  0.93616418420E+02 0.  0.
          5    1    1    2  502    0 -0.17827707779E+02 -0.77047795303E+02  0.63338353634E+02  0.10142991160E+03  0.47000000000E+01 0. -1.
         -5    1    1    2    0  502 -0.59393631755E+01  0.35085097455E+02  0.12262795954E+03  0.12777302751E+03  0.47000000000E+01 0. -1.
        -11    1    3    3    0    0  0.90227895684E+01  0.50375429979E+02 -0.38717340164E+02  0.64172635185E+02  0.00000000000E+00 0.  1.
         11    1    3    3    0    0  0.14744281386E+02 -0.84127321312E+01  0.37477342840E+02  0.41142667899E+02  0.00000000000E+00 0. -1.
<mgrwt>
<rscale>  0 0.12615202E+03</rscale>
<asrwt>0</asrwt>
<pdfrwt beam="1">  1        1 0.39941889E-01 0.13397954E+03</pdfrwt>
<pdfrwt beam="2">  1       -1 0.11522456E-01 0.13397954E+03</pdfrwt>
<totfact> 0.49220260E+03</totfact>
</mgrwt>
</event>
<event>
 7    1  0.1422977E-005  0.1280017E+03  0.7546771E-02  0.1244891E+00
         -1   -1    0    0    0  501 -0.00000000000E+00  0.00000000000E+00  0.23123393382E+02  0.23123393382E+02  0.00000000000E+00 0.  1.
          1   -1    0    0  501    0  0.00000000000E+00 -0.00000000000E+00 -0.97639706873E+03  0.97639706873E+03  0.00000000000E+00 0. -1.
         23    2    1    2    0    0 -0.14654194835E+02  0.23320145179E+02 -0.10578937437E+03  0.14242415483E+03  0.91294433305E+02 0.  0.
          5    1    1    2  502    0  0.61249310608E+02 -0.27866042430E+02 -0.67324748520E+03  0.67661825330E+03  0.47000000000E+01 0.  1.
         -5    1    1    2    0  502 -0.46595115773E+02  0.45458972519E+01 -0.17423681578E+03  0.18047805398E+03  0.47000000000E+01 0.  1.
        -11    1    3    3    0    0  0.17414001079E+02  0.34197159289E+02 -0.10122506610E+03  0.10825528691E+03  0.00000000000E+00 0. -1.
         11    1    3    3    0    0 -0.32068195913E+02 -0.10877014111E+02 -0.45643082704E+01  0.34168867922E+02  0.00000000000E+00 0.  1.
<mgrwt>
<rscale>  0 0.11891913E+03</rscale>
<asrwt>0</asrwt>
<pdfrwt beam="2">  1        1 0.15021495E+00 0.12800172E+03</pdfrwt>
<pdfrwt beam="1">  1       -1 0.35574448E-02 0.12800172E+03</pdfrwt>
<totfact> 0.47541868E+03</totfact>
</mgrwt>
</event>
<event>
 7    1  0.1422977E-005  0.1512983E+03  0.7546771E-02  0.1207593E+00
          1   -1    0    0  501    0  0.00000000000E+00  0.00000000000E+00  0.64249675390E+03  0.64249675390E+03  0.00000000000E+00 0. -1.
         -1   -1    0    0    0  501 -0.00000000000E+00 -0.00000000000E+00 -0.32329258229E+02  0.32329258229E+02  0.00000000000E+00 0.  1.
         23    2    1    2    0    0  0.84961199805E+02  0.66610713627E+01  0.18441487845E+03  0.22298923651E+03  0.91937896769E+02 0.  0.
          5    1    1    2  502    0 -0.92849239244E+02 -0.10394712175E+02  0.15597565927E+03  0.18187778192E+03  0.47000000000E+01 0.  1.
         -5    1    1    2    0  502  0.78880394392E+01  0.37336408127E+01  0.26977695795E+03  0.26995899370E+03  0.47000000000E+01 0.  1.
        -11    1    3    3    0    0  0.22635720909E+02 -0.27459367940E+02  0.12623392864E+03  0.13115409826E+03  0.00000000000E+00 0. -1.
         11    1    3    3    0    0  0.62325478896E+02  0.34120439303E+02  0.58180949803E+02  0.91835138252E+02  0.00000000000E+00 0.  1.
<mgrwt>
<rscale>  0 0.14434977E+03</rscale>
<asrwt>0</asrwt>
<pdfrwt beam="1">  1        1 0.98845645E-01 0.15129832E+03</pdfrwt>
<pdfrwt beam="2">  1       -1 0.49737325E-02 0.15129832E+03</pdfrwt>
<totfact> 0.55025445E+03</totfact>
</mgrwt>
</event>
<event>
 7    1  0.1422977E-005  0.1787305E+03  0.7546771E-02  0.1174566E+00
          2   -1    0    0  501    0  0.00000000000E+00  0.00000000000E+00  0.56403937497E+03  0.56403937497E+03  0.00000000000E+00 0. -1.
         -2   -1    0    0    0  501 -0.00000000000E+00 -0.00000000000E+00 -0.79802251590E+02  0.79802251590E+02  0.00000000000E+00 0.  1.
         23    2    1    2    0    0 -0.56468254344E+02 -0.11459182495E+03  0.36476280988E+02  0.16172716389E+03  0.92223675755E+02 0.  0.
          5    1    1    2  502    0  0.54961502561E+02  0.55899947815E+02  0.39597235485E+03  0.40368523225E+03  0.47000000000E+01 0. -1.
         -5    1    1    2    0  502  0.15067517837E+01  0.58691877136E+02  0.51788487534E+02  0.78429230417E+02  0.47000000000E+01 0. -1.
        -11    1    3    3    0    0  0.10618869413E+02 -0.63587552922E+02  0.42534718161E+02  0.77235610461E+02  0.00000000000E+00 0. -1.
         11    1    3    3    0    0 -0.67087123758E+02 -0.51004272029E+02 -0.60584371729E+01  0.84491553426E+02  0.00000000000E+00 0.  1.
<mgrwt>
<rscale>  0 0.17318507E+03</rscale>
<asrwt>0</asrwt>
<pdfrwt beam="1">  1        2 0.86775286E-01 0.17873048E+03</pdfrwt>
<pdfrwt beam="2">  1       -2 0.12277270E-01 0.17873048E+03</pdfrwt>
<totfact> 0.25492440E+03</totfact>
</mgrwt>
</event>
<event>
 7    1  0.1422977E-005  0.2268363E+03  0.7546771E-02  0.1132109E+00
          3   -1    0    0  501    0  0.00000000000E+00  0.00000000000E+00  0.35677801578E+03  0.35677801578E+03  0.00000000000E+00 0. -1.
         -3   -1    0    0    0  501 -0.00000000000E+00 -0.00000000000E+00 -0.14442702661E+03  0.14442702661E+03  0.00000000000E+00 0.  1.
         23    2    1    2    0    0 -0.31305589898E+02  0.18668015454E+03  0.33304641565E+02  0.21222008911E+03  0.89992483108E+02 0.  0.
          5    1    1    2  502    0 -0.16503535398E+02 -0.14845364789E+03  0.17094891983E+03  0.22706051053E+03  0.47000000000E+01 0. -1.
         -5    1    1    2    0  502  0.47809125296E+02 -0.38226506652E+02  0.80974277756E+01  0.61924442742E+02  0.47000000000E+01 0. -1.
        -11    1    3    3    0    0  0.29016184091E+02  0.51689942174E+02 -0.49888166493E+01  0.59486783009E+02  0.00000000000E+00 0.  1.
         11    1    3    3    0    0 -0.60321773990E+02  0.13499021236E+03  0.38293458214E+02  0.15273330610E+03  0.00000000000E+00 0. -1.
<mgrwt>
<rscale>  0 0.22239617E+03</rscale>
<asrwt>0</asrwt>
<pdfrwt beam="1">  1        3 0.54888925E-01 0.22683630E+03</pdfrwt>
<pdfrwt beam="2">  1       -3 0.22219543E-01 0.22683630E+03</pdfrwt>
<totfact> 0.15206185E+02</totfact>
</mgrwt>
</event>
<event>
 7    1  0.1422977E-005  0.1757315E+03  0.7546771E-02  0.1191047E+00
         -3   -1    0    0    0  501 -0.00000000000E+00  0.00000000000E+00  0.22739979316E+02  0.22739979316E+02  0.00000000000E+00 0.  1.
          3   -1    0    0  501    0  0.00000000000E+00 -0.00000000000E+00 -0.10836326033E+04  0.10836326033E+04  0.00000000000E+00 0. -1.
         23    2    1    2    0    0  0.43954456085E+02 -0.93699997917E+01 -0.22870535355E+03  0.25583322348E+03  0.10547373317E+03 0.  0.
          5    1    1    2  502    0 -0.82523856477E+01  0.86701097932E+02 -0.50142197042E+03  0.50895114173E+03  0.47000000000E+01 0. -1.
         -5    1    1    2    0  502 -0.35702070437E+02 -0.77331098140E+02 -0.33076530005E+03  0.34158821743E+03  0.47000000000E+01 0.  1.
        -11    1    3    3    0    0 -0.28669377591E+02  0.11778274156E+02 -0.29658068723E+02  0.42898274953E+02  0.00000000000E+00 0.  1.
         11    1    3    3    0    0  0.72623833676E+02 -0.21148273947E+02 -0.19904728483E+03  0.21293494853E+03  0.00000000000E+00 0. -1.
<mgrwt>
<rscale>  0 0.15793564E+03</rscale>
<asrwt>0</asrwt>
<pdfrwt beam="2">  1        3 0.16671272E+00 0.17573147E+03</pdfrwt>
<pdfrwt beam="1">  1       -3 0.34984581E-02 0.17573147E+03</pdfrwt>
<totfact> 0.25375922E+02</totfact>
</mgrwt>
</event>
<event>
 7    1  0.1422977E-005  0.1468851E+03  0.7546771E-02  0.1213867E+00
         -1   -1    0    0    0  501 -0.00000000000E+00  0.00000000000E+00  0.75794685093E+02  0.75794685093E+02  0.00000000000E+00 0.  1.
          1   -1    0    0  501    0  0.00000000000E+00 -0.00000000000E+00 -0.27156418555E+03  0.27156418555E+03  0.00000000000E+00 0. -1.
         23    2    1    2    0    0  0.74972850473E+02 -0.18150105079E+02 -0.25573913135E+02  0.12254389590E+03  0.91720372695E+02 0.  0.
          5    1    1    2  502    0 -0.10078966701E+03 -0.11998979194E+02 -0.14669365669E+03  0.17844789545E+03  0.47000000000E+01 0.  1.
         -5    1    1    2    0  502  0.25816816535E+02  0.30149084273E+02 -0.23501930631E+02  0.46367079290E+02  0.47000000000E+01 0.  1.
        -11    1    3    3    0    0  0.27202069682E+01 -0.43124254625E+02 -0.59446698766E+01  0.43616968749E+02  0.00000000000E+00 0.  1.
         11    1    3    3    0    0  0.72252643505E+02  0.24974149545E+02 -0.19629243258E+02  0.78926927154E+02  0.00000000000E+00 0. -1.
<mgrwt>
<rscale>  0 0.13960112E+03</rscale>
<asrwt>0</asrwt>
<pdfrwt beam="2">  1        1 0.41779106E-01 0.14688511E+03</pdfrwt>
<pdfrwt beam="1">  1       -1 0.11660721E-01 0.14688511E+03</pdfrwt>
<totfact> 0.45944616E+03</totfact>
</mgrwt>
</event>
<event>
 7    1  0.1422977E-005  0.1543663E+03  0.7546771E-02  0.1204266E+00
         -1   -1    0    0    0  501 -0.00000000000E+00  0.00000000000E+00  0.16620173621E+02  0.16620173621E+02  0.00000000000E+00 0.  1.
          1   -1    0    0  501    0  0.00000000000E+00 -0.00000000000E+00 -0.12091302715E+04  0.12091302715E+04  0.00000000000E+00 0. -1.
         23    2    1    2    0    0  0.86803355283E+02  0.25864899274E+02 -0.46005970104E+03  0.47721016381E+03  0.88717509099E+02 0.  0.
          5    1    1    2  502    0 -0.30334745058E+02 -0.65573051120E+02 -0.52224511095E+03  0.52724004751E+03  0.47000000000E+01 0. -1.
         -5    1    1    2    0  502 -0.56468610226E+02  0.39708151845E+02 -0.21020528592E+03  0.22130023383E+03  0.47000000000E+01 0. -1.
        -11    1    3    3    0    0  0.19641975428E+02  0.51307378105E+02 -0.19443706896E+03  0.20204956826E+03  0.00000000000E+00 0.  1.
         11    1    3    3    0    0  0.67161379855E+02 -0.25442478831E+02 -0.26562263208E+03  0.27516059555E+03  0.00000000000E+00 0. -1.
<mgrwt>
<rscale>  0 0.14695421E+03</rscale>
<asrwt>0</asrwt>
<pdfrwt beam="2">  1        1 0.18602012E+00 0.15436635E+03</pdfrwt>
<pdfrwt beam="1">  1       -1 0.25569487E-02 0.15436635E+03</pdfrwt>
<totfact> 0.52991613E+03</totfact>
</mgrwt>
</event>
<event>
 7    1  0.1422977E-005  0.1494873E+03  0.7546771E-02  0.1209219E+00
         -2   -1    0    0    0  501 -0.00000000000E+00  0.00000000000E+00  0.33520641979E+02  0.33520641979E+02  0.00000000000E+00 0.  1.
          2   -1    0    0  501    0  0.00000000000E+00 -0.00000000000E+00 -0.58169508893E+03  0.58169508893E+03  0.00000000000E+00 0. -1.
         23    2    1    2    0    0 -0.71087251559E+02  0.40849188787E+02 -0.19758303652E+03  0.23408478253E+03  0.95050384166E+02 0.  0.
          5    1    1    2  502    0  0.38559845139E+01  0.20456379243E+02 -0.22480696533E+03  0.22581761165E+03  0.47000000000E+01 0.  1.
         -5    1    1    2    0  502  0.67231267045E+02 -0.61305568030E+02 -0.12578444510E+03  0.15531333674E+03  0.47000000000E+01 0.  1.
        -11    1    3    3    0    0 -0.72527893588E+02  0.61432357168E+01 -0.66891895344E+02  0.98856261087E+02  0.00000000000E+00 0.  1.
         11    1    3    3    0    0  0.14406420293E+01  0.34705953070E+02 -0.13069114118E+03  0.13522852144E+03  0.00000000000E+00 0. -1.
<mgrwt>
<rscale>  0 0.14309887E+03</rscale>
<asrwt>0</asrwt>
<pdfrwt beam="2">  1        2 0.89491550E-01 0.14948733E+03</pdfrwt>
<pdfrwt beam="1">  1       -2 0.51570220E-02 0.14948733E+03</pdfrwt>
<totfact> 0.93957902E+03</totfact>
</mgrwt>
</event>
<event>
 7    1  0.1422977E-005  0.1799992E+03  0.7546771E-02  0.1173362E+00
         -2   -1    0    0    0  501 -0.00000000000E+00  0.00000000000E+00  0.10078579179E+03  0.10078579179E+03  0.00000000000E+00 0.  1.
          2   -1    0    0  501    0  0.00000000000E+00 -0.00000000000E+00 -0.43704919444E+03  0.43704919444E+03  0.00000000000E+00 0. -1.
         23    2    1    2    0    0 -0.11098237191E+03 -0.66764862022E+02 -0.24075788872E+01  0.15854693429E+03  0.91414989268E+02 0.  0.
          5    1    1    2  502    0  0.35813846537E+02  0.93095123133E+02 -0.19736863579E+03  0.22119177640E+03  0.47000000000E+01 0.  1.
         -5    1    1    2    0  502  0.75168525369E+02 -0.26330261110E+02 -0.13648718797E+03  0.15809627553E+03  0.47000000000E+01 0.  1.
        -11    1    3    3    0    0 -0.60301066227E+02 -0.81982941508E+02  0.14933519687E+02  0.10286122348E+03  0.00000000000E+00 0. -1.
         11    1    3    3    0    0 -0.50681305679E+02  0.15218079485E+02 -0.17341098574E+02  0.55685710809E+02  0.00000000000E+00 0.  1.
<mgrwt>
<rscale>  0 0.17437326E+03</rscale>
<asrwt>0</asrwt>
<pdfrwt beam="2">  1        2 0.67238338E-01 0.17999921E+03</pdfrwt>
<pdfrwt beam="1">  1       -2 0.15505506E-01 0.17999921E+03</pdfrwt>
<totfact> 0.23126863E+03</totfact>
</mgrwt>
</event>
<event>
 6    1  0.1422977E-005  0.1155705E+03  0.7546771E-02  0.1295719E+00
         -2   -1    0    0    0  501 -0.00000000000E+00  0.00000000000E+00  0.18673766072E+02  0.18673766072E+02  0.00000000000E+00 0.  1.
          2   -1    0    0  501    0  0.00000000000E+00 -0.00000000000E+00 -0.36033842271E+03  0.36033842271E+03  0.00000000000E+00 0. -1.
          5    1    1    2  502    0  0.37001584173E+02  0.18698896458E+02 -0.21907281051E+03  0.22301065505E+03  0.47000000000E+01 0. -1.
         -5    1    1    2    0  502 -0.34399938510E+02 -0.17534263089E+02 -0.22878937991E+02  0.45125845756E+02  0.47000000000E+01 0.  1.
        -11    1    1    2    0    0 -0.30437736220E+01 -0.23814775476E+02 -0.36149119336E+02  0.43395471165E+02  0.00000000000E+00 0. -1.
         11    1    1    2    0    0  0.44212795931E+00  0.22650142107E+02 -0.63563788806E+02  0.67480216819E+02  0.00000000000E+00 0.  1.
<mgrwt>
<rscale>  0 0.93011377E+02</rscale>
<asrwt>0</asrwt>
<pdfrwt beam="2">  1        2 0.55436682E-01 0.11557047E+03</pdfrwt>
<pdfrwt beam="1">  1       -2 0.28728870E-02 0.11557047E+03</pdfrwt>
<totfact> 0.36821857E+04</totfact>
</mgrwt>
</event>
<event>
 7    1  0.1422977E-005  0.2153584E+03  0.7546771E-02  0.1140915E+00
         -2   -1    0    0    0  501 -0.00000000000E+00  0.00000000000E+00  0.11928867242E+03  0.11928867242E+03  0.00000000000E+00 0.  1.
          2   -1    0    0  501    0  0.00000000000E+00 -0.00000000000E+00 -0.36685146194E+03  0.36685146194E+03  0.00000000000E+00 0. -1.
         23    2    1    2    0    0  0.26808114853E+02  0.17330974579E+03 -0.80344023640E+02  0.21348404630E+03  0.91462193736E+02 0.  0.
          5    1    1    2  502    0  0.48722885186E+02 -0.47261721602E+02 -0.46344223339E+02  0.82325372192E+02  0.47000000000E+01 0.  1.
         -5    1    1    2    0  502 -0.75531000039E+02 -0.12604802419E+03 -0.12087454254E+03  0.19033071587E+03  0.47000000000E+01 0.  1.
        -11    1    3    3    0    0 -0.16074290776E+02 -0.29316109554E+01 -0.51458516531E+01  0.17130585395E+02  0.00000000000E+00 0. -1.
         11    1    3    3    0    0  0.42882405628E+02  0.17624135675E+03 -0.75198171987E+02  0.19635346091E+03  0.00000000000E+00 0.  1.
<mgrwt>
<rscale>  0 0.21082473E+03</rscale>
<asrwt>0</asrwt>
<pdfrwt beam="2">  1        2 0.56438687E-01 0.21535837E+03</pdfrwt>
<pdfrwt beam="1">  1       -2 0.18352103E-01 0.21535837E+03</pdfrwt>
<totfact> 0.21206993E+03</totfact>
</mgrwt>
</event>
<event>
 7    1  0.1422977E-005  0.2566826E+03  0.7546771E-02  0.1111393E+00
         -2   -1    0    0    0  501 -0.00000000000E+00  0.00000000000E+00  0.56613587530E+02  0.56613587530E+02  0.00000000000E+00 0.  1.
          2   -1    0    0  501    0  0.00000000000E+00 -0.00000000000E+00 -0.12514475720E+04  0.12514475720E+04  0.00000000000E+00 0. -1.
         23    2    1    2    0    0 -0.27220853312E+02 -0.22252267866E+03 -0.35513016852E+03  0.43000166476E+03  0.92340011507E+02 0.  0.
          5    1    1    2  502    0  0.34231001042E+01  0.22299964225E+03 -0.80745608098E+03  0.83770398756E+03  0.47000000000E+01 0. -1.
         -5    1    1    2    0  502  0.23797753208E+02 -0.47696359261E+00 -0.32247734967E+02  0.40355507215E+02  0.47000000000E+01 0. -1.
        -11    1    3    3    0    0 -0.10278620734E+00 -0.12984975569E+03 -0.12414689023E+03  0.17964804471E+03  0.00000000000E+00 0.  1.
         11    1    3    3    0    0 -0.27118067105E+02 -0.92672922977E+02 -0.23098327830E+03  0.25035362004E+03  0.00000000000E+00 0. -1.
<mgrwt>
<rscale>  0 0.25304908E+03</rscale>
<asrwt>0</asrwt>
<pdfrwt beam="2">  1        2 0.19253039E+00 0.25668264E+03</pdfrwt>
<pdfrwt beam="1">  1       -2 0.87097829E-02 0.25668264E+03</pdfrwt>
<totfact> 0.15459163E+03</totfact>
</mgrwt>
</event>
<event>
 7    1  0.1422977E-005  0.1371794E+03  0.7546771E-02  0.1226323E+00
          4   -1    0    0  501    0  0.00000000000E+00  0.00000000000E+00  0.62708984151E+03  0.62708984151E+03  0.00000000000E+00 0. -1.
         -4   -1    0    0    0  501 -0.00000000000E+00 -0.00000000000E+00 -0.25951235090E+02  0.25951235090E+02  0.00000000000E+00 0.  1.
         23    2    1    2    0    0 -0.35391942084E+02 -0.44120872174E+02  0.21089793199E+03  0.23939150961E+03  0.98138250589E+02 0.  0.
          5    1    1    2  502    0  0.41607700713E+02  0.60625505772E+02  0.10753517515E+03  0.13035550086E+03  0.47000000000E+01 0.  1.
         -5    1    1    2    0  502 -0.62157586290E+01 -0.16504633598E+02  0.28270549928E+03  0.28329406614E+03  0.47000000000E+01 0.  1.
        -11    1    3    3    0    0  0.20239590248E+01 -0.27071345136E+02  0.28234215734E+01  0.27293329717E+02  0.00000000000E+00 0.  1.
         11    1    3    3    0    0 -0.37415901109E+02 -0.17049527038E+02  0.20807451042E+03  0.21209817989E+03  0.00000000000E+00 0. -1.
<mgrwt>
<rscale>  0 0.13076649E+03</rscale>
<asrwt>0</asrwt>
<pdfrwt beam="1">  1        4 0.96475349E-01 0.13717937E+03</pdfrwt>
<pdfrwt beam="2">  1       -4 0.39924982E-02 0.13717937E+03</pdfrwt>
<totfact> 0.53072389E+02</totfact>
</mgrwt>
</event>
<event>
 7    1  0.1422977E-005  0.3281569E+03  0.7546771E-02  0.1080745E+00
          2   -1    0    0  501    0  0.00000000000E+00  0.00000000000E+00  0.12511060724E+04  0.12511060724E+04  0.00000000000E+00 0. -1.
         -2   -1    0    0    0  501 -0.00000000000E+00 -0.00000000000E+00 -0.70961637546E+02  0.70961637546E+02  0.00000000000E+00 0.  1.
         23    2    1    2    0    0  0.73622994102E+02  0.22087252198E+03  0.40717227653E+03  0.48232198560E+03  0.11242872762E+03 0.  0.
          5    1    1    2  502    0 -0.58372446822E+02 -0.23597579225E+03  0.77973017776E+03  0.81675771021E+03  0.47000000000E+01 0. -1.
         -5    1    1    2    0  502 -0.15250547280E+02  0.15103270272E+02 -0.67580194664E+01  0.22988014102E+02  0.47000000000E+01 0.  1.
        -11    1    3    3    0    0 -0.17032981999E+02  0.15174600675E+02  0.94611459331E+02  0.97322757966E+02  0.00000000000E+00 0. -1.
         11    1    3    3    0    0  0.90655976101E+02  0.20569792131E+03  0.31256081719E+03  0.38499922763E+03  0.00000000000E+00 0.  1.
<mgrwt>
<rscale>  0 0.30916827E+03</rscale>
<asrwt>0</asrwt>
<pdfrwt beam="1">  1        2 0.19247784E+00 0.32815686E+03</pdfrwt>
<pdfrwt beam="2">  1       -2 0.10917176E-01 0.32815686E+03</pdfrwt>
<totfact> 0.10756128E+03</totfact>
</mgrwt>
</event>
<event>
 7    1  0.1422977E-005  0.1569918E+03  0.7546771E-02  0.1200964E+00
         -1   -1    0    0    0  501 -0.00000000000E+00  0.00000000000E+00  0.37656977606E+02  0.37656977606E+02  0.00000000000E+00 0.  1.
          1   -1    0    0  501    0  0.00000000000E+00 -0.00000000000E+00 -0.96831860649E+03  0.96831860649E+03  0.00000000000E+00 0. -1.
         23    2    1    2    0    0 -0.75320868296E+02 -0.57861439902E+02 -0.10835294823E+03  0.16881490832E+03  0.87959834317E+02 0.  0.
          5    1    1    2  502    0  0.45488175658E+02  0.14339866939E+02 -0.82143964349E+02  0.95102717036E+02  0.47000000000E+01 0.  1.
         -5    1    1    2    0  502  0.29832692638E+02  0.43521572963E+02 -0.74016471630E+03  0.74205795873E+03  0.47000000000E+01 0.  1.
        -11    1    3    3    0    0 -0.67110824675E+02 -0.32292135370E+02 -0.20931048120E+02  0.77361189047E+02  0.00000000000E+00 0.  1.
         11    1    3    3    0    0 -0.82100436209E+01 -0.25569304532E+02 -0.87421900108E+02  0.91453719274E+02  0.00000000000E+00 0. -1.
<mgrwt>
<rscale>  0 0.14960148E+03</rscale>
<asrwt>0</asrwt>
<pdfrwt beam="2">  1        1 0.14897209E+00 0.15699182E+03</pdfrwt>
<pdfrwt beam="1">  1       -1 0.57933814E-02 0.15699182E+03</pdfrwt>
<totfact> 0.23604533E+03</totfact>
</mgrwt>
</event>
<event>
 7    1  0.1422977E-005  0.1912739E+03  0.7546771E-02  0.1182567E+00
          2   -1    0    0  501    0  0.00000000000E+00  0.00000000000E+00  0.69584904681E+03  0.69584904681E+03  0.00000000000E+00 0. -1.
         -2   -1    0    0    0  501 -0.00000000000E+00 -0.00000000000E+00 -0.39534016691E+02  0.39534016691E+02  0.00000000000E+00 0.  1.
         23    2    1    2    0    0  0.55954720919E+02  0.27516053807E+02  0.98509864802E+02  0.14569475820E+03  0.87376799521E+02 0.  0.
          5    1    1    2  502    0  0.58369499243E+02 -0.44037462189E+02  0.17256247452E+03  0.18747318243E+03  0.47000000000E+01 0. -1.
         -5    1    1    2    0  502 -0.11432422016E+03  0.16521408382E+02  0.38524269079E+03  0.40221512286E+03  0.47000000000E+01 0.  1.
        -11    1    3    3    0    0  0.42561810156E+02  0.56233483781E+02  0.86972252737E+02  0.11197269814E+03  0.00000000000E+00 0.  1.
         11    1    3    3    0    0  0.13392910763E+02 -0.28717429974E+02  0.11537612065E+02  0.33722060067E+02  0.00000000000E+00 0. -1.
<mgrwt>
<rscale>  0 0.16555273E+03</rscale>
<asrwt>0</asrwt>
<pdfrwt beam="1">  1        2 0.10705369E+00 0.19127387E+03</pdfrwt>
<pdfrwt beam="2">  1       -2 0.60821570E-02 0.19127387E+03</pdfrwt>
<totfact> 0.60126371E+03</totfact>
</mgrwt>
</event>
<event>
 7    1  0.1422977E-005  0.1751242E+03  0.7546771E-02  0.1178540E+00
         -2   -1    0    0    0  501 -0.00000000000E+00  0.00000000000E+00  0.58821936294E+03  0.58821936294E+03  0.00000000000E+00 0.  1.
          2   -1    0    0  501    0  0.00000000000E+00 -0.00000000000E+00 -0.47799328470E+02  0.47799328470E+02  0.00000000000E+00 0. -1.
         23    2    1    2    0    0 -0.86436444471E+02 -0.87017850739E+02  0.31794047560E+03  0.35288333442E+03  0.91635890377E+02 0.  0.
          5    1    1    2  502    0  0.80865840060E+02 -0.46933767837E+01  0.83201325082E+02  0.11621472527E+03  0.47000000000E+01 0.  1.
         -5    1    1    2    0  502  0.55706044111E+01  0.91711227523E+02  0.13927823378E+03  0.16692063172E+03  0.47000000000E+01 0.  1.
        -11    1    3    3    0    0 -0.61140057749E+02 -0.99676691359E+02  0.29183862592E+03  0.31439359574E+03  0.00000000000E+00 0.  1.
         11    1    3    3    0    0 -0.25296386722E+02  0.12658840619E+02  0.26101849682E+02  0.38489738682E+02  0.00000000000E+00 0. -1.
<mgrwt>
<rscale>  0 0.16933839E+03</rscale>
<asrwt>0</asrwt>
<pdfrwt beam="2">  1        2 0.73537433E-02 0.17512417E+03</pdfrwt>
<pdfrwt beam="1">  1       -2 0.90495282E-01 0.17512417E+03</pdfrwt>
<totfact> 0.10066078E+03</totfact>
</mgrwt>
</event>
<event>
 7    1  0.1422977E-005  0.1420776E+03  0.7546771E-02  0.1222005E+00
          2   -1    0    0  501    0  0.00000000000E+00  0.00000000000E+00  0.13466853337E+04  0.13466853337E+04  0.00000000000E+00 0. -1.
         -2   -1    0    0    0  501 -0.00000000000E+00 -0.00000000000E+00 -0.15721332753E+02  0.15721332753E+02  0.00000000000E+00 0.  1.
         23    2    1    2    0    0 -0.68699417251E+01 -0.67185401915E+02  0.27253170524E+03  0.29448111870E+03  0.88794845458E+02 0.  0.
          5    1    1    2  502    0  0.31234942794E+01  0.86045425698E+02  0.10280739635E+04  0.10316839321E+04  0.47000000000E+01 0.  1.
         -5    1    1    2    0  502  0.37464474456E+01 -0.18860023782E+02  0.30358332283E+02  0.36241615644E+02  0.47000000000E+01 0.  1.
        -11    1    3    3    0    0  0.31748767891E+02 -0.13161888704E+02  0.40419575914E+02  0.53056212585E+02  0.00000000000E+00 0.  1.
         11    1    3    3    0    0 -0.38618709616E+02 -0.54023513212E+02  0.23211212933E+03  0.24142490612E+03  0.00000000000E+00 0. -1.
<mgrwt>
<rscale>  0 0.13374305E+03</rscale>
<asrwt>0</asrwt>
<pdfrwt beam="1">  1        2 0.20718227E+00 0.14207762E+03</pdfrwt>
<pdfrwt beam="2">  1       -2 0.24186676E-02 0.14207762E+03</pdfrwt>
<totfact> 0.94073677E+03</totfact>
</mgrwt>
</event>
<event>
 7    1  0.1422977E-005  0.1719695E+03  0.7546771E-02  0.1182606E+00
         -1   -1    0    0    0  501 -0.00000000000E+00  0.00000000000E+00  0.78704382796E+02  0.78704382796E+02  0.00000000000E+00 0.  1.
          1   -1    0    0  501    0  0.00000000000E+00 -0.00000000000E+00 -0.32896276981E+03  0.32896276981E+03  0.00000000000E+00 0. -1.
         23    2    1    2    0    0 -0.56059032378E+02  0.10395988688E+03 -0.13979933427E+03  0.20327848275E+03  0.88476067355E+02 0.  0.
          5    1    1    2  502    0  0.26135523076E+02 -0.75606489121E+02  0.63935189166E+01  0.80388891321E+02  0.47000000000E+01 0.  1.
         -5    1    1    2    0  502  0.29923509302E+02 -0.28353397761E+02 -0.11685257166E+03  0.12399977854E+03  0.47000000000E+01 0.  1.
        -11    1    3    3    0    0 -0.23231538305E+01  0.47444695462E+02 -0.52866688354E+01  0.47794822299E+02  0.00000000000E+00 0.  1.
         11    1    3    3    0    0 -0.53735878548E+02  0.56515191419E+02 -0.13451266543E+03  0.15548366045E+03  0.00000000000E+00 0. -1.
<mgrwt>
<rscale>  0 0.16551663E+03</rscale>
<asrwt>0</asrwt>
<pdfrwt beam="2">  1        1 0.50609656E-01 0.17196955E+03</pdfrwt>
<pdfrwt beam="1">  1       -1 0.12108367E-01 0.17196955E+03</pdfrwt>
<totfact> 0.34402470E+03</totfact>
</mgrwt>
</event>
<event>
 7    1  0.1422977E-005  0.1568595E+03  0.7546771E-02  0.1200223E+00
         -1   -1    0    0    0  501 -0.00000000000E+00  0.00000000000E+00  0.11427341185E+03  0.11427341185E+03  0.00000000000E+00 0.  1.
          1   -1    0    0  501    0  0.00000000000E+00 -0.00000000000E+00 -0.19290798077E+03  0.19290798077E+03  0.00000000000E+00 0. -1.
         23    2    1    2    0    0  0.23945803316E+01  0.94734212060E+02 -0.37903291475E+00  0.13188494587E+03  0.91723444836E+02 0.  0.
          5    1    1    2  502    0 -0.23640567012E+02 -0.45448634389E+02 -0.10366630292E+03  0.11572919743E+03  0.47000000000E+01 0. -1.
         -5    1    1    2    0  502  0.21245986681E+02 -0.49285577671E+02  0.25410766918E+02  0.59567249322E+02  0.47000000000E+01 0. -1.
        -11    1    3    3    0    0 -0.31515171217E+02  0.50879466217E+02  0.31814084707E+02  0.67779510806E+02  0.00000000000E+00 0. -1.
         11    1    3    3    0    0  0.33909751548E+02  0.43854745842E+02 -0.32193117621E+02  0.64105435067E+02  0.00000000000E+00 0.  1.
<mgrwt>
<rscale>  0 0.15020402E+03</rscale>
<asrwt>0</asrwt>
<pdfrwt beam="2">  1        1 0.29678151E-01 0.15685954E+03</pdfrwt>
<pdfrwt beam="1">  1       -1 0.17580525E-01 0.15685954E+03</pdfrwt>
<totfact> 0.37067820E+03</totfact>
</mgrwt>
</event>
<event>
 7    1  0.1422977E-005  0.1566229E+03  0.7546771E-02  0.1200680E+00
         -2   -1    0    0    0  501 -0.00000000000E+00  0.00000000000E+00  0.33809487481E+02  0.33809487481E+02  0.00000000000E+00 0.  1.
          2   -1    0    0  501    0  0.00000000000E+00 -0.00000000000E+00 -0.62784210732E+03  0.62784210732E+03  0.00000000000E+00 0. -1.
         23    2    1    2    0    0  0.74666401244E+01  0.94102940819E+02 -0.21980781736E+03  0.25597321470E+03  0.91080710822E+02 0.  0.
          5    1    1    2  502    0 -0.48657232517E+02 -0.73539710957E+02 -0.13030507429E+03  0.15740748950E+03  0.47000000000E+01 0. -1.
         -5    1    1    2    0  502  0.41190592393E+02 -0.20563229862E+02 -0.24391972818E+03  0.24827089060E+03  0.47000000000E+01 0. -1.
        -11    1    3    3    0    0 -0.23073001488E+02  0.51138238362E+02 -0.18370899562E+03  0.19208455922E+03  0.00000000000E+00 0. -1.
         11    1    3    3    0    0  0.30539641612E+02  0.42964702457E+02 -0.36098821738E+02  0.63888655471E+02  0.00000000000E+00 0.  1.
<mgrwt>
<rscale>  0 0.14983183E+03</rscale>
<asrwt>0</asrwt>
<pdfrwt beam="2">  1        2 0.96591095E-01 0.15662294E+03</pdfrwt>
<pdfrwt beam="1">  1       -2 0.52014595E-02 0.15662294E+03</pdfrwt>
<totfact> 0.85225119E+03</totfact>
</mgrwt>
</event>
<event>
 7    1  0.1422977E-005  0.2114976E+03  0.7546771E-02  0.1143996E+00
          2   -1    0    0  501    0  0.00000000000E+00  0.00000000000E+00  0.16049335682E+04  0.16049335682E+04  0.00000000000E+00 0.  1.
         -2   -1    0    0    0  501 -0.00000000000E+00 -0.00000000000E+00 -0.27193822796E+02  0.27193822796E+02  0.00000000000E+00 0. -1.
         23    2    1    2    0    0 -0.14168145377E+03 -0.95035274464E+02  0.55951160654E+03  0.59216595034E+03  0.92205949703E+02 0.  0.
          5    1    1    2  502    0  0.87729722433E+02  0.82113725557E+02  0.36360698477E+03  0.38297688899E+03  0.47000000000E+01 0.  1.
         -5    1    1    2    0  502  0.53951731334E+02  0.12921548907E+02  0.65462115411E+03  0.65698455168E+03  0.47000000000E+01 0.  1.
        -11    1    3    3    0    0 -0.60353054948E+02 -0.34810597654E+02  0.10152925146E+03  0.12313593242E+03  0.00000000000E+00 0.  1.
         11    1    3    3    0    0 -0.81328398819E+02 -0.60224676810E+02  0.45798235508E+03  0.46903001792E+03  0.00000000000E+00 0. -1.
<mgrwt>
<rscale>  0 0.20696082E+03</rscale>
<asrwt>0</asrwt>
<pdfrwt beam="1">  1        2 0.24691278E+00 0.21149765E+03</pdfrwt>
<pdfrwt beam="2">  1       -2 0.41836663E-02 0.21149765E+03</pdfrwt>
<totfact> 0.30774565E+03</totfact>
</mgrwt>
</event>
<event>
 7    1  0.1422977E-005  0.2266424E+03  0.7546771E-02  0.1154613E+00
         -2   -1    0    0    0  501 -0.00000000000E+00  0.00000000000E+00  0.21167689848E+02  0.21167689848E+02  0.00000000000E+00 0.  1.
          2   -1    0    0  501    0  0.00000000000E+00 -0.00000000000E+00 -0.16311003610E+04  0.16311003610E+04  0.00000000000E+00 0. -1.
         23    2    1    2    0    0 -0.59342297761E+02 -0.33181557656E+02 -0.32137066197E+03  0.34392603584E+03  0.10189941942E+03 0.  0.
          5    1    1    2  502    0 -0.20712158106E+02 -0.65130493771E+02 -0.82162718038E+03  0.82447819150E+03  0.47000000000E+01 0. -1.
         -5    1    1    2    0  502  0.80054455867E+02  0.98312051427E+02 -0.46693482875E+03  0.48386382347E+03  0.47000000000E+01 0.  1.
        -11    1    3    3    0    0 -0.88481033164E+02 -0.27272257938E+02 -0.25097991171E+03  0.26751371061E+03  0.00000000000E+00 0.  1.
         11    1    3    3    0    0  0.29138735403E+02 -0.59092997180E+01 -0.70390750269E+02  0.76412325233E+02  0.00000000000E+00 0. -1.
<mgrwt>
<rscale>  0 0.19432964E+03</rscale>
<asrwt>0</asrwt>
<pdfrwt beam="2">  1        2 0.25093849E+00 0.22664240E+03</pdfrwt>
<pdfrwt beam="1">  1       -2 0.32565680E-02 0.22664240E+03</pdfrwt>
<totfact> 0.43418438E+03</totfact>
</mgrwt>
</event>
<event>
 7    1  0.1422977E-005  0.1586053E+03  0.7546771E-02  0.1198171E+00
         -1   -1    0    0    0  501 -0.00000000000E+00  0.00000000000E+00  0.11843278427E+03  0.11843278427E+03  0.00000000000E+00 0.  1.
          1   -1    0    0  501    0  0.00000000000E+00 -0.00000000000E+00 -0.21601543253E+03  0.21601543253E+03  0.00000000000E+00 0. -1.
         23    2    1    2    0    0  0.18779978740E+02  0.95798545298E+02  0.22797715888E+02  0.13533251760E+03  0.90912626121E+02 0.  0.
          5    1    1    2  502    0 -0.42438384069E+02 -0.80428244281E+02 -0.18008031798E+02  0.92822939674E+02  0.47000000000E+01 0.  1.
         -5    1    1    2    0  502  0.23658405328E+02 -0.15370301017E+02 -0.10237233235E+03  0.10629275952E+03  0.47000000000E+01 0.  1.
        -11    1    3    3    0    0 -0.95569884370E+01  0.28553762712E+02  0.49240852908E+02  0.57717544890E+02  0.00000000000E+00 0.  1.
         11    1    3    3    0    0  0.28336967177E+02  0.67244782586E+02 -0.26443137019E+02  0.77614972713E+02  0.00000000000E+00 0. -1.
<mgrwt>
<rscale>  0 0.15188886E+03</rscale>
<asrwt>0</asrwt>
<pdfrwt beam="2">  1        1 0.33233143E-01 0.15860526E+03</pdfrwt>
<pdfrwt beam="1">  1       -1 0.18220428E-01 0.15860526E+03</pdfrwt>
<totfact> 0.30420259E+03</totfact>
</mgrwt>
</event>
<event>
 7    1  0.1422977E-005  0.2180433E+03  0.7546771E-02  0.1138992E+00
          1   -1    0    0  501    0  0.00000000000E+00  0.00000000000E+00  0.61610696553E+02  0.61610696553E+02  0.00000000000E+00 0.  1.
         -1   -1    0    0    0  501 -0.00000000000E+00 -0.00000000000E+00 -0.77612228130E+03  0.77612228130E+03  0.00000000000E+00 0. -1.
         23    2    1    2    0    0  0.62434383558E+02 -0.16747088719E+03 -0.46701203802E+03  0.50788621247E+03  0.88902254500E+02 0.  0.
          5    1    1    2  502    0 -0.94705021019E+02  0.11880803248E+03 -0.13632742835E+03  0.20418532589E+03  0.47000000000E+01 0.  1.
         -5    1    1    2    0  502  0.32270637461E+02  0.48662854712E+02 -0.11117211838E+03  0.12566143949E+03  0.47000000000E+01 0.  1.
        -11    1    3    3    0    0  0.25016977569E+02 -0.62331982880E+01 -0.25057556428E+02  0.35952511202E+02  0.00000000000E+00 0.  1.
         11    1    3    3    0    0  0.37417405989E+02 -0.16123768891E+03 -0.44195448159E+03  0.47193370127E+03  0.00000000000E+00 0. -1.
<mgrwt>
<rscale>  0 0.21328388E+03</rscale>
<asrwt>0</asrwt>
<pdfrwt beam="1">  1        1 0.94785677E-02 0.21804326E+03</pdfrwt>
<pdfrwt beam="2">  1       -1 0.11940344E+00 0.21804326E+03</pdfrwt>
<totfact> 0.46211794E+02</totfact>
</mgrwt>
</event>
<event>
 7    1  0.1422977E-005  0.1875805E+03  0.7546771E-02  0.1165780E+00
         -2   -1    0    0    0  501 -0.00000000000E+00  0.00000000000E+00  0.46294607779E+02  0.46294607779E+02  0.00000000000E+00 0.  1.
          2   -1    0    0  501    0  0.00000000000E+00 -0.00000000000E+00 -0.70628711384E+03  0.70628711384E+03  0.00000000000E+00 0. -1.
         23    2    1    2    0    0  0.59190992209E+02 -0.12672398628E+03 -0.23544637320E+03  0.28844181196E+03  0.90560156660E+02 0.  0.
          5    1    1    2  502    0 -0.84538659852E+02  0.11874127066E+03 -0.26638486545E+03  0.30369270803E+03  0.47000000000E+01 0.  1.
         -5    1    1    2    0  502  0.25347667643E+02  0.79827156199E+01 -0.15816126741E+03  0.16044720163E+03  0.47000000000E+01 0.  1.
        -11    1    3    3    0    0  0.11039264492E+02 -0.10909032343E+03 -0.12252788648E+03  0.16442520182E+03  0.00000000000E+00 0.  1.
         11    1    3    3    0    0  0.48151727716E+02 -0.17633662848E+02 -0.11291848672E+03  0.12401661014E+03  0.00000000000E+00 0. -1.
<mgrwt>
<rscale>  0 0.18210647E+03</rscale>
<asrwt>0</asrwt>
<pdfrwt beam="2">  1        2 0.10865955E+00 0.18758048E+03</pdfrwt>
<pdfrwt beam="1">  1       -2 0.71222479E-02 0.18758048E+03</pdfrwt>
<totfact> 0.46296203E+03</totfact>
</mgrwt>
</event>
<event>
 7    1  0.1422977E-005  0.1302654E+03  0.7546771E-02  0.1239985E+00
          2   -1    0    0  501    0  0.00000000000E+00  0.00000000000E+00  0.16762409840E+03  0.16762409840E+03  0.00000000000E+00 0. -1.
         -2   -1    0    0    0  501 -0.00000000000E+00 -0.00000000000E+00 -0.99889518587E+02  0.99889518587E+02  0.00000000000E+00 0.  1.
         23    2    1    2    0    0  0.36539059032E+02  0.29339497319E+01 -0.30383322273E+02  0.10443017229E+03  0.92945165102E+02 0.  0.
          5    1    1    2  502    0  0.25340628257E+02 -0.44076242376E+02  0.62031878201E+02  0.80342432721E+02  0.47000000000E+01 0.  1.
         -5    1    1    2    0  502 -0.61879687288E+02  0.41142292644E+02  0.36086023880E+02  0.82741011973E+02  0.47000000000E+01 0.  1.
        -11    1    3    3    0    0  0.68121154704E+01  0.37641041099E+02 -0.42473875110E+02  0.57160151846E+02  0.00000000000E+00 0.  1.
         11    1    3    3    0    0  0.29726943561E+02 -0.34707091367E+02  0.12090552837E+02  0.47270020442E+02  0.00000000000E+00 0. -1.
<mgrwt>
<rscale>  0 0.12190652E+03</rscale>
<asrwt>0</asrwt>
<pdfrwt beam="1">  1        2 0.25788323E-01 0.13026545E+03</pdfrwt>
<pdfrwt beam="2">  1       -2 0.15367618E-01 0.13026545E+03</pdfrwt>
<totfact> 0.64698946E+03</totfact>
</mgrwt>
</event>
<event>
 7    1  0.1422977E-005  0.1277578E+03  0.7546771E-02  0.1249451E+00
         -2   -1    0    0    0  501 -0.00000000000E+00  0.00000000000E+00  0.24883128107E+02  0.24883128107E+02  0.00000000000E+00 0.  1.
          2   -1    0    0  501    0  0.00000000000E+00 -0.00000000000E+00 -0.48466446654E+03  0.48466446654E+03  0.00000000000E+00 0. -1.
         23    2    1    2    0    0 -0.26296832851E+02  0.26340341341E+01 -0.13894563078E+03  0.16421066066E+03  0.83431356267E+02 0.  0.
          5    1    1    2  502    0  0.43915846130E+02  0.17689499391E+02 -0.37210980106E+02  0.60400885510E+02  0.47000000000E+01 0. -1.
         -5    1    1    2    0  502 -0.17619013279E+02 -0.20323533525E+02 -0.28362472755E+03  0.28493604847E+03  0.47000000000E+01 0. -1.
        -11    1    3    3    0    0  0.21981926129E+02  0.21365012180E+02 -0.80417686509E+02  0.86062030683E+02  0.00000000000E+00 0.  1.
         11    1    3    3    0    0 -0.48278758980E+02 -0.18730978045E+02 -0.58527944274E+02  0.78148629982E+02  0.00000000000E+00 0. -1.
<mgrwt>
<rscale>  0 0.11622881E+03</rscale>
<asrwt>0</asrwt>
<pdfrwt beam="2">  1        2 0.74563756E-01 0.12775777E+03</pdfrwt>
<pdfrwt beam="1">  1       -2 0.38281740E-02 0.12775777E+03</pdfrwt>
<totfact> 0.17751475E+04</totfact>
</mgrwt>
</event>
<event>
 7    1  0.1489491E-005  0.1253071E+03  0.7546771E-02  0.1250443E+00
          3   -1    0    0  501    0  0.00000000000E+00  0.00000000000E+00  0.62155052552E+02  0.62155052552E+02  0.00000000000E+00 0. -1.
         -3   -1    0    0    0  501 -0.00000000000E+00 -0.00000000000E+00 -0.19110229753E+03  0.19110229753E+03  0.00000000000E+00 0.  1.
         23    2    1    2    0    0 -0.53321382456E+01 -0.69535473794E+01 -0.70118174745E+02  0.11482786301E+03  0.90510199283E+02 0.  0.
          5    1    1    2  502    0 -0.44301263464E+02  0.28885656207E+02  0.63676500822E+01  0.53475415347E+02  0.47000000000E+01 0. -1.
         -5    1    1    2    0  502  0.49633401709E+02 -0.21932108828E+02 -0.65196720315E+02  0.84954071725E+02  0.47000000000E+01 0. -1.
        -11    1    3    3    0    0 -0.25998920785E+02  0.34952544791E+02 -0.27017972366E+02  0.51260073157E+02  0.00000000000E+00 0. -1.
         11    1    3    3    0    0  0.20666782540E+02 -0.41906092170E+02 -0.43100202379E+02  0.63567789852E+02  0.00000000000E+00 0.  1.
<mgrwt>
<rscale>  0 0.11565450E+03</rscale>
<asrwt>0</asrwt>
<pdfrwt beam="1">  1        3 0.95623159E-02 0.12530708E+03</pdfrwt>
<pdfrwt beam="2">  1       -3 0.29400353E-01 0.12530708E+03</pdfrwt>
<totfact> 0.20024648E+03</totfact>
</mgrwt>
</event>
<event>
 7    1  0.1422977E-005  0.1376889E+03  0.7546771E-02  0.1228250E+00
          2   -1    0    0  501    0  0.00000000000E+00  0.00000000000E+00  0.34231393639E+03  0.34231393639E+03  0.00000000000E+00 0. -1.
         -2   -1    0    0    0  501 -0.00000000000E+00 -0.00000000000E+00 -0.45488168929E+02  0.45488168929E+02  0.00000000000E+00 0.  1.
         23    2    1    2    0    0 -0.57518680227E+02  0.50926571931E+01  0.95461315676E+02  0.14386383964E+03  0.90827351786E+02 0.  0.
          5    1    1    2  502    0  0.86662572262E+02  0.10104394174E+02  0.18950982308E+03  0.20868292517E+03  0.47000000000E+01 0. -1.
         -5    1    1    2    0  502 -0.29143892035E+02 -0.15197051367E+02  0.11854628708E+02  0.35255340517E+02  0.47000000000E+01 0. -1.
        -11    1    3    3    0    0 -0.15011074136E+02 -0.19161586106E+02 -0.10985512020E+02  0.26705433964E+02  0.00000000000E+00 0.  1.
         11    1    3    3    0    0 -0.42507606090E+02  0.24254243299E+02  0.10644682770E+03  0.11715840567E+03  0.00000000000E+00 0. -1.
<mgrwt>
<rscale>  0 0.12946616E+03</rscale>
<asrwt>0</asrwt>
<pdfrwt beam="1">  1        2 0.52663681E-01 0.13768891E+03</pdfrwt>
<pdfrwt beam="2">  1       -2 0.69981801E-02 0.13768891E+03</pdfrwt>
<totfact> 0.10462440E+04</totfact>
</mgrwt>
</event>
<event>
 7    1  0.1422977E-005  0.1346315E+03  0.7546771E-02  0.1234195E+00
         -2   -1    0    0    0  501 -0.00000000000E+00  0.00000000000E+00  0.34697438920E+03  0.34697438920E+03  0.00000000000E+00 0.  1.
          2   -1    0    0  501    0  0.00000000000E+00 -0.00000000000E+00 -0.40937166432E+02  0.40937166432E+02  0.00000000000E+00 0. -1.
         23    2    1    2    0    0 -0.48630560598E+02 -0.11642632675E+02  0.10808413507E+03  0.14851425220E+03  0.88734550957E+02 0.  0.
          5    1    1    2  502    0  0.90845290071E+02  0.11507866961E+02  0.14427510578E+03  0.17094646494E+03  0.47000000000E+01 0. -1.
         -5    1    1    2    0  502 -0.42214729473E+02  0.13476571435E+00  0.53677981921E+02  0.68450838486E+02  0.47000000000E+01 0. -1.
        -11    1    3    3    0    0 -0.34045113884E+02 -0.14272492655E+02  0.12243799782E+03  0.12788212203E+03  0.00000000000E+00 0.  1.
         11    1    3    3    0    0 -0.14585446714E+02  0.26298599796E+01 -0.14353862750E+02  0.20632130167E+02  0.00000000000E+00 0. -1.
<mgrwt>
<rscale>  0 0.12556104E+03</rscale>
<asrwt>0</asrwt>
<pdfrwt beam="2">  1        2 0.62980258E-02 0.13463151E+03</pdfrwt>
<pdfrwt beam="1">  1       -2 0.53380673E-01 0.13463151E+03</pdfrwt>
<totfact> 0.37184379E+03</totfact>
</mgrwt>
</event>
<event>
 7    1  0.1422977E-005  0.1328666E+03  0.7546771E-02  0.1235795E+00
         -2   -1    0    0    0  501 -0.00000000000E+00  0.00000000000E+00  0.45494205447E+02  0.45494205447E+02  0.00000000000E+00 0.  1.
          2   -1    0    0  501    0  0.00000000000E+00 -0.00000000000E+00 -0.30887998641E+03  0.30887998641E+03  0.00000000000E+00 0. -1.
         23    2    1    2    0    0 -0.29272063644E+02 -0.34200502497E+02 -0.94169314214E+02  0.13922833661E+03  0.92141965979E+02 0.  0.
          5    1    1    2  502    0  0.60794743730E+02 -0.16032481645E+02 -0.12826430888E+03  0.14292258137E+03  0.47000000000E+01 0. -1.
         -5    1    1    2    0  502 -0.31522680086E+02  0.50232984143E+02 -0.40952157870E+02  0.72223273880E+02  0.47000000000E+01 0. -1.
        -11    1    3    3    0    0 -0.29539183070E+01 -0.58631824098E+02 -0.82919098391E+02  0.10159721113E+03  0.00000000000E+00 0. -1.
         11    1    3    3    0    0 -0.26318145337E+02  0.24431321601E+02 -0.11250215823E+02  0.37631125484E+02  0.00000000000E+00 0.  1.
<mgrwt>
<rscale>  0 0.12453648E+03</rscale>
<asrwt>0</asrwt>
<pdfrwt beam="2">  1        2 0.47519998E-01 0.13286657E+03</pdfrwt>
<pdfrwt beam="1">  1       -2 0.69991086E-02 0.13286657E+03</pdfrwt>
<totfact> 0.11633330E+04</totfact>
</mgrwt>
</event>
<event>
 7    1  0.1422977E-005  0.1276846E+03  0.7546771E-02  0.1244531E+00
         -1   -1    0    0    0  501 -0.00000000000E+00  0.00000000000E+00  0.54155168179E+02  0.54155168179E+02  0.00000000000E+00 0.  1.
          1   -1    0    0  501    0  0.00000000000E+00 -0.00000000000E+00 -0.24155801343E+03  0.24155801343E+03  0.00000000000E+00 0. -1.
         23    2    1    2    0    0 -0.20211274409E+02 -0.16402921883E+02 -0.53018300955E+02  0.11034177803E+03  0.93203091596E+02 0.  0.
          5    1    1    2  502    0 -0.31165907094E+02  0.45409666449E+02 -0.24293639481E+02  0.60378990479E+02  0.47000000000E+01 0. -1.
         -5    1    1    2    0  502  0.51377181503E+02 -0.29006744566E+02 -0.11009090481E+03  0.12499241310E+03  0.47000000000E+01 0. -1.
        -11    1    3    3    0    0  0.16013203522E+02 -0.27733341060E+02 -0.63368356227E+02  0.71000770871E+02  0.00000000000E+00 0. -1.
         11    1    3    3    0    0 -0.36224477931E+02  0.11330419177E+02  0.10350055272E+02  0.39341007158E+02  0.00000000000E+00 0.  1.
<mgrwt>
<rscale>  0 0.11913480E+03</rscale>
<asrwt>0</asrwt>
<pdfrwt beam="2">  1        1 0.37162772E-01 0.12768458E+03</pdfrwt>
<pdfrwt beam="1">  1       -1 0.83315641E-02 0.12768458E+03</pdfrwt>
<totfact> 0.87885984E+03</totfact>
</mgrwt>
</event>
<event>
 7    1  0.1422977E-005  0.2602183E+03  0.7546771E-02  0.1109682E+00
          1   -1    0    0  501    0  0.00000000000E+00  0.00000000000E+00  0.12838976918E+03  0.12838976918E+03  0.00000000000E+00 0. -1.
         -1   -1    0    0    0  501 -0.00000000000E+00 -0.00000000000E+00 -0.52719879414E+03  0.52719879414E+03  0.00000000000E+00 0.  1.
         23    2    1    2    0    0 -0.16309993687E+03 -0.15965519175E+03 -0.10984878819E+03  0.26672925640E+03  0.83584509865E+02 0.  0.
          5    1    1    2  502    0  0.71210608944E+02  0.75394199855E+02 -0.22688392707E+03  0.24950679863E+03  0.47000000000E+01 0.  1.
         -5    1    1    2    0  502  0.91889327929E+02  0.84260991897E+02 -0.62076309707E+02  0.13935250830E+03  0.47000000000E+01 0.  1.
        -11    1    3    3    0    0  0.94945115064E+01 -0.11473995632E+02 -0.11882010389E+02  0.19052047013E+02  0.00000000000E+00 0. -1.
         11    1    3    3    0    0 -0.17259444838E+03 -0.14818119612E+03 -0.97966777801E+02  0.24767720938E+03  0.00000000000E+00 0.  1.
<mgrwt>
<rscale>  0 0.25581812E+03</rscale>
<asrwt>0</asrwt>
<pdfrwt beam="1">  1        1 0.19752272E-01 0.26021826E+03</pdfrwt>
<pdfrwt beam="2">  1       -1 0.81107506E-01 0.26021826E+03</pdfrwt>
<totfact> 0.41279478E+02</totfact>
</mgrwt>
</event>
<event>
 7    1  0.1422977E-005  0.3549854E+03  0.7546771E-02  0.1060587E+00
         -1   -1    0    0    0  501 -0.00000000000E+00  0.00000000000E+00  0.53546798554E+02  0.53546798554E+02  0.00000000000E+00 0.  1.
          1   -1    0    0  501    0  0.00000000000E+00 -0.00000000000E+00 -0.58833872542E+03  0.58833872542E+03  0.00000000000E+00 0. -1.
         23    2    1    2    0    0 -0.16619740143E+02  0.34756173872E+02 -0.27692396501E+02  0.10243179667E+03  0.90781037451E+02 0.  0.
          5    1    1    2  502    0  0.26329121198E+02 -0.65015344146E+02 -0.50203397285E+03  0.50693235988E+03  0.47000000000E+01 0. -1.
         -5    1    1    2    0  502 -0.97093810552E+01  0.30259170274E+02 -0.50655575154E+01  0.32521367423E+02  0.47000000000E+01 0.  1.
        -11    1    3    3    0    0 -0.46342147778E+02  0.14115811296E+02 -0.41411721717E+02  0.63732107173E+02  0.00000000000E+00 0.  1.
         11    1    3    3    0    0  0.29722407635E+02  0.20640362576E+02  0.13719325216E+02  0.38699689498E+02  0.00000000000E+00 0. -1.
<mgrwt>
<rscale>  0 0.35498538E+03</rscale>
<asrwt>0</asrwt>
<pdfrwt beam="2">  1        1 0.90513645E-01 0.35498538E+03</pdfrwt>
<pdfrwt beam="1">  1       -1 0.82379695E-02 0.35498538E+03</pdfrwt>
<totfact> 0.29845625E+03</totfact>
</mgrwt>
</event>
<event>
 7    1  0.1422977E-005  0.3723559E+03  0.7546771E-02  0.1053796E+00
          2   -1    0    0  501    0  0.00000000000E+00  0.00000000000E+00  0.20195183585E+03  0.20195183585E+03  0.00000000000E+00 0. -1.
         -2   -1    0    0    0  501 -0.00000000000E+00 -0.00000000000E+00 -0.17163607798E+03  0.17163607798E+03  0.00000000000E+00 0.  1.
         23    2    1    2    0    0 -0.20298435289E+02  0.86020614166E+01 -0.10339591119E+03  0.13816334617E+03  0.88951525204E+02 0.  0.
          5    1    1    2  502    0  0.33258827313E+02 -0.43593515146E+01  0.18195000531E+03  0.18507578980E+03  0.47000000000E+01 0. -1.
         -5    1    1    2    0  502 -0.12960392024E+02 -0.42427099020E+01 -0.48238336240E+02  0.50348777859E+02  0.47000000000E+01 0.  1.
        -11    1    3    3    0    0 -0.23937945289E+02  0.47171801370E+02 -0.60291707429E+02  0.80207817910E+02  0.00000000000E+00 0.  1.
         11    1    3    3    0    0  0.36395100002E+01 -0.38569739953E+02 -0.43104203766E+02  0.57955528256E+02  0.00000000000E+00 0. -1.
<mgrwt>
<rscale>  0 0.37235586E+03</rscale>
<asrwt>0</asrwt>
<pdfrwt beam="1">  1        2 0.31069513E-01 0.37235586E+03</pdfrwt>
<pdfrwt beam="2">  1       -2 0.26405551E-01 0.37235586E+03</pdfrwt>
<totfact> 0.21867571E+03</totfact>
</mgrwt>
</event>
<event>
 7    1  0.1422977E-005  0.1885776E+03  0.7546771E-02  0.1165858E+00
         -2   -1    0    0    0  501 -0.00000000000E+00  0.00000000000E+00  0.31353111321E+02  0.31353111321E+02  0.00000000000E+00 0.  1.
          2   -1    0    0  501    0  0.00000000000E+00 -0.00000000000E+00 -0.10790377262E+04  0.10790377262E+04  0.00000000000E+00 0. -1.
         23    2    1    2    0    0 -0.13129824983E+03  0.51953394845E+02 -0.33037312404E+03  0.36870541162E+03  0.82818438911E+02 0.  0.
          5    1    1    2  502    0  0.14265809174E+03 -0.75898701286E+02 -0.61431137860E+03  0.63522634067E+03  0.47000000000E+01 0. -1.
         -5    1    1    2    0  502 -0.11359841911E+02  0.23945306440E+02 -0.10300011223E+03  0.10645908523E+03  0.47000000000E+01 0. -1.
        -11    1    3    3    0    0 -0.62038022784E+02 -0.18661413490E+02 -0.13193528748E+03  0.14698260002E+03  0.00000000000E+00 0. -1.
         11    1    3    3    0    0 -0.69260227043E+02  0.70614808336E+02 -0.19843783656E+03  0.22172281160E+03  0.00000000000E+00 0.  1.
<mgrwt>
<rscale>  0 0.18202408E+03</rscale>
<asrwt>0</asrwt>
<pdfrwt beam="2">  1        2 0.16600580E+00 0.18857756E+03</pdfrwt>
<pdfrwt beam="1">  1       -2 0.48235557E-02 0.18857756E+03</pdfrwt>
<totfact> 0.48088609E+03</totfact>
</mgrwt>
</event>
<event>
 7    1  0.1422977E-005  0.1715257E+03  0.7546771E-02  0.1199636E+00
         -2   -1    0    0    0  501 -0.00000000000E+00  0.00000000000E+00  0.40958946560E+02  0.40958946560E+02  0.00000000000E+00 0.  1.
          2   -1    0    0  501    0  0.00000000000E+00 -0.00000000000E+00 -0.46597540732E+03  0.46597540732E+03  0.00000000000E+00 0. -1.
         23    2    1    2    0    0  0.44701796559E+02  0.48690251783E+01 -0.19336797828E+03  0.21869475191E+03  0.91729283593E+02 0.  0.
          5    1    1    2  502    0 -0.75072836069E+02 -0.94630606820E+01 -0.24346426204E+03  0.25499493549E+03  0.47000000000E+01 0. -1.
         -5    1    1    2    0  502  0.30371039510E+02  0.45940355037E+01  0.11815779556E+02  0.33244666484E+02  0.47000000000E+01 0.  1.
        -11    1    3    3    0    0  0.13289576077E+02 -0.17183485509E+02 -0.17223557529E+00  0.21723597115E+02  0.00000000000E+00 0. -1.
         11    1    3    3    0    0  0.31412220482E+02  0.22052510687E+02 -0.19319574270E+03  0.19697115479E+03  0.00000000000E+00 0.  1.
<mgrwt>
<rscale>  0 0.15068316E+03</rscale>
<asrwt>0</asrwt>
<pdfrwt beam="2">  1        2 0.71688521E-01 0.17152565E+03</pdfrwt>
<pdfrwt beam="1">  1       -2 0.63013767E-02 0.17152565E+03</pdfrwt>
<totfact> 0.89484233E+03</totfact>
</mgrwt>
</event>
<event>
 7    1  0.1422977E-005  0.1255380E+03  0.7546771E-02  0.1248613E+00
         -1   -1    0    0    0  501 -0.00000000000E+00  0.00000000000E+00  0.32938954815E+02  0.32938954815E+02  0.00000000000E+00 0.  1.
          1   -1    0    0  501    0  0.00000000000E+00 -0.00000000000E+00 -0.57202423357E+03  0.57202423357E+03  0.00000000000E+00 0. -1.
         23    2    1    2    0    0 -0.31117871297E+01  0.11240846219E+02 -0.63962525738E+02  0.11353525254E+03  0.93075286878E+02 0.  0.
          5    1    1    2  502    0 -0.11496330548E+02 -0.66056642082E+02 -0.29329648230E+03  0.30089958808E+03  0.47000000000E+01 0. -1.
         -5    1    1    2    0  502  0.14608117677E+02  0.54815795863E+02 -0.18182627072E+03  0.19052834777E+03  0.47000000000E+01 0. -1.
        -11    1    3    3    0    0  0.91227388622E+01  0.43735279358E+02 -0.47961972584E+01  0.44933312064E+02  0.00000000000E+00 0.  1.
         11    1    3    3    0    0 -0.12234525992E+02 -0.32494433139E+02 -0.59166328480E+02  0.68601940476E+02  0.00000000000E+00 0. -1.
<mgrwt>
<rscale>  0 0.11671746E+03</rscale>
<asrwt>0</asrwt>
<pdfrwt beam="2">  1        1 0.88003726E-01 0.12553799E+03</pdfrwt>
<pdfrwt beam="1">  1       -1 0.50675316E-02 0.12553799E+03</pdfrwt>
<totfact> 0.62115989E+03</totfact>
</mgrwt>
</event>
<event>
 7    1  0.1422977E-005  0.1340658E+03  0.7546771E-02  0.1233726E+00
          3   -1    0    0  501    0  0.00000000000E+00  0.00000000000E+00  0.11375862084E+04  0.11375862084E+04  0.00000000000E+00 0. -1.
         -3   -1    0    0    0  501 -0.00000000000E+00 -0.00000000000E+00 -0.14078335197E+02  0.14078335197E+02  0.00000000000E+00 0.  1.
         23    2    1    2    0    0 -0.47855428479E+02  0.69334894463E+01  0.30602160828E+03  0.32325798265E+03  0.92240356137E+02 0.  0.
          5    1    1    2  502    0  0.48847176143E+02 -0.59070328949E+02  0.58976307160E+03  0.59474189444E+03  0.47000000000E+01 0.  1.
         -5    1    1    2    0  502 -0.99174766384E+00  0.52136839503E+02  0.22772319329E+03  0.23366466647E+03  0.47000000000E+01 0.  1.
        -11    1    3    3    0    0  0.18720644799E+02 -0.40892624739E+01  0.14505673209E+02  0.24033292836E+02  0.00000000000E+00 0.  1.
         11    1    3    3    0    0 -0.66576073278E+02  0.11022751920E+02  0.29151593507E+03  0.29922468981E+03  0.00000000000E+00 0. -1.
<mgrwt>
<rscale>  0 0.12586346E+03</rscale>
<asrwt>0</asrwt>
<pdfrwt beam="1">  1        3 0.17501319E+00 0.13406579E+03</pdfrwt>
<pdfrwt beam="2">  1       -3 0.21658986E-02 0.13406579E+03</pdfrwt>
<totfact> 0.45397840E+02</totfact>
</mgrwt>
</event>
<event>
 7    1  0.1422977E-005  0.1981013E+03  0.7546771E-02  0.1158325E+00
         -1   -1    0    0    0  501 -0.00000000000E+00  0.00000000000E+00  0.36304439897E+03  0.36304439897E+03  0.00000000000E+00 0.  1.
          1   -1    0    0  501    0  0.00000000000E+00 -0.00000000000E+00 -0.10306093091E+03  0.10306093091E+03  0.00000000000E+00 0. -1.
         23    2    1    2    0    0 -0.10686077010E+03  0.93387567217E+02  0.19527453442E+03  0.25770336951E+03  0.90213197299E+02 0.  0.
          5    1    1    2  502    0  0.12040485242E+03 -0.10467074873E+03  0.85232455196E+02  0.18094185681E+03  0.47000000000E+01 0.  1.
         -5    1    1    2    0  502 -0.13544082323E+02  0.11283181511E+02 -0.20523521551E+02  0.27460103566E+02  0.47000000000E+01 0. -1.
        -11    1    3    3    0    0 -0.59823767961E+02  0.10034908325E+03  0.11218332748E+03  0.16196888802E+03  0.00000000000E+00 0. -1.
         11    1    3    3    0    0 -0.47037002140E+02 -0.69615160291E+01  0.83091206944E+02  0.95734481495E+02  0.00000000000E+00 0.  1.
<mgrwt>
<rscale>  0 0.19015086E+03</rscale>
<asrwt>0</asrwt>
<pdfrwt beam="2">  1        1 0.15855528E-01 0.19810131E+03</pdfrwt>
<pdfrwt beam="1">  1       -1 0.55852984E-01 0.19810131E+03</pdfrwt>
<totfact> 0.11475538E+03</totfact>
</mgrwt>
</event>
<event>
 7    1  0.1422977E-005  0.1260868E+03  0.7546771E-02  0.1249293E+00
          1   -1    0    0  501    0  0.00000000000E+00  0.00000000000E+00  0.32841503249E+03  0.32841503249E+03  0.00000000000E+00 0. -1.
         -1   -1    0    0    0  501 -0.00000000000E+00 -0.00000000000E+00 -0.60500775718E+02  0.60500775718E+02  0.00000000000E+00 0.  1.
         23    2    1    2    0    0  0.16414512910E+02 -0.15806721204E+01 -0.16223738429E+01  0.91345871984E+02  0.89830403946E+02 0.  0.
          5    1    1    2  502    0  0.21768848277E+02 -0.83961480268E+01 -0.12967716849E+01  0.23835890455E+02  0.47000000000E+01 0. -1.
         -5    1    1    2    0  502 -0.38183361187E+02  0.99768201473E+01  0.27083340230E+03  0.27373404577E+03  0.47000000000E+01 0. -1.
        -11    1    3    3    0    0 -0.54690327188E+01 -0.15698700391E+02 -0.40939555872E+02  0.44186046981E+02  0.00000000000E+00 0.  1.
         11    1    3    3    0    0  0.21883545629E+02  0.14118028271E+02  0.39317182029E+02  0.47159825002E+02  0.00000000000E+00 0. -1.
<mgrwt>
<rscale>  0 0.11632076E+03</rscale>
<asrwt>0</asrwt>
<pdfrwt beam="1">  1        1 0.50525389E-01 0.12608676E+03</pdfrwt>
<pdfrwt beam="2">  1       -1 0.93078118E-02 0.12608676E+03</pdfrwt>
<totfact> 0.50819891E+03</totfact>
</mgrwt>
</event>
<event>
 7    1  0.1422977E-005  0.1620412E+03  0.7546771E-02  0.1193845E+00
         -2   -1    0    0    0  501 -0.00000000000E+00  0.00000000000E+00  0.24525684336E+02  0.24525684336E+02  0.00000000000E+00 0.  1.
          2   -1    0    0  501    0  0.00000000000E+00 -0.00000000000E+00 -0.91544802391E+03  0.91544802391E+03  0.00000000000E+00 0. -1.
         23    2    1    2    0    0 -0.10388191347E+02 -0.10258404873E+03 -0.39493697759E+03  0.41818943354E+03  0.90971338802E+02 0.  0.
          5    1    1    2  502    0 -0.51076993407E+02  0.79591164415E+02 -0.25624405509E+03  0.27317891295E+03  0.47000000000E+01 0.  1.
         -5    1    1    2    0  502  0.61465184754E+02  0.22992884312E+02 -0.23974130689E+03  0.24860536176E+03  0.47000000000E+01 0.  1.
        -11    1    3    3    0    0 -0.17156162641E+02 -0.39978646947E+02 -0.44845777429E+02  0.62480155901E+02  0.00000000000E+00 0.  1.
         11    1    3    3    0    0  0.67679712942E+01 -0.62605401780E+02 -0.35009120016E+03  0.35570927764E+03  0.00000000000E+00 0. -1.
<mgrwt>
<rscale>  0 0.15552401E+03</rscale>
<asrwt>0</asrwt>
<pdfrwt beam="2">  1        2 0.14083813E+00 0.16204120E+03</pdfrwt>
<pdfrwt beam="1">  1       -2 0.37731829E-02 0.16204120E+03</pdfrwt>
<totfact> 0.86799944E+03</totfact>
</mgrwt>
</event>
<event>
 7    1  0.1422977E-005  0.1333710E+03  0.7546771E-02  0.1235046E+00
          1   -1    0    0  501    0  0.00000000000E+00  0.00000000000E+00  0.18702133191E+03  0.18702133191E+03  0.00000000000E+00 0. -1.
         -1   -1    0    0    0  501 -0.00000000000E+00 -0.00000000000E+00 -0.14139907878E+03  0.14139907878E+03  0.00000000000E+00 0.  1.
         23    2    1    2    0    0 -0.16832865820E+02 -0.43610044688E+02 -0.91060341129E+02  0.13744935632E+03  0.91734172789E+02 0.  0.
          5    1    1    2  502    0 -0.26515526624E+02  0.74966273562E+02  0.80592267862E+02  0.11331468997E+03  0.47000000000E+01 0.  1.
         -5    1    1    2    0  502  0.43348392444E+02 -0.31356228873E+02  0.56090326395E+02  0.77656364400E+02  0.47000000000E+01 0.  1.
        -11    1    3    3    0    0 -0.75918390340E+01  0.25053207964E+02 -0.51237244758E+02  0.57537418256E+02  0.00000000000E+00 0.  1.
         11    1    3    3    0    0 -0.92410267856E+01 -0.68663252652E+02 -0.39823096371E+02  0.79911938066E+02  0.00000000000E+00 0. -1.
<mgrwt>
<rscale>  0 0.12501465E+03</rscale>
<asrwt>0</asrwt>
<pdfrwt beam="1">  1        1 0.28772513E-01 0.13337096E+03</pdfrwt>
<pdfrwt beam="2">  1       -1 0.21753704E-01 0.13337096E+03</pdfrwt>
<totfact> 0.27163376E+03</totfact>
</mgrwt>
</event>
<event>
 7    1  0.1422977E-005  0.1311404E+03  0.7546771E-02  0.1239370E+00
         -1   -1    0    0    0  501 -0.00000000000E+00  0.00000000000E+00  0.18961402697E+03  0.18961402697E+03  0.00000000000E+00 0.  1.
          1   -1    0    0  501    0  0.00000000000E+00 -0.00000000000E+00 -0.70619588165E+02  0.70619588165E+02  0.00000000000E+00 0. -1.
         23    2    1    2    0    0 -0.40473525217E+01 -0.39435720804E+02  0.38554907256E+02  0.10638847463E+03  0.90887125177E+02 0.  0.
          5    1    1    2  502    0  0.49216451721E+02  0.18856458269E+02  0.88722636408E+02  0.10330353987E+03  0.47000000000E+01 0. -1.
         -5    1    1    2    0  502 -0.45169099200E+02  0.20579262535E+02 -0.82831048565E+01  0.50541600638E+02  0.47000000000E+01 0. -1.
        -11    1    3    3    0    0  0.32364587775E+02 -0.39066966594E+00  0.41840956218E+02  0.52898816450E+02  0.00000000000E+00 0.  1.
         11    1    3    3    0    0 -0.36411940296E+02 -0.39045051138E+02 -0.32860489615E+01  0.53489658180E+02  0.00000000000E+00 0. -1.
<mgrwt>
<rscale>  0 0.12228771E+03</rscale>
<asrwt>0</asrwt>
<pdfrwt beam="2">  1        1 0.10864552E-01 0.13114042E+03</pdfrwt>
<pdfrwt beam="1">  1       -1 0.29171389E-01 0.13114042E+03</pdfrwt>
<totfact> 0.58313928E+03</totfact>
</mgrwt>
</event>
<event>
 7    1  0.1422977E-005  0.1350138E+03  0.7546771E-02  0.1233060E+00
         -1   -1    0    0    0  501 -0.00000000000E+00  0.00000000000E+00  0.28241062596E+02  0.28241062596E+02  0.00000000000E+00 0. -1.
          1   -1    0    0  501    0  0.00000000000E+00 -0.00000000000E+00 -0.55370449292E+03  0.55370449292E+03  0.00000000000E+00 0.  1.
         23    2    1    2    0    0 -0.79477541464E+01 -0.50446603856E+02 -0.14375353409E+03  0.17706141442E+03  0.89875687910E+02 0.  0.
          5    1    1    2  502    0  0.40215905089E+02 -0.22627595056E+02 -0.21523504039E+03  0.22017615604E+03  0.47000000000E+01 0.  1.
         -5    1    1    2    0  502 -0.32268150943E+02  0.73074198912E+02 -0.16647485585E+03  0.18470798505E+03  0.47000000000E+01 0.  1.
        -11    1    3    3    0    0 -0.48128359956E+02 -0.17535949205E+02 -0.65745615212E+02  0.83344672693E+02  0.00000000000E+00 0. -1.
         11    1    3    3    0    0  0.40180605810E+02 -0.32910654650E+02 -0.78007918878E+02  0.93716741730E+02  0.00000000000E+00 0.  1.
<mgrwt>
<rscale>  0 0.12629431E+03</rscale>
<asrwt>0</asrwt>
<pdfrwt beam="2">  1        1 0.85185299E-01 0.13501379E+03</pdfrwt>
<pdfrwt beam="1">  1       -1 0.43447792E-02 0.13501379E+03</pdfrwt>
<totfact> 0.81763974E+03</totfact>
</mgrwt>
</event>
<event>
 6    1  0.1422977E-005  0.1160747E+03  0.7546771E-02  0.1307154E+00
          2   -1    0    0  501    0  0.00000000000E+00  0.00000000000E+00  0.56763257641E+03  0.56763257641E+03  0.00000000000E+00 0. -1.
         -2   -1    0    0    0  501 -0.00000000000E+00 -0.00000000000E+00 -0.10988265250E+02  0.10988265250E+02  0.00000000000E+00 0.  1.
          5    1    1    2  502    0 -0.31565417058E+02 -0.10791139956E+02  0.37305690482E+03  0.37457491705E+03  0.47000000000E+01 0. -1.
         -5    1    1    2    0  502  0.49146593163E+02 -0.18958548251E+01  0.88537534336E+02  0.10139017147E+03  0.47000000000E+01 0.  1.
        -11    1    1    2    0    0 -0.60407929167E+01 -0.10887067415E+02  0.27571625731E+02  0.30252503391E+02  0.00000000000E+00 0. -1.
         11    1    1    2    0    0 -0.11540383189E+02  0.23574062196E+02  0.67478246272E+02  0.72403249737E+02  0.00000000000E+00 0.  1.
<mgrwt>
<rscale>  0 0.88246865E+02</rscale>
<asrwt>0</asrwt>
<pdfrwt beam="1">  1        2 0.87328066E-01 0.11607471E+03</pdfrwt>
<pdfrwt beam="2">  1       -2 0.16905028E-02 0.11607471E+03</pdfrwt>
<totfact> 0.48663335E+04</totfact>
</mgrwt>
</event>
<event>
 7    1  0.1422977E-005  0.1319692E+03  0.7546771E-02  0.1237540E+00
         -1   -1    0    0    0  501 -0.00000000000E+00  0.00000000000E+00  0.87487927113E+02  0.87487927113E+02  0.00000000000E+00 0.  1.
          1   -1    0    0  501    0  0.00000000000E+00 -0.00000000000E+00 -0.16137012397E+03  0.16137012397E+03  0.00000000000E+00 0. -1.
         23    2    1    2    0    0  0.13940584651E+02  0.39979876964E+02 -0.78738394408E+01  0.10130133934E+03  0.91690967618E+02 0.  0.
          5    1    1    2  502    0 -0.56196321991E+02 -0.61252603761E+02 -0.32423327314E+02  0.89349147880E+02  0.47000000000E+01 0.  1.
         -5    1    1    2    0  502  0.42255737340E+02  0.21272726797E+02 -0.33585030099E+02  0.58207563858E+02  0.47000000000E+01 0.  1.
        -11    1    3    3    0    0  0.92505577357E+01  0.52256395482E+02  0.30174341667E+02  0.61047478099E+02  0.00000000000E+00 0.  1.
         11    1    3    3    0    0  0.46900269151E+01 -0.12276518519E+02 -0.38048181108E+02  0.40253861244E+02  0.00000000000E+00 0. -1.
<mgrwt>
<rscale>  0 0.12343245E+03</rscale>
<asrwt>0</asrwt>
<pdfrwt beam="2">  1        1 0.24826173E-01 0.13196924E+03</pdfrwt>
<pdfrwt beam="1">  1       -1 0.13459681E-01 0.13196924E+03</pdfrwt>
<totfact> 0.69819509E+03</totfact>
</mgrwt>
</event>
<event>
 7    1  0.1422977E-005  0.1541653E+03  0.7546771E-02  0.1205607E+00
         -1   -1    0    0    0  501 -0.00000000000E+00  0.00000000000E+00  0.36674540144E+03  0.36674540144E+03  0.00000000000E+00 0.  1.
          1   -1    0    0  501    0  0.00000000000E+00 -0.00000000000E+00 -0.56227643488E+02  0.56227643488E+02  0.00000000000E+00 0. -1.
         23    2    1    2    0    0 -0.29650811963E+02 -0.85214257863E+02  0.19260193426E+03  0.22888262298E+03  0.84564233759E+02 0.  0.
          5    1    1    2  502    0 -0.15960345693E+02  0.91710678521E+02  0.35859567944E+02  0.99867811644E+02  0.47000000000E+01 0. -1.
         -5    1    1    2    0  502  0.45611157656E+02 -0.64964206576E+01  0.82056255753E+02  0.94222610303E+02  0.47000000000E+01 0. -1.
        -11    1    3    3    0    0 -0.47588337585E+02 -0.92021613077E+02  0.17150710661E+03  0.20036794845E+03  0.00000000000E+00 0. -1.
         11    1    3    3    0    0  0.17937525622E+02  0.68073552135E+01  0.21094827645E+02  0.28514674535E+02  0.00000000000E+00 0.  1.
<mgrwt>
<rscale>  0 0.14589728E+03</rscale>
<asrwt>0</asrwt>
<pdfrwt beam="2">  1        1 0.86504069E-02 0.15416533E+03</pdfrwt>
<pdfrwt beam="1">  1       -1 0.56422368E-01 0.15416533E+03</pdfrwt>
<totfact> 0.24889562E+03</totfact>
</mgrwt>
</event>
<event>
 7    1  0.1422977E-005  0.1436023E+03  0.7546771E-02  0.1218676E+00
         -1   -1    0    0    0  501 -0.00000000000E+00  0.00000000000E+00  0.15730229904E+03  0.15730229904E+03  0.00000000000E+00 0.  1.
          1   -1    0    0  501    0  0.00000000000E+00 -0.00000000000E+00 -0.10975659353E+03  0.10975659353E+03  0.00000000000E+00 0. -1.
         23    2    1    2    0    0  0.55824330498E+02  0.43340469197E+02  0.42359588477E+02  0.12336302335E+03  0.91811484288E+02 0.  0.
          5    1    1    2  502    0 -0.69548202724E+02  0.22663669628E+02 -0.11222927407E+02  0.74152805225E+02  0.47000000000E+01 0.  1.
         -5    1    1    2    0  502  0.13723872226E+02 -0.66004138825E+02  0.16409044436E+02  0.69543063998E+02  0.47000000000E+01 0.  1.
        -11    1    3    3    0    0  0.61072410347E+02  0.14976535207E+02  0.62125515966E+02  0.88395224116E+02  0.00000000000E+00 0.  1.
         11    1    3    3    0    0 -0.52480798491E+01  0.28363933989E+02 -0.19765927489E+02  0.34967799230E+02  0.00000000000E+00 0. -1.
<mgrwt>
<rscale>  0 0.13609952E+03</rscale>
<asrwt>0</asrwt>
<pdfrwt beam="2">  1        1 0.16885630E-01 0.14360225E+03</pdfrwt>
<pdfrwt beam="1">  1       -1 0.24200354E-01 0.14360225E+03</pdfrwt>
<totfact> 0.44985910E+03</totfact>
</mgrwt>
</event>
<event>
 6    1  0.1422977E-005  0.1687985E+03  0.7546771E-02  0.1269418E+00
         -2   -1    0    0    0  501 -0.00000000000E+00  0.00000000000E+00  0.58313293680E+01  0.58313293680E+01  0.00000000000E+00 0.  1.
          2   -1    0    0  501    0  0.00000000000E+00 -0.00000000000E+00 -0.21761803847E+04  0.21761803847E+04  0.00000000000E+00 0. -1.
          5    1    1    2  502    0  0.18362183281E+02 -0.63953995418E+02 -0.16230523741E+04  0.16244224766E+04  0.47000000000E+01 0. -1.
         -5    1    1    2    0  502 -0.19899021148E+02  0.69359366519E+02 -0.48289980028E+03  0.48828372887E+03  0.47000000000E+01 0.  1.
        -11    1    1    2    0    0 -0.82097609794E+01 -0.11149237266E+02 -0.28824161895E+02  0.31977147713E+02  0.00000000000E+00 0. -1.
         11    1    1    2    0    0  0.97465988461E+01  0.57438661653E+01 -0.35572718991E+02  0.37328360854E+02  0.00000000000E+00 0.  1.
<mgrwt>
<rscale>  0 0.10535713E+03</rscale>
<asrwt>0</asrwt>
<pdfrwt beam="2">  1        2 0.33479671E+00 0.16879855E+03</pdfrwt>
<pdfrwt beam="1">  1       -2 0.89712832E-03 0.16879855E+03</pdfrwt>
<totfact> 0.14765515E+04</totfact>
</mgrwt>
</event>
<event>
 7    1  0.1422977E-005  0.1405435E+03  0.7546771E-02  0.1223918E+00
          1   -1    0    0  501    0  0.00000000000E+00  0.00000000000E+00  0.79359166791E+03  0.79359166791E+03  0.00000000000E+00 0. -1.
         -1   -1    0    0    0  501 -0.00000000000E+00 -0.00000000000E+00 -0.19943543416E+02  0.19943543416E+02  0.00000000000E+00 0.  1.
         23    2    1    2    0    0 -0.61956462276E+02  0.16963006293E+02  0.32041497439E+03  0.33901148773E+03  0.90203581986E+02 0.  0.
          5    1    1    2  502    0 -0.55456093145E+01 -0.56231279000E+02  0.25885982492E+03  0.26499662164E+03  0.47000000000E+01 0.  1.
         -5    1    1    2    0  502  0.67502071590E+02  0.39268272708E+02  0.19437332518E+03  0.20952710196E+03  0.47000000000E+01 0.  1.
        -11    1    3    3    0    0  0.15349024455E+02  0.26764145446E+02  0.64566942383E+02  0.71559779778E+02  0.00000000000E+00 0. -1.
         11    1    3    3    0    0 -0.77305486731E+02 -0.98011391538E+01  0.25584803201E+03  0.26745170796E+03  0.00000000000E+00 0.  1.
<mgrwt>
<rscale>  0 0.13241367E+03</rscale>
<asrwt>0</asrwt>
<pdfrwt beam="1">  1        1 0.12209100E+00 0.14054350E+03</pdfrwt>
<pdfrwt beam="2">  1       -1 0.30682381E-02 0.14054350E+03</pdfrwt>
<totfact> 0.82175960E+03</totfact>
</mgrwt>
</event>
<event>
 7    1  0.1422977E-005  0.1493148E+03  0.7546771E-02  0.1211711E+00
         -2   -1    0    0    0  501 -0.00000000000E+00  0.00000000000E+00  0.30695333306E+03  0.30695333306E+03  0.00000000000E+00 0.  1.
          2   -1    0    0  501    0  0.00000000000E+00 -0.00000000000E+00 -0.61058168473E+02  0.61058168473E+02  0.00000000000E+00 0. -1.
         23    2    1    2    0    0 -0.45489342471E+02  0.67817094197E+02  0.14474636178E+03  0.18766188949E+03  0.87160983095E+02 0.  0.
          5    1    1    2  502    0 -0.12970062804E+02 -0.18531020246E+02  0.10113710623E+03  0.10374211053E+03  0.47000000000E+01 0.  1.
         -5    1    1    2    0  502  0.58459405275E+02 -0.49286073951E+02  0.11696569013E-01  0.76607501508E+02  0.47000000000E+01 0.  1.
        -11    1    3    3    0    0 -0.71803752892E+02  0.47136519649E+02  0.10713887225E+03  0.13731849242E+03  0.00000000000E+00 0.  1.
         11    1    3    3    0    0  0.26314410421E+02  0.20680574548E+02  0.37607489532E+02  0.50343397068E+02  0.00000000000E+00 0. -1.
<mgrwt>
<rscale>  0 0.14120916E+03</rscale>
<asrwt>0</asrwt>
<pdfrwt beam="2">  1        2 0.93935646E-02 0.14931478E+03</pdfrwt>
<pdfrwt beam="1">  1       -2 0.47223588E-01 0.14931478E+03</pdfrwt>
<totfact> 0.28818572E+03</totfact>
</mgrwt>
</event>
<event>
 7    1  0.1422977E-005  0.1453988E+03  0.7546771E-02  0.1216080E+00
          2   -1    0    0  501    0  0.00000000000E+00  0.00000000000E+00  0.69144788505E+03  0.69144788505E+03  0.00000000000E+00 0. -1.
         -2   -1    0    0    0  501 -0.00000000000E+00 -0.00000000000E+00 -0.26391393031E+02  0.26391393031E+02  0.00000000000E+00 0.  1.
         23    2    1    2    0    0 -0.39972353744E+02 -0.62591355207E+02  0.21952118175E+03  0.24917892123E+03  0.91570293948E+02 0.  0.
          5    1    1    2  502    0 -0.18298288779E+02  0.31989313383E+02  0.35332367310E+03  0.35527151802E+03  0.47000000000E+01 0.  1.
         -5    1    1    2    0  502  0.58270642523E+02  0.30602041824E+02  0.92211637159E+02  0.11338883883E+03  0.47000000000E+01 0.  1.
        -11    1    3    3    0    0 -0.44090989547E+02  0.97082627167E+01  0.75291471535E+02  0.87789927726E+02  0.00000000000E+00 0. -1.
         11    1    3    3    0    0  0.41186358033E+01 -0.72299617924E+02  0.14422971022E+03  0.16138899350E+03  0.00000000000E+00 0.  1.
<mgrwt>
<rscale>  0 0.13797481E+03</rscale>
<asrwt>0</asrwt>
<pdfrwt beam="1">  1        2 0.10637658E+00 0.14539882E+03</pdfrwt>
<pdfrwt beam="2">  1       -2 0.40602148E-02 0.14539882E+03</pdfrwt>
<totfact> 0.10985052E+04</totfact>
</mgrwt>
</event>
<event>
 7    1  0.1422977E-005  0.2290137E+03  0.7546771E-02  0.1127336E+00
         -1   -1    0    0    0  501 -0.00000000000E+00  0.00000000000E+00  0.11784984289E+03  0.11784984289E+03  0.00000000000E+00 0.  1.
          1   -1    0    0  501    0  0.00000000000E+00 -0.00000000000E+00 -0.11125868380E+03  0.11125868380E+03  0.00000000000E+00 0. -1.
         23    2    1    2    0    0 -0.22470051683E+02  0.94780926998E+01  0.38793504997E+02  0.97746679473E+02  0.86340835380E+02 0.  0.
          5    1    1    2  502    0  0.42598330747E+02  0.92244573514E+00 -0.72886631009E+02  0.84557788928E+02  0.47000000000E+01 0. -1.
         -5    1    1    2    0  502 -0.20128279065E+02 -0.10400538435E+02  0.40684285104E+02  0.46804058289E+02  0.47000000000E+01 0. -1.
        -11    1    3    3    0    0 -0.54163664065E+02  0.11752255613E+02  0.35460736419E+02  0.65797278396E+02  0.00000000000E+00 0.  1.
         11    1    3    3    0    0  0.31693612382E+02 -0.22741629131E+01  0.33327685780E+01  0.31949401077E+02  0.00000000000E+00 0. -1.
<mgrwt>
<rscale>  0 0.22901370E+03</rscale>
<asrwt>0</asrwt>
<pdfrwt beam="2">  1        1 0.17116721E-01 0.22901370E+03</pdfrwt>
<pdfrwt beam="1">  1       -1 0.18130745E-01 0.22901370E+03</pdfrwt>
<totfact> 0.72665490E+03</totfact>
</mgrwt>
</event>
<event>
 7    1  0.1422977E-005  0.2278107E+03  0.7546771E-02  0.1131011E+00
          1   -1    0    0  501    0  0.00000000000E+00  0.00000000000E+00  0.23991846940E+03  0.23991846940E+03  0.00000000000E+00 0. -1.
         -1   -1    0    0    0  501 -0.00000000000E+00 -0.00000000000E+00 -0.20818351633E+03  0.20818351633E+03  0.00000000000E+00 0.  1.
         23    2    1    2    0    0  0.11909547987E+03 -0.14863037159E+03 -0.23047233060E+02  0.21379704998E+03  0.94357209289E+02 0.  0.
          5    1    1    2  502    0 -0.19933619839E+01  0.19838624881E+02  0.56567859393E+02  0.60162756299E+02  0.47000000000E+01 0. -1.
         -5    1    1    2    0  502 -0.11710211789E+03  0.12879174671E+03 -0.17856732690E+01  0.17414217945E+03  0.47000000000E+01 0. -1.
        -11    1    3    3    0    0  0.24397159181E+02 -0.75489875877E+02 -0.46367714815E+02  0.91890737908E+02  0.00000000000E+00 0.  1.
         11    1    3    3    0    0  0.94698320688E+02 -0.73140495717E+02  0.23320481755E+02  0.12190631208E+03  0.00000000000E+00 0. -1.
<mgrwt>
<rscale>  0 0.22389607E+03</rscale>
<asrwt>0</asrwt>
<pdfrwt beam="1">  1        1 0.36910534E-01 0.22781070E+03</pdfrwt>
<pdfrwt beam="2">  1       -1 0.32028233E-01 0.22781070E+03</pdfrwt>
<totfact> 0.10609325E+03</totfact>
</mgrwt>
</event>
<event>
 7    1  0.1422977E-005  0.1632292E+03  0.7546771E-02  0.1191759E+00
         -3   -1    0    0    0  501 -0.00000000000E+00  0.00000000000E+00  0.27009673969E+03  0.27009673969E+03  0.00000000000E+00 0.  1.
          3   -1    0    0  501    0  0.00000000000E+00 -0.00000000000E+00 -0.90006340037E+02  0.90006340037E+02  0.00000000000E+00 0. -1.
         23    2    1    2    0    0  0.71607786535E+02  0.76761623211E+02  0.43899041055E+02  0.14751928797E+03  0.93887127052E+02 0.  0.
          5    1    1    2  502    0  0.26543236861E+02 -0.15574522463E+02 -0.33128832643E+01  0.31307736561E+02  0.47000000000E+01 0. -1.
         -5    1    1    2    0  502 -0.98151023397E+02 -0.61187100748E+02  0.13950424186E+03  0.18127605520E+03  0.47000000000E+01 0. -1.
        -11    1    3    3    0    0  0.24179724441E+02  0.86541354648E+02  0.41655085727E+02  0.99041462556E+02  0.00000000000E+00 0. -1.
         11    1    3    3    0    0  0.47428062094E+02 -0.97797314366E+01  0.22439553277E+01  0.48477825410E+02  0.00000000000E+00 0.  1.
<mgrwt>
<rscale>  0 0.15731748E+03</rscale>
<asrwt>0</asrwt>
<pdfrwt beam="2">  1        3 0.13847129E-01 0.16322923E+03</pdfrwt>
<pdfrwt beam="1">  1       -3 0.41553344E-01 0.16322923E+03</pdfrwt>
<totfact> 0.58390139E+02</totfact>
</mgrwt>
</event>
<event>
 7    1  0.1891273E-005  0.1344042E+03  0.7546771E-02  0.1234277E+00
          2   -1    0    0  501    0  0.00000000000E+00  0.00000000000E+00  0.21630997622E+03  0.21630997622E+03  0.00000000000E+00 0. -1.
         -2   -1    0    0    0  501 -0.00000000000E+00 -0.00000000000E+00 -0.65786962467E+02  0.65786962467E+02  0.00000000000E+00 0.  1.
         23    2    1    2    0    0  0.99708544237E+01 -0.48372703323E+02  0.47225045794E+02  0.11258305069E+03  0.89472912029E+02 0.  0.
          5    1    1    2  502    0  0.15725578470E+02  0.11510045861E+02 -0.25837890663E+02  0.32702623257E+02  0.47000000000E+01 0.  1.
         -5    1    1    2    0  502 -0.25696432894E+02  0.36862657462E+02  0.12913585862E+03  0.13681126475E+03  0.47000000000E+01 0.  1.
        -11    1    3    3    0    0  0.25506013441E+02 -0.22126046021E+02 -0.19660060093E+02  0.39072197238E+02  0.00000000000E+00 0.  1.
         11    1    3    3    0    0 -0.15535159017E+02 -0.26246657302E+02  0.66885105887E+02  0.73510853449E+02  0.00000000000E+00 0. -1.
<mgrwt>
<rscale>  0 0.12550812E+03</rscale>
<asrwt>0</asrwt>
<pdfrwt beam="1">  1        2 0.33278458E-01 0.13440420E+03</pdfrwt>
<pdfrwt beam="2">  1       -2 0.10121071E-01 0.13440420E+03</pdfrwt>
<totfact> 0.96034454E+03</totfact>
</mgrwt>
</event>
<event>
 7    1  0.1422977E-005  0.1438019E+03  0.7546771E-02  0.1221837E+00
          2   -1    0    0  501    0  0.00000000000E+00  0.00000000000E+00  0.22528172173E+02  0.22528172173E+02  0.00000000000E+00 0. -1.
         -2   -1    0    0    0  501 -0.00000000000E+00 -0.00000000000E+00 -0.76628858442E+03  0.76628858442E+03  0.00000000000E+00 0.  1.
         23    2    1    2    0    0 -0.15300411951E+02  0.55859565357E+02 -0.43517366485E+03  0.44836888166E+03  0.91127064111E+02 0.  0.
          5    1    1    2  502    0 -0.24836679188E+02 -0.98777055347E+01 -0.13505767737E+01  0.27172481619E+02  0.47000000000E+01 0. -1.
         -5    1    1    2    0  502  0.40137091139E+02 -0.45981859822E+02 -0.30723617062E+03  0.31327539331E+03  0.47000000000E+01 0.  1.
        -11    1    3    3    0    0  0.38118615742E+02  0.21779794829E+02 -0.20384379648E+03  0.20851782104E+03  0.00000000000E+00 0.  1.
         11    1    3    3    0    0 -0.53419027693E+02  0.34079770528E+02 -0.23132986838E+03  0.23985106062E+03  0.00000000000E+00 0. -1.
<mgrwt>
<rscale>  0 0.13386094E+03</rscale>
<asrwt>0</asrwt>
<pdfrwt beam="1">  1        2 0.34658731E-02 0.14380186E+03</pdfrwt>
<pdfrwt beam="2">  1       -2 0.11789054E+00 0.14380186E+03</pdfrwt>
<totfact> 0.14427708E+03</totfact>
</mgrwt>
</event>
<event>
 7    1  0.1422977E-005  0.1850654E+03  0.7546771E-02  0.1168083E+00
         -1   -1    0    0    0  501 -0.00000000000E+00  0.00000000000E+00  0.28347987107E+02  0.28347987107E+02  0.00000000000E+00 0.  1.
          1   -1    0    0  501    0  0.00000000000E+00 -0.00000000000E+00 -0.12472879174E+04  0.12472879174E+04  0.00000000000E+00 0. -1.
         23    2    1    2    0    0 -0.10647808144E+03 -0.85345164223E+02 -0.34395378686E+03  0.38129260370E+03  0.91969904101E+02 0.  0.
          5    1    1    2  502    0  0.94082603741E+02  0.83156679702E+02 -0.87143295103E+03  0.88044536903E+03  0.47000000000E+01 0. -1.
         -5    1    1    2    0  502  0.12395477697E+02  0.21884845207E+01 -0.35531924277E+01  0.13897931798E+02  0.47000000000E+01 0. -1.
        -11    1    3    3    0    0 -0.46665501309E+02  0.13503376609E+02 -0.89413437535E+02  0.10175840508E+03  0.00000000000E+00 0.  1.
         11    1    3    3    0    0 -0.59812580129E+02 -0.98848540832E+02 -0.25454034932E+03  0.27953419862E+03  0.00000000000E+00 0. -1.
<mgrwt>
<rscale>  0 0.17971098E+03</rscale>
<asrwt>0</asrwt>
<pdfrwt beam="2">  1        1 0.19189048E+00 0.18506536E+03</pdfrwt>
<pdfrwt beam="1">  1       -1 0.43612281E-02 0.18506536E+03</pdfrwt>
<totfact> 0.22866065E+03</totfact>
</mgrwt>
</event>
<event>
 7    1  0.1422977E-005  0.1591934E+03  0.7546771E-02  0.1194973E+00
         -2   -1    0    0    0  501 -0.00000000000E+00  0.00000000000E+00  0.19401781161E+02  0.19401781161E+02  0.00000000000E+00 0.  1.
          2   -1    0    0  501    0  0.00000000000E+00 -0.00000000000E+00 -0.11838935472E+04  0.11838935472E+04  0.00000000000E+00 0. -1.
         23    2    1    2    0    0 -0.97848284761E+02 -0.11954989941E+02 -0.62465821711E+03  0.64047849517E+03  0.10147712033E+03 0.  0.
          5    1    1    2  502    0  0.49618575348E+02 -0.33769055028E+02 -0.91302105065E+02  0.10936414626E+03  0.47000000000E+01 0.  1.
         -5    1    1    2    0  502  0.48229709412E+02  0.45724044970E+02 -0.44853144382E+03  0.45345268690E+03  0.47000000000E+01 0.  1.
        -11    1    3    3    0    0 -0.72747990472E+02  0.40164752978E+02 -0.34072952822E+03  0.35071653640E+03  0.00000000000E+00 0. -1.
         11    1    3    3    0    0 -0.25100294289E+02 -0.52119742919E+02 -0.28392868889E+03  0.28976195877E+03  0.00000000000E+00 0.  1.
<mgrwt>
<rscale>  0 0.15456554E+03</rscale>
<asrwt>0</asrwt>
<pdfrwt beam="2">  1        2 0.18213749E+00 0.15919336E+03</pdfrwt>
<pdfrwt beam="1">  1       -2 0.29848891E-02 0.15919336E+03</pdfrwt>
<totfact> 0.85206951E+03</totfact>
</mgrwt>
</event>
<event>
 7    1  0.1422977E-005  0.3457816E+03  0.7546771E-02  0.1097848E+00
          1   -1    0    0  501    0  0.00000000000E+00  0.00000000000E+00  0.23452583394E+03  0.23452583394E+03  0.00000000000E+00 0. -1.
         -1   -1    0    0    0  501 -0.00000000000E+00 -0.00000000000E+00 -0.38311459588E+03  0.38311459588E+03  0.00000000000E+00 0.  1.
         23    2    1    2    0    0 -0.10329760587E+01 -0.10787572882E+03 -0.22334005657E+03  0.26387116919E+03  0.90049837056E+02 0.  0.
          5    1    1    2  502    0 -0.13344473269E+03  0.15292577042E+03  0.31666548440E+02  0.20547176991E+03  0.47000000000E+01 0. -1.
         -5    1    1    2    0  502  0.13447770875E+03 -0.45050041603E+02  0.43084746194E+02  0.14829749072E+03  0.47000000000E+01 0.  1.
        -11    1    3    3    0    0  0.30584717764E+02 -0.20039035559E+02 -0.11594200845E+03  0.12157112005E+03  0.00000000000E+00 0.  1.
         11    1    3    3    0    0 -0.31617693823E+02 -0.87836693258E+02 -0.10739804812E+03  0.14230004914E+03  0.00000000000E+00 0. -1.
<mgrwt>
<rscale>  0 0.27608300E+03</rscale>
<asrwt>0</asrwt>
<pdfrwt beam="1">  1        1 0.36080898E-01 0.34578163E+03</pdfrwt>
<pdfrwt beam="2">  1       -1 0.58940706E-01 0.34578163E+03</pdfrwt>
<totfact> 0.36095249E+02</totfact>
</mgrwt>
</event>
<event>
 7    1  0.1422977E-005  0.1344246E+03  0.7546771E-02  0.1232897E+00
          2   -1    0    0  501    0  0.00000000000E+00  0.00000000000E+00  0.12869893756E+04  0.12869893756E+04  0.00000000000E+00 0. -1.
         -2   -1    0    0    0  501 -0.00000000000E+00 -0.00000000000E+00 -0.20106109450E+02  0.20106109450E+02  0.00000000000E+00 0.  1.
         23    2    1    2    0    0  0.23208259245E+02 -0.43647744122E+02  0.15591639684E+03  0.18802561797E+03  0.92735976546E+02 0.  0.
          5    1    1    2  502    0  0.44439077749E+02  0.19311837368E+01  0.62744790847E+03  0.62904016481E+03  0.47000000000E+01 0.  1.
         -5    1    1    2    0  502 -0.67647336994E+02  0.41716560385E+02  0.48351896086E+03  0.49002970229E+03  0.47000000000E+01 0.  1.
        -11    1    3    3    0    0 -0.58148540803E+01 -0.58588910605E+02  0.50162250528E+02  0.77348072710E+02  0.00000000000E+00 0.  1.
         11    1    3    3    0    0  0.29023113326E+02  0.14941166484E+02  0.10575414631E+03  0.11067754526E+03  0.00000000000E+00 0. -1.
<mgrwt>
<rscale>  0 0.12640042E+03</rscale>
<asrwt>0</asrwt>
<pdfrwt beam="1">  1        2 0.19799830E+00 0.13442464E+03</pdfrwt>
<pdfrwt beam="2">  1       -2 0.30932486E-02 0.13442464E+03</pdfrwt>
<totfact> 0.70462288E+03</totfact>
</mgrwt>
</event>
<event>
 7    1  0.1422977E-005  0.1496422E+03  0.7546771E-02  0.1210527E+00
          2   -1    0    0  501    0  0.00000000000E+00  0.00000000000E+00  0.28917100226E+03  0.28917100226E+03  0.00000000000E+00 0.  1.
         -2   -1    0    0    0  501 -0.00000000000E+00 -0.00000000000E+00 -0.63647771181E+02  0.63647771181E+02  0.00000000000E+00 0. -1.
         23    2    1    2    0    0  0.53576248846E+02  0.62428272136E+02  0.10161029055E+03  0.15853234010E+03  0.89666872983E+02 0.  0.
          5    1    1    2  502    0 -0.77083926621E+02 -0.68869264549E+02  0.47338401445E+02  0.11378893441E+03  0.47000000000E+01 0. -1.
         -5    1    1    2    0  502  0.23507677775E+02  0.64409924137E+01  0.76574539084E+02  0.80497498927E+02  0.47000000000E+01 0. -1.
        -11    1    3    3    0    0  0.69651860285E+02  0.20997919041E+02  0.41417333865E+02  0.83711945322E+02  0.00000000000E+00 0. -1.
         11    1    3    3    0    0 -0.16075611439E+02  0.41430353095E+02  0.60192956683E+02  0.74820394779E+02  0.00000000000E+00 0.  1.
<mgrwt>
<rscale>  0 0.14210265E+03</rscale>
<asrwt>0</asrwt>
<pdfrwt beam="1">  1        2 0.44487846E-01 0.14964224E+03</pdfrwt>
<pdfrwt beam="2">  1       -2 0.97919650E-02 0.14964224E+03</pdfrwt>
<totfact> 0.74769130E+03</totfact>
</mgrwt>
</event>
<event>
 7    1  0.1422977E-005  0.1276263E+03  0.7546771E-02  0.1246086E+00
         -3   -1    0    0    0  501 -0.00000000000E+00  0.00000000000E+00  0.41693860156E+02  0.41693860156E+02  0.00000000000E+00 0.  1.
          3   -1    0    0  501    0  0.00000000000E+00 -0.00000000000E+00 -0.29635814599E+03  0.29635814599E+03  0.00000000000E+00 0. -1.
         23    2    1    2    0    0  0.21565790713E+02 -0.14069189289E+02 -0.12203538537E+03  0.15398980365E+03  0.90317212804E+02 0.  0.
          5    1    1    2  502    0 -0.13437821148E+02  0.35883159176E+02  0.96687686428E+01  0.39796372155E+02  0.47000000000E+01 0. -1.
         -5    1    1    2    0  502 -0.81279695649E+01 -0.21813969887E+02 -0.14229766911E+03  0.14426583034E+03  0.47000000000E+01 0. -1.
        -11    1    3    3    0    0  0.33972575739E+02  0.17509589690E+02 -0.11239911515E+03  0.11871934433E+03  0.00000000000E+00 0. -1.
         11    1    3    3    0    0 -0.12406785026E+02 -0.31578778978E+02 -0.96362702255E+01  0.35270459315E+02  0.00000000000E+00 0.  1.
<mgrwt>
<rscale>  0 0.11820615E+03</rscale>
<asrwt>0</asrwt>
<pdfrwt beam="2">  1        3 0.45593561E-01 0.12762629E+03</pdfrwt>
<pdfrwt beam="1">  1       -3 0.64144401E-02 0.12762629E+03</pdfrwt>
<totfact> 0.16690557E+03</totfact>
</mgrwt>
</event>
<event>
 7    1  0.1422977E-005  0.1296263E+03  0.7546771E-02  0.1244937E+00
         -1   -1    0    0    0  501 -0.00000000000E+00  0.00000000000E+00  0.26437932241E+03  0.26437932241E+03  0.00000000000E+00 0.  1.
          1   -1    0    0  501    0  0.00000000000E+00 -0.00000000000E+00 -0.48054461714E+02  0.48054461714E+02  0.00000000000E+00 0. -1.
         23    2    1    2    0    0 -0.12432611839E+02  0.22517191407E+02  0.11944198832E+03  0.15060280161E+03  0.88052379478E+02 0.  0.
          5    1    1    2  502    0  0.49411831039E+02  0.35167701391E+02  0.48902090493E+02  0.78049988612E+02  0.47000000000E+01 0. -1.
         -5    1    1    2    0  502 -0.36979219200E+02 -0.57684892798E+02  0.47980781880E+02  0.83780993904E+02  0.47000000000E+01 0.  1.
        -11    1    3    3    0    0 -0.39085412093E+02  0.40689655858E+02  0.93512800489E+02  0.10921520676E+03  0.00000000000E+00 0.  1.
         11    1    3    3    0    0  0.26652800255E+02 -0.18172464450E+02  0.25929187835E+02  0.41387594849E+02  0.00000000000E+00 0. -1.
<mgrwt>
<rscale>  0 0.11889139E+03</rscale>
<asrwt>0</asrwt>
<pdfrwt beam="2">  1        1 0.73929943E-02 0.12962629E+03</pdfrwt>
<pdfrwt beam="1">  1       -1 0.40673741E-01 0.12962629E+03</pdfrwt>
<totfact> 0.55080567E+03</totfact>
</mgrwt>
</event>
<event>
 7    1  0.1422977E-005  0.1368640E+03  0.7546771E-02  0.1228920E+00
          1   -1    0    0  501    0  0.00000000000E+00  0.00000000000E+00  0.21299601811E+04  0.21299601811E+04  0.00000000000E+00 0. -1.
         -1   -1    0    0    0  501 -0.00000000000E+00 -0.00000000000E+00 -0.80291723422E+01  0.80291723422E+01  0.00000000000E+00 0.  1.
         23    2    1    2    0    0  0.17054696851E+02 -0.53059708485E+02  0.57903729022E+03  0.58903720031E+03  0.92598296572E+02 0.  0.
          5    1    1    2  502    0 -0.19667516930E+02 -0.77925248392E+01  0.12277957558E+04  0.12279869879E+04  0.47000000000E+01 0. -1.
         -5    1    1    2    0  502  0.26128200789E+01  0.60852233325E+02  0.31509796277E+03  0.32096516520E+03  0.47000000000E+01 0. -1.
        -11    1    3    3    0    0 -0.29446810689E+02 -0.53215400548E+02  0.36207011074E+03  0.36714269516E+03  0.00000000000E+00 0.  1.
         11    1    3    3    0    0  0.46501507540E+02  0.15569206240E+00  0.21696717948E+03  0.22189450515E+03  0.00000000000E+00 0. -1.
<mgrwt>
<rscale>  0 0.12901796E+03</rscale>
<asrwt>0</asrwt>
<pdfrwt beam="1">  1        1 0.32768573E+00 0.13686397E+03</pdfrwt>
<pdfrwt beam="2">  1       -1 0.12352590E-02 0.13686397E+03</pdfrwt>
<totfact> 0.38219351E+03</totfact>
</mgrwt>
</event>
<event>
 7    1  0.1422977E-005  0.1361020E+03  0.7546771E-02  0.1231403E+00
          1   -1    0    0  501    0  0.00000000000E+00  0.00000000000E+00  0.28650218516E+03  0.28650218516E+03  0.00000000000E+00 0. -1.
         -1   -1    0    0    0  501 -0.00000000000E+00 -0.00000000000E+00 -0.50532450849E+02  0.50532450849E+02  0.00000000000E+00 0.  1.
         23    2    1    2    0    0  0.13346141145E+02  0.52151705582E+02  0.96896666485E+02  0.14244511496E+03  0.89463550801E+02 0.  0.
          5    1    1    2  502    0  0.53579260477E+02 -0.23384006971E+02  0.37891183751E+02  0.69823926711E+02  0.47000000000E+01 0. -1.
         -5    1    1    2    0  502 -0.66925401621E+02 -0.28767698611E+02  0.10118188408E+03  0.12476559434E+03  0.47000000000E+01 0. -1.
        -11    1    3    3    0    0  0.16867931854E+02  0.66204039579E+02  0.31086205372E+02  0.75059004430E+02  0.00000000000E+00 0.  1.
         11    1    3    3    0    0 -0.35217907094E+01 -0.14052333997E+02  0.65810461113E+02  0.67386110531E+02  0.00000000000E+00 0. -1.
<mgrwt>
<rscale>  0 0.12737523E+03</rscale>
<asrwt>0</asrwt>
<pdfrwt beam="1">  1        1 0.44077258E-01 0.13610203E+03</pdfrwt>
<pdfrwt beam="2">  1       -1 0.77742234E-02 0.13610203E+03</pdfrwt>
<totfact> 0.79389437E+03</totfact>
</mgrwt>
</event>
<event>
 7    1  0.1422977E-005  0.1497039E+03  0.7546771E-02  0.1210284E+00
          2   -1    0    0  501    0  0.00000000000E+00  0.00000000000E+00  0.40941406222E+03  0.40941406222E+03  0.00000000000E+00 0. -1.
         -2   -1    0    0    0  501 -0.00000000000E+00 -0.00000000000E+00 -0.45972159579E+02  0.45972159579E+02  0.00000000000E+00 0.  1.
         23    2    1    2    0    0 -0.26064723745E+02 -0.78145315120E+02  0.13308005077E+03  0.18065391048E+03  0.90219040998E+02 0.  0.
          5    1    1    2  502    0  0.54395713918E+02  0.92741239190E+02  0.21174711236E+03  0.23752633693E+03  0.47000000000E+01 0.  1.
         -5    1    1    2    0  502 -0.28330990173E+02 -0.14595924070E+02  0.18614739500E+02  0.37205974390E+02  0.47000000000E+01 0.  1.
        -11    1    3    3    0    0 -0.58900936873E+02 -0.58683260778E+02  0.80946051641E+02  0.11604011693E+03  0.00000000000E+00 0.  1.
         11    1    3    3    0    0  0.32836213128E+02 -0.19462054342E+02  0.52133999132E+02  0.64613793553E+02  0.00000000000E+00 0. -1.
<mgrwt>
<rscale>  0 0.14228729E+03</rscale>
<asrwt>0</asrwt>
<pdfrwt beam="1">  1        2 0.62986776E-01 0.14970391E+03</pdfrwt>
<pdfrwt beam="2">  1       -2 0.70726402E-02 0.14970391E+03</pdfrwt>
<totfact> 0.85531964E+03</totfact>
</mgrwt>
</event>
<event>
 6    1  0.1422977E-005  0.1760954E+03  0.7546771E-02  0.1212313E+00
          2   -1    0    0  501    0  0.00000000000E+00  0.00000000000E+00  0.94542771323E+03  0.94542771323E+03  0.00000000000E+00 0. -1.
         -2   -1    0    0    0  501 -0.00000000000E+00 -0.00000000000E+00 -0.53582945623E+02  0.53582945623E+02  0.00000000000E+00 0.  1.
          5    1    1    2  502    0  0.59435397889E+02 -0.32419728302E+02  0.38581337119E+03  0.39173671349E+03  0.47000000000E+01 0. -1.
         -5    1    1    2    0  502 -0.10762035724E+03 -0.43671039005E+00  0.52252988535E+03  0.53351841870E+03  0.47000000000E+01 0.  1.
        -11    1    1    2    0    0  0.25225169242E+02 -0.53345185700E+01  0.11935405568E+01  0.25810672032E+02  0.00000000000E+00 0. -1.
         11    1    1    2    0    0  0.22959790111E+02  0.38190957262E+02 -0.17692029488E+02  0.47944854634E+02  0.00000000000E+00 0.  1.
<mgrwt>
<rscale>  0 0.14075795E+03</rscale>
<asrwt>0</asrwt>
<pdfrwt beam="1">  1        2 0.14545041E+00 0.17609539E+03</pdfrwt>
<pdfrwt beam="2">  1       -2 0.82435308E-02 0.17609539E+03</pdfrwt>
<totfact> 0.25416941E+03</totfact>
</mgrwt>
</event>
<event>
 7    1  0.1422977E-005  0.1271709E+03  0.7546771E-02  0.1255207E+00
          2   -1    0    0  501    0  0.00000000000E+00  0.00000000000E+00  0.25964256890E+03  0.25964256890E+03  0.00000000000E+00 0. -1.
         -2   -1    0    0    0  501 -0.00000000000E+00 -0.00000000000E+00 -0.41017511166E+02  0.41017511166E+02  0.00000000000E+00 0.  1.
         23    2    1    2    0    0 -0.24245238820E+01 -0.23238569006E+02  0.79440772783E+02  0.11212707659E+03  0.75602483552E+02 0.  0.
          5    1    1    2  502    0 -0.96539042292E+01 -0.19529584465E+02 -0.15744990586E+02  0.27287309592E+02  0.47000000000E+01 0.  1.
         -5    1    1    2    0  502  0.12078428111E+02  0.42768153471E+02  0.15492927554E+03  0.16124569388E+03  0.47000000000E+01 0.  1.
        -11    1    3    3    0    0  0.80780212321E+01 -0.83184710770E+01 -0.13279027229E+02  0.17629065552E+02  0.00000000000E+00 0.  1.
         11    1    3    3    0    0 -0.10502545114E+02 -0.14920097929E+02  0.92719800012E+02  0.94498011040E+02  0.00000000000E+00 0. -1.
<mgrwt>
<rscale>  0 0.11294754E+03</rscale>
<asrwt>0</asrwt>
<pdfrwt beam="1">  1        2 0.39945009E-01 0.12717086E+03</pdfrwt>
<pdfrwt beam="2">  1       -2 0.63103865E-02 0.12717086E+03</pdfrwt>
<totfact> 0.16310697E+04</totfact>
</mgrwt>
</event>
<event>
 7    1  0.1422977E-005  0.1348923E+03  0.7546771E-02  0.1234600E+00
         -2   -1    0    0    0  501 -0.00000000000E+00  0.00000000000E+00  0.90733680938E+02  0.90733680938E+02  0.00000000000E+00 0.  1.
          2   -1    0    0  501    0  0.00000000000E+00 -0.00000000000E+00 -0.15257883756E+03  0.15257883756E+03  0.00000000000E+00 0. -1.
         23    2    1    2    0    0 -0.45562462376E+02 -0.22275183194E+02 -0.25943604505E+02  0.10372432036E+03  0.86680691361E+02 0.  0.
          5    1    1    2  502    0  0.30210243294E+02 -0.36630241214E+02 -0.57598000754E+02  0.74793402530E+02  0.47000000000E+01 0. -1.
         -5    1    1    2    0  502  0.15352219082E+02  0.58905424408E+02  0.21696448633E+02  0.64794795614E+02  0.47000000000E+01 0. -1.
        -11    1    3    3    0    0 -0.23597570517E+02 -0.16676476604E+02  0.31033950502E+02  0.42403493842E+02  0.00000000000E+00 0.  1.
         11    1    3    3    0    0 -0.21964891859E+02 -0.55987065894E+01 -0.56977555008E+02  0.61320826515E+02  0.00000000000E+00 0. -1.
<mgrwt>
<rscale>  0 0.12530071E+03</rscale>
<asrwt>0</asrwt>
<pdfrwt beam="2">  1        2 0.23473667E-01 0.13489234E+03</pdfrwt>
<pdfrwt beam="1">  1       -2 0.13959028E-01 0.13489234E+03</pdfrwt>
<totfact> 0.84158847E+03</totfact>
</mgrwt>
</event>
<event>
 7    1  0.1422977E-005  0.1526167E+03  0.7546771E-02  0.1220627E+00
          1   -1    0    0  501    0  0.00000000000E+00  0.00000000000E+00  0.83848756474E+03  0.83848756474E+03  0.00000000000E+00 0. -1.
         -1   -1    0    0    0  501 -0.00000000000E+00 -0.00000000000E+00 -0.18467755445E+02  0.18467755445E+02  0.00000000000E+00 0.  1.
         23    2    1    2    0    0 -0.40374643617E-01 -0.20520980916E+02  0.24201071434E+03  0.25913730842E+03  0.90342938137E+02 0.  0.
          5    1    1    2  502    0 -0.20974858897E+02 -0.59450838716E+02  0.33957984114E+03  0.34541410718E+03  0.47000000000E+01 0. -1.
         -5    1    1    2    0  502  0.21015233540E+02  0.79971819633E+02  0.23842925381E+03  0.25240390458E+03  0.47000000000E+01 0.  1.
        -11    1    3    3    0    0  0.45823902722E+01 -0.49701008822E+02  0.78821495558E+02  0.93295320035E+02  0.00000000000E+00 0. -1.
         11    1    3    3    0    0 -0.46227649158E+01  0.29180027906E+02  0.16318921879E+03  0.16584198839E+03  0.00000000000E+00 0.  1.
<mgrwt>
<rscale>  0 0.13471197E+03</rscale>
<asrwt>0</asrwt>
<pdfrwt beam="1">  1        1 0.12899806E+00 0.15261671E+03</pdfrwt>
<pdfrwt beam="2">  1       -1 0.28411938E-02 0.15261671E+03</pdfrwt>
<totfact> 0.84917029E+03</totfact>
</mgrwt>
</event>
<event>
 7    1  0.1422977E-005  0.1286955E+03  0.7546771E-02  0.1243696E+00
          2   -1    0    0  501    0  0.00000000000E+00  0.00000000000E+00  0.14450239453E+03  0.14450239453E+03  0.00000000000E+00 0. -1.
         -2   -1    0    0    0  501 -0.00000000000E+00 -0.00000000000E+00 -0.10367936453E+03  0.10367936453E+03  0.00000000000E+00 0.  1.
         23    2    1    2    0    0  0.58527344879E+01  0.30079723988E+02 -0.30762663743E+02  0.10091655171E+03  0.91097555573E+02 0.  0.
          5    1    1    2  502    0 -0.36948939240E+02  0.30585365058E+02  0.61590073604E+02  0.78205599756E+02  0.47000000000E+01 0. -1.
         -5    1    1    2    0  502  0.31096204752E+02 -0.60665089046E+02  0.99956201452E+01  0.69059607594E+02  0.47000000000E+01 0. -1.
        -11    1    3    3    0    0  0.18709202801E+02 -0.24798718761E+02 -0.31919225807E+02  0.44540405226E+02  0.00000000000E+00 0.  1.
         11    1    3    3    0    0 -0.12856468313E+02  0.54878442749E+02  0.11565620634E+01  0.56376146479E+02  0.00000000000E+00 0. -1.
<mgrwt>
<rscale>  0 0.11963786E+03</rscale>
<asrwt>0</asrwt>
<pdfrwt beam="1">  1        2 0.22231138E-01 0.12869549E+03</pdfrwt>
<pdfrwt beam="2">  1       -2 0.15950671E-01 0.12869549E+03</pdfrwt>
<totfact> 0.71668551E+03</totfact>
</mgrwt>
</event>
<event>
 7    1  0.1422977E-005  0.1966177E+03  0.7546771E-02  0.1157137E+00
         -2   -1    0    0    0  501 -0.00000000000E+00  0.00000000000E+00  0.34249854888E+03  0.34249854888E+03  0.00000000000E+00 0.  1.
          2   -1    0    0  501    0  0.00000000000E+00 -0.00000000000E+00 -0.10292150475E+03  0.10292150475E+03  0.00000000000E+00 0. -1.
         23    2    1    2    0    0  0.14811392464E+03  0.33127868925E+02  0.13668160962E+03  0.22350566455E+03  0.90761937559E+02 0.  0.
          5    1    1    2  502    0 -0.30563195250E+02 -0.50931691665E+02  0.81601466370E+02  0.10103977154E+03  0.47000000000E+01 0. -1.
         -5    1    1    2    0  502 -0.11755072939E+03  0.17803822740E+02  0.21293968149E+02  0.12087461753E+03  0.47000000000E+01 0. -1.
        -11    1    3    3    0    0  0.64301913115E+02  0.33064018810E+02  0.12031609956E+02  0.73298874536E+02  0.00000000000E+00 0. -1.
         11    1    3    3    0    0  0.83812011522E+02  0.63850115319E-01  0.12464999966E+03  0.15020679002E+03  0.00000000000E+00 0.  1.
<mgrwt>
<rscale>  0 0.19147542E+03</rscale>
<asrwt>0</asrwt>
<pdfrwt beam="2">  1        2 0.15834078E-01 0.19661771E+03</pdfrwt>
<pdfrwt beam="1">  1       -2 0.52692084E-01 0.19661771E+03</pdfrwt>
<totfact> 0.12493099E+03</totfact>
</mgrwt>
</event>
<event>
 7    1  0.1422977E-005  0.2553558E+03  0.7546771E-02  0.1112945E+00
          1   -1    0    0  501    0  0.00000000000E+00  0.00000000000E+00  0.86880032878E+03  0.86880032878E+03  0.00000000000E+00 0. -1.
         -1   -1    0    0    0  501 -0.00000000000E+00 -0.00000000000E+00 -0.11453068075E+03  0.11453068075E+03  0.00000000000E+00 0.  1.
         23    2    1    2    0    0  0.20971201588E+03 -0.74845759418E+02  0.60927376680E+02  0.24446019803E+03  0.80421551134E+02 0.  0.
          5    1    1    2  502    0  0.30954784823E+01  0.39100077987E+02  0.10996702474E+03  0.11684705651E+03  0.47000000000E+01 0. -1.
         -5    1    1    2    0  502 -0.21280749436E+03  0.35745681432E+02  0.58337524661E+03  0.62202375498E+03  0.47000000000E+01 0. -1.
        -11    1    3    3    0    0  0.16392712526E+03 -0.58905182320E+02  0.10495890404E+02  0.17450526243E+03  0.00000000000E+00 0.  1.
         11    1    3    3    0    0  0.45784890613E+02 -0.15940577099E+02  0.50431486276E+02  0.69954935600E+02  0.00000000000E+00 0. -1.
<mgrwt>
<rscale>  0 0.25057048E+03</rscale>
<asrwt>0</asrwt>
<pdfrwt beam="1">  1        1 0.13366158E+00 0.25535577E+03</pdfrwt>
<pdfrwt beam="2">  1       -1 0.17620105E-01 0.25535577E+03</pdfrwt>
<totfact> 0.50465443E+02</totfact>
</mgrwt>
</event>
<event>
 7    1  0.1422977E-005  0.2178472E+03  0.7546771E-02  0.1138922E+00
         -2   -1    0    0    0  501 -0.00000000000E+00  0.00000000000E+00  0.30012893136E+02  0.30012893136E+02  0.00000000000E+00 0.  1.
          2   -1    0    0  501    0  0.00000000000E+00 -0.00000000000E+00 -0.17112221998E+04  0.17112221998E+04  0.00000000000E+00 0. -1.
         23    2    1    2    0    0  0.49673054114E+02  0.17135872315E+03 -0.47611594546E+03  0.51660967980E+03  0.91476463831E+02 0.  0.
          5    1    1    2  502    0 -0.60471251266E+02 -0.13063720077E+03 -0.11233359452E+04  0.11325319360E+04  0.47000000000E+01 0.  1.
         -5    1    1    2    0  502  0.10798197152E+02 -0.40721522378E+02 -0.81757416063E+02  0.92093477119E+02  0.47000000000E+01 0.  1.
        -11    1    3    3    0    0  0.64901230916E+02  0.82986688220E+02 -0.19641650629E+03  0.22288652750E+03  0.00000000000E+00 0. -1.
         11    1    3    3    0    0 -0.15228176802E+02  0.88372034932E+02 -0.27969943916E+03  0.29372315230E+03  0.00000000000E+00 0.  1.
<mgrwt>
<rscale>  0 0.21337380E+03</rscale>
<asrwt>0</asrwt>
<pdfrwt beam="2">  1        2 0.26326497E+00 0.21784718E+03</pdfrwt>
<pdfrwt beam="1">  1       -2 0.46173680E-02 0.21784718E+03</pdfrwt>
<totfact> 0.23327548E+03</totfact>
</mgrwt>
</event>
<event>
 7    1  0.1422977E-005  0.1304480E+03  0.7546771E-02  0.1242068E+00
          2   -1    0    0  501    0  0.00000000000E+00  0.00000000000E+00  0.99223233147E+03  0.99223233147E+03  0.00000000000E+00 0. -1.
         -2   -1    0    0    0  501 -0.00000000000E+00 -0.00000000000E+00 -0.16548807384E+02  0.16548807384E+02  0.00000000000E+00 0.  1.
         23    2    1    2    0    0  0.26288953211E+02  0.26476965431E+02  0.19278292801E+03  0.21508723369E+03  0.87778824373E+02 0.  0.
          5    1    1    2  502    0 -0.17108368276E+02 -0.64203585342E+02  0.23107333957E+03  0.24048237959E+03  0.47000000000E+01 0.  1.
         -5    1    1    2    0  502 -0.91805849342E+01  0.37726619910E+02  0.55182725652E+03  0.55321152557E+03  0.47000000000E+01 0.  1.
        -11    1    3    3    0    0 -0.45394399168E+01 -0.21596641507E+02  0.12276381991E+03  0.12473161956E+03  0.00000000000E+00 0. -1.
         11    1    3    3    0    0  0.30828393127E+02  0.48073606938E+02  0.70019108092E+02  0.90355614130E+02  0.00000000000E+00 0.  1.
<mgrwt>
<rscale>  0 0.12062625E+03</rscale>
<asrwt>0</asrwt>
<pdfrwt beam="1">  1        2 0.15265108E+00 0.13044797E+03</pdfrwt>
<pdfrwt beam="2">  1       -2 0.25459711E-02 0.13044797E+03</pdfrwt>
<totfact> 0.13737473E+04</totfact>
</mgrwt>
</event>
<event>
 7    1  0.1422977E-005  0.1321168E+03  0.7546771E-02  0.1237403E+00
         -1   -1    0    0    0  501 -0.00000000000E+00  0.00000000000E+00  0.58235253008E+03  0.58235253008E+03  0.00000000000E+00 0.  1.
          1   -1    0    0  501    0  0.00000000000E+00 -0.00000000000E+00 -0.23776517040E+02  0.23776517040E+02  0.00000000000E+00 0. -1.
         23    2    1    2    0    0 -0.29968728442E+02 -0.30530464933E+02  0.20088041477E+03  0.22481422317E+03  0.91423519568E+02 0.  0.
          5    1    1    2  502    0 -0.38858811325E+02 -0.22220742471E+02  0.11093241420E+03  0.11971574305E+03  0.47000000000E+01 0.  1.
         -5    1    1    2    0  502  0.68827539767E+02  0.52751207404E+02  0.24676318407E+03  0.26159908090E+03  0.47000000000E+01 0.  1.
        -11    1    3    3    0    0  0.22198793526E+02  0.15007696768E+02  0.91620114600E+02  0.95458173016E+02  0.00000000000E+00 0.  1.
         11    1    3    3    0    0 -0.52167521968E+02 -0.45538161702E+02  0.10926030017E+03  0.12935605016E+03  0.00000000000E+00 0. -1.
<mgrwt>
<rscale>  0 0.12351859E+03</rscale>
<asrwt>0</asrwt>
<pdfrwt beam="2">  1        1 0.36579261E-02 0.13211682E+03</pdfrwt>
<pdfrwt beam="1">  1       -1 0.89592686E-01 0.13211682E+03</pdfrwt>
<totfact> 0.31786696E+03</totfact>
</mgrwt>
</event>
<event>
 7    1  0.1422977E-005  0.1303193E+03  0.7546771E-02  0.1240995E+00
         -1   -1    0    0    0  501 -0.00000000000E+00  0.00000000000E+00  0.65885937821E+02  0.65885937821E+02  0.00000000000E+00 0.  1.
          1   -1    0    0  501    0  0.00000000000E+00 -0.00000000000E+00 -0.48522658719E+03  0.48522658719E+03  0.00000000000E+00 0. -1.
         23    2    1    2    0    0  0.58039704625E+01  0.36385872819E+02  0.13853092540E+02  0.98741057432E+02  0.90555344602E+02 0.  0.
          5    1    1    2  502    0 -0.20571142038E+02 -0.74920205828E+02 -0.18469839435E+03  0.20042902984E+03  0.47000000000E+01 0. -1.
         -5    1    1    2    0  502  0.14767171576E+02  0.38534333010E+02 -0.24849534756E+03  0.25194243774E+03  0.47000000000E+01 0. -1.
        -11    1    3    3    0    0 -0.20068891245E+02  0.40883050095E+02  0.40777207477E+02  0.61130719205E+02  0.00000000000E+00 0.  1.
         11    1    3    3    0    0  0.25872861708E+02 -0.44971772758E+01 -0.26924114937E+02  0.37610338227E+02  0.00000000000E+00 0. -1.
<mgrwt>
<rscale>  0 0.12128354E+03</rscale>
<asrwt>0</asrwt>
<pdfrwt beam="2">  1        1 0.74650243E-01 0.13031933E+03</pdfrwt>
<pdfrwt beam="1">  1       -1 0.10136298E-01 0.13031933E+03</pdfrwt>
<totfact> 0.27326612E+03</totfact>
</mgrwt>
</event>
<event>
 7    1  0.1422977E-005  0.1514990E+03  0.7546771E-02  0.1207458E+00
         -1   -1    0    0    0  501 -0.00000000000E+00  0.00000000000E+00  0.11806193068E+03  0.11806193068E+03  0.00000000000E+00 0.  1.
          1   -1    0    0  501    0  0.00000000000E+00 -0.00000000000E+00 -0.17283326019E+03  0.17283326019E+03  0.00000000000E+00 0. -1.
         23    2    1    2    0    0  0.48908175112E+02  0.70250482051E+02  0.11056475372E+02  0.12571270226E+03  0.91401849216E+02 0.  0.
          5    1    1    2  502    0 -0.25232370341E+02 -0.76413007667E+02  0.13771132966E+02  0.81776245676E+02  0.47000000000E+01 0. -1.
         -5    1    1    2    0  502 -0.23675804771E+02  0.61625256154E+01 -0.79598937846E+02  0.83406242930E+02  0.47000000000E+01 0. -1.
        -11    1    3    3    0    0  0.32722934403E+02  0.41488132404E+02  0.51314093249E+02  0.73655900865E+02  0.00000000000E+00 0.  1.
         11    1    3    3    0    0  0.16185240710E+02  0.28762349648E+02 -0.40257617877E+02  0.52056801393E+02  0.00000000000E+00 0. -1.
<mgrwt>
<rscale>  0 0.14445435E+03</rscale>
<asrwt>0</asrwt>
<pdfrwt beam="2">  1        1 0.26589732E-01 0.15149903E+03</pdfrwt>
<pdfrwt beam="1">  1       -1 0.18163374E-01 0.15149903E+03</pdfrwt>
<totfact> 0.40306737E+03</totfact>
</mgrwt>
</event>
<event>
 7    1  0.1422977E-005  0.1262936E+03  0.7546771E-02  0.1249111E+00
         -2   -1    0    0    0  501 -0.00000000000E+00  0.00000000000E+00  0.17311780486E+02  0.17311780486E+02  0.00000000000E+00 0.  1.
          2   -1    0    0  501    0  0.00000000000E+00 -0.00000000000E+00 -0.73061591143E+03  0.73061591143E+03  0.00000000000E+00 0. -1.
         23    2    1    2    0    0 -0.98151172989E+00  0.17996285441E+02 -0.20877073709E+03  0.22782768708E+03  0.89417026788E+02 0.  0.
          5    1    1    2  502    0 -0.10612615025E+02  0.41353992939E+01 -0.49127136775E+03  0.49142586002E+03  0.47000000000E+01 0.  1.
         -5    1    1    2    0  502  0.11594126755E+02 -0.22131684735E+02 -0.13262026097E+02  0.28674144810E+02  0.47000000000E+01 0.  1.
        -11    1    3    3    0    0  0.94340800462E+01  0.48411465589E+02 -0.17225043590E+03  0.17917277844E+03  0.00000000000E+00 0.  1.
         11    1    3    3    0    0 -0.10415591776E+02 -0.30415180148E+02 -0.36520301189E+02  0.48654908636E+02  0.00000000000E+00 0. -1.
<mgrwt>
<rscale>  0 0.11642679E+03</rscale>
<asrwt>0</asrwt>
<pdfrwt beam="2">  1        2 0.11240245E+00 0.12629358E+03</pdfrwt>
<pdfrwt beam="1">  1       -2 0.26633507E-02 0.12629358E+03</pdfrwt>
<totfact> 0.18962401E+04</totfact>
</mgrwt>
</event>
<event>
 7    1  0.1422977E-005  0.1371429E+03  0.7546771E-02  0.1228667E+00
          2   -1    0    0  501    0  0.00000000000E+00  0.00000000000E+00  0.44414941500E+03  0.44414941500E+03  0.00000000000E+00 0. -1.
         -2   -1    0    0    0  501 -0.00000000000E+00 -0.00000000000E+00 -0.36556585408E+02  0.36556585408E+02  0.00000000000E+00 0.  1.
         23    2    1    2    0    0 -0.27924068459E+02  0.49034068159E+02  0.11605403207E+03  0.15852118876E+03  0.92067016287E+02 0.  0.
          5    1    1    2  502    0 -0.31618214701E+02 -0.35551813792E+02  0.23166180649E+03  0.23654370748E+03  0.47000000000E+01 0.  1.
         -5    1    1    2    0  502  0.59542283160E+02 -0.13482254367E+02  0.59876991042E+02  0.85641104167E+02  0.47000000000E+01 0.  1.
        -11    1    3    3    0    0 -0.56163328560E+02  0.44889906315E+02  0.53043602702E+02  0.89347898417E+02  0.00000000000E+00 0.  1.
         11    1    3    3    0    0  0.28239260101E+02  0.41441618445E+01  0.63010429366E+02  0.69173290347E+02  0.00000000000E+00 0. -1.
<mgrwt>
<rscale>  0 0.12918717E+03</rscale>
<asrwt>0</asrwt>
<pdfrwt beam="1">  1        2 0.68330676E-01 0.13714293E+03</pdfrwt>
<pdfrwt beam="2">  1       -2 0.56240904E-02 0.13714293E+03</pdfrwt>
<totfact> 0.11040541E+04</totfact>
</mgrwt>
</event>
<event>
 7    1  0.1422977E-005  0.2240240E+03  0.7546771E-02  0.1130918E+00
          1   -1    0    0  501    0  0.00000000000E+00  0.00000000000E+00  0.24816865409E+03  0.24816865409E+03  0.00000000000E+00 0. -1.
         -1   -1    0    0    0  501 -0.00000000000E+00 -0.00000000000E+00 -0.50557113424E+02  0.50557113424E+02  0.00000000000E+00 0.  1.
         23    2    1    2    0    0 -0.79959420864E+01 -0.27183550147E+02  0.80549408424E+02  0.12517185815E+03  0.91525441198E+02 0.  0.
          5    1    1    2  502    0 -0.15612547184E+02 -0.47059329385E+02  0.51238267675E+02  0.71454756218E+02  0.47000000000E+01 0. -1.
         -5    1    1    2    0  502  0.23608489271E+02  0.74242879532E+02  0.65823864563E+02  0.10209915314E+03  0.47000000000E+01 0. -1.
        -11    1    3    3    0    0 -0.26399723018E+02 -0.22799885879E+02 -0.70203393573E+01  0.35581811874E+02  0.00000000000E+00 0.  1.
         11    1    3    3    0    0  0.18403780932E+02 -0.43836642671E+01  0.87569747781E+02  0.89590046274E+02  0.00000000000E+00 0. -1.
<mgrwt>
<rscale>  0 0.22402402E+03</rscale>
<asrwt>0</asrwt>
<pdfrwt beam="1">  1        1 0.38179792E-01 0.22402402E+03</pdfrwt>
<pdfrwt beam="2">  1       -1 0.77780175E-02 0.22402402E+03</pdfrwt>
<totfact> 0.98074196E+03</totfact>
</mgrwt>
</event>
<event>
 7    1  0.1422977E-005  0.2436062E+03  0.7546771E-02  0.1119951E+00
         -1   -1    0    0    0  501 -0.00000000000E+00  0.00000000000E+00  0.13547230120E+03  0.13547230120E+03  0.00000000000E+00 0.  1.
          1   -1    0    0  501    0  0.00000000000E+00 -0.00000000000E+00 -0.41406821885E+03  0.41406821885E+03  0.00000000000E+00 0. -1.
         23    2    1    2    0    0 -0.20312534320E+03 -0.49592155131E+02 -0.11313681967E+03  0.25505677500E+03  0.92383611147E+02 0.  0.
          5    1    1    2  502    0 -0.11995151443E+02 -0.14203827923E+02 -0.12984706198E+02  0.23158691260E+02  0.47000000000E+01 0.  1.
         -5    1    1    2    0  502  0.21512049464E+03  0.63795983055E+02 -0.15247439179E+03  0.27132505380E+03  0.47000000000E+01 0.  1.
        -11    1    3    3    0    0 -0.38949144891E+02 -0.19820904006E+01 -0.67784020549E+02  0.78202544791E+02  0.00000000000E+00 0. -1.
         11    1    3    3    0    0 -0.16417619831E+03 -0.47610064731E+02 -0.45352799117E+02  0.17685423021E+03  0.00000000000E+00 0.  1.
<mgrwt>
<rscale>  0 0.23976245E+03</rscale>
<asrwt>0</asrwt>
<pdfrwt beam="2">  1        1 0.63702801E-01 0.24360616E+03</pdfrwt>
<pdfrwt beam="1">  1       -1 0.20841893E-01 0.24360616E+03</pdfrwt>
<totfact> 0.10919147E+03</totfact>
</mgrwt>
</event>
<event>
 7    1  0.1422977E-005  0.1274047E+03  0.7546771E-02  0.1246831E+00
         -2   -1    0    0    0  501 -0.00000000000E+00  0.00000000000E+00  0.84979430681E+01  0.84979430681E+01  0.00000000000E+00 0. -1.
          2   -1    0    0  501    0  0.00000000000E+00 -0.00000000000E+00 -0.20855842396E+04  0.20855842396E+04  0.00000000000E+00 0.  1.
         23    2    1    2    0    0  0.21708785771E+01  0.24645590895E+02 -0.34499035261E+03  0.35730692253E+03  0.89653642591E+02 0.  0.
          5    1    1    2  502    0  0.60125421953E+02 -0.22725757288E+02 -0.95240354448E+03  0.95458165075E+03  0.47000000000E+01 0. -1.
         -5    1    1    2    0  502 -0.62296300530E+02 -0.19198336063E+01 -0.77969239949E+03  0.78219360943E+03  0.47000000000E+01 0. -1.
        -11    1    3    3    0    0  0.45144911774E+02  0.13796494491E+02 -0.14606689741E+03  0.15350552055E+03  0.00000000000E+00 0. -1.
         11    1    3    3    0    0 -0.42974033197E+02  0.10849096404E+02 -0.19892345520E+03  0.20380140198E+03  0.00000000000E+00 0.  1.
<mgrwt>
<rscale>  0 0.11776475E+03</rscale>
<asrwt>0</asrwt>
<pdfrwt beam="2">  1        2 0.32085933E+00 0.12740465E+03</pdfrwt>
<pdfrwt beam="1">  1       -2 0.13073750E-02 0.12740465E+03</pdfrwt>
<totfact> 0.94953787E+03</totfact>
</mgrwt>
</event>
<event>
 7    1  0.1422977E-005  0.1288366E+03  0.7546771E-02  0.1244112E+00
          1   -1    0    0  501    0  0.00000000000E+00  0.00000000000E+00  0.79262132626E+03  0.79262132626E+03  0.00000000000E+00 0. -1.
         -1   -1    0    0    0  501 -0.00000000000E+00 -0.00000000000E+00 -0.20691500439E+02  0.20691500439E+02  0.00000000000E+00 0.  1.
         23    2    1    2    0    0 -0.20483697609E+02 -0.23514092732E+02  0.14546080774E+03  0.17373305266E+03  0.89732004185E+02 0.  0.
          5    1    1    2  502    0  0.23899608394E+02 -0.49551886369E+02  0.24690314284E+03  0.25300164558E+03  0.47000000000E+01 0.  1.
         -5    1    1    2    0  502 -0.34159107856E+01  0.73065979101E+02  0.37956587524E+03  0.38657812845E+03  0.47000000000E+01 0.  1.
        -11    1    3    3    0    0 -0.91113868898E+01  0.20407061818E+02  0.10613925082E+01  0.22373915552E+02  0.00000000000E+00 0.  1.
         11    1    3    3    0    0 -0.11372310719E+02 -0.43921154550E+02  0.14439941523E+03  0.15135913711E+03  0.00000000000E+00 0. -1.
<mgrwt>
<rscale>  0 0.11938676E+03</rscale>
<asrwt>0</asrwt>
<pdfrwt beam="1">  1        1 0.12194172E+00 0.12883655E+03</pdfrwt>
<pdfrwt beam="2">  1       -1 0.31833084E-02 0.12883655E+03</pdfrwt>
<totfact> 0.77641718E+03</totfact>
</mgrwt>
</event>
<event>
 7    1  0.1422977E-005  0.1319536E+03  0.7546771E-02  0.1237817E+00
         -2   -1    0    0    0  501 -0.00000000000E+00  0.00000000000E+00  0.85718709529E+02  0.85718709529E+02  0.00000000000E+00 0.  1.
          2   -1    0    0  501    0  0.00000000000E+00 -0.00000000000E+00 -0.26034173890E+03  0.26034173890E+03  0.00000000000E+00 0. -1.
         23    2    1    2    0    0  0.42259682963E+02 -0.59763754718E+00  0.27972772627E+02  0.10428200244E+03  0.91137380093E+02 0.  0.
          5    1    1    2  502    0  0.28859418386E+02 -0.82904575845E+01 -0.14923945923E+03  0.15230267203E+03  0.47000000000E+01 0.  1.
         -5    1    1    2    0  502 -0.71119101348E+02  0.88880951317E+01 -0.53356342769E+02  0.89475773958E+02  0.47000000000E+01 0.  1.
        -11    1    3    3    0    0  0.65711229496E+02 -0.52091434018E+00 -0.25829577287E+01  0.65764038077E+02  0.00000000000E+00 0. -1.
         11    1    3    3    0    0 -0.23451546533E+02 -0.76723207000E-01  0.30555730356E+02  0.38517964365E+02  0.00000000000E+00 0.  1.
<mgrwt>
<rscale>  0 0.12325784E+03</rscale>
<asrwt>0</asrwt>
<pdfrwt beam="2">  1        2 0.40052575E-01 0.13195362E+03</pdfrwt>
<pdfrwt beam="1">  1       -2 0.13187494E-01 0.13195362E+03</pdfrwt>
<totfact> 0.51655669E+03</totfact>
</mgrwt>
</event>
<event>
 7    1  0.1422977E-005  0.1401565E+03  0.7546771E-02  0.1224270E+00
         -1   -1    0    0    0  501 -0.00000000000E+00  0.00000000000E+00  0.15456225397E+02  0.15456225397E+02  0.00000000000E+00 0.  1.
          1   -1    0    0  501    0  0.00000000000E+00 -0.00000000000E+00 -0.10209294767E+04  0.10209294767E+04  0.00000000000E+00 0. -1.
         23    2    1    2    0    0  0.38727416796E+02  0.50201560050E+02 -0.46652688045E+03  0.47951316229E+03  0.90914977813E+02 0.  0.
          5    1    1    2  502    0 -0.41578449319E+02  0.21744901799E+02 -0.37231128833E+03  0.37528574929E+03  0.47000000000E+01 0. -1.
         -5    1    1    2    0  502  0.28510325226E+01 -0.71946461850E+02 -0.16663508248E+03  0.18158679047E+03  0.47000000000E+01 0. -1.
        -11    1    3    3    0    0 -0.83592971201E+01  0.61752109294E+02 -0.26892027478E+03  0.27604585677E+03  0.00000000000E+00 0. -1.
         11    1    3    3    0    0  0.47086713916E+02 -0.11550549244E+02 -0.19760660566E+03  0.20346730552E+03  0.00000000000E+00 0.  1.
<mgrwt>
<rscale>  0 0.13217038E+03</rscale>
<asrwt>0</asrwt>
<pdfrwt beam="2">  1        1 0.15706608E+00 0.14015647E+03</pdfrwt>
<pdfrwt beam="1">  1       -1 0.23778807E-02 0.14015647E+03</pdfrwt>
<totfact> 0.79569902E+03</totfact>
</mgrwt>
</event>
<event>
 7    1  0.1422977E-005  0.1643569E+03  0.7546771E-02  0.1191053E+00
          1   -1    0    0  501    0  0.00000000000E+00  0.00000000000E+00  0.39300619396E+03  0.39300619396E+03  0.00000000000E+00 0. -1.
         -1   -1    0    0    0  501 -0.00000000000E+00 -0.00000000000E+00 -0.65923160513E+02  0.65923160513E+02  0.00000000000E+00 0.  1.
         23    2    1    2    0    0  0.36254281255E+02 -0.10037397343E+03  0.77599058500E+02  0.16017287902E+03  0.90798842741E+02 0.  0.
          5    1    1    2  502    0  0.24110552386E+02  0.93890567064E+02  0.19141957857E+03  0.21461664050E+03  0.47000000000E+01 0.  1.
         -5    1    1    2    0  502 -0.60364833640E+02  0.64834063679E+01  0.58064396379E+02  0.84139834950E+02  0.47000000000E+01 0.  1.
        -11    1    3    3    0    0  0.32264404105E+02 -0.87373963837E+02  0.98291534854E+02  0.13541206428E+03  0.00000000000E+00 0. -1.
         11    1    3    3    0    0  0.39898771495E+01 -0.13000009595E+02 -0.20692476354E+02  0.24760814744E+02  0.00000000000E+00 0.  1.
<mgrwt>
<rscale>  0 0.15793059E+03</rscale>
<asrwt>0</asrwt>
<pdfrwt beam="1">  1        1 0.60462490E-01 0.16435686E+03</pdfrwt>
<pdfrwt beam="2">  1       -1 0.10142025E-01 0.16435686E+03</pdfrwt>
<totfact> 0.36085685E+03</totfact>
</mgrwt>
</event>
<event>
 7    1  0.1422977E-005  0.1682907E+03  0.7546771E-02  0.1186097E+00
         -1   -1    0    0    0  501 -0.00000000000E+00  0.00000000000E+00  0.31435085189E+02  0.31435085189E+02  0.00000000000E+00 0.  1.
          1   -1    0    0  501    0  0.00000000000E+00 -0.00000000000E+00 -0.94723405279E+03  0.94723405279E+03  0.00000000000E+00 0. -1.
         23    2    1    2    0    0  0.50172233583E+02 -0.10089592766E+03 -0.22783811679E+03  0.27042350338E+03  0.92311551147E+02 0.  0.
          5    1    1    2  502    0  0.31692442421E+02  0.54092467393E+02 -0.15999137267E+03  0.17190036435E+03  0.47000000000E+01 0. -1.
         -5    1    1    2    0  502 -0.81864676004E+02  0.46803460269E+02 -0.52796947813E+03  0.53634527024E+03  0.47000000000E+01 0. -1.
        -11    1    3    3    0    0  0.50389874609E+02 -0.69690587607E+02 -0.74006902876E+02  0.11345897557E+03  0.00000000000E+00 0.  1.
         11    1    3    3    0    0 -0.21764102543E+00 -0.31205340055E+02 -0.15383121392E+03  0.15696452781E+03  0.00000000000E+00 0. -1.
<mgrwt>
<rscale>  0 0.16232476E+03</rscale>
<asrwt>0</asrwt>
<pdfrwt beam="2">  1        1 0.14572830E+00 0.16829066E+03</pdfrwt>
<pdfrwt beam="1">  1       -1 0.48361674E-02 0.16829066E+03</pdfrwt>
<totfact> 0.32084580E+03</totfact>
</mgrwt>
</event>
<event>
 7    1  0.1422977E-005  0.1381107E+03  0.7546771E-02  0.1227447E+00
          2   -1    0    0  501    0  0.00000000000E+00  0.00000000000E+00  0.18366956185E+04  0.18366956185E+04  0.00000000000E+00 0. -1.
         -2   -1    0    0    0  501 -0.00000000000E+00 -0.00000000000E+00 -0.14961415938E+02  0.14961415938E+02  0.00000000000E+00 0.  1.
         23    2    1    2    0    0  0.57140843178E+02 -0.13581303289E+02  0.23373550170E+03  0.25766380072E+03  0.91152738234E+02 0.  0.
          5    1    1    2  502    0  0.32327478297E+02 -0.24180582058E+02  0.51239192134E+03  0.51400130103E+03  0.47000000000E+01 0. -1.
         -5    1    1    2    0  502 -0.89468321475E+02  0.37761885347E+02  0.10756067796E+04  0.10799919327E+04  0.47000000000E+01 0. -1.
        -11    1    3    3    0    0  0.28170480642E+02  0.13044790402E+02  0.13349441845E+02  0.33792752681E+02  0.00000000000E+00 0.  1.
         11    1    3    3    0    0  0.28970362536E+02 -0.26626093691E+02  0.22038605986E+03  0.22387104804E+03  0.00000000000E+00 0. -1.
<mgrwt>
<rscale>  0 0.13000609E+03</rscale>
<asrwt>0</asrwt>
<pdfrwt beam="1">  1        2 0.28256838E+00 0.13811066E+03</pdfrwt>
<pdfrwt beam="2">  1       -2 0.23017578E-02 0.13811066E+03</pdfrwt>
<totfact> 0.56275822E+03</totfact>
</mgrwt>
</event>
<event>
 7    1  0.1422977E-005  0.1281128E+03  0.7546771E-02  0.1243528E+00
         -2   -1    0    0    0  501 -0.00000000000E+00  0.00000000000E+00  0.71030050161E+02  0.71030050161E+02  0.00000000000E+00 0. -1.
          2   -1    0    0  501    0  0.00000000000E+00 -0.00000000000E+00 -0.22197281836E+03  0.22197281836E+03  0.00000000000E+00 0.  1.
         23    2    1    2    0    0 -0.24106864860E+02  0.14368157414E+02 -0.37061095800E+01  0.97832401769E+02  0.93647523762E+02 0.  0.
          5    1    1    2  502    0 -0.22977727271E+02 -0.58574438686E+02 -0.78904685139E+02  0.10102960039E+03  0.47000000000E+01 0. -1.
         -5    1    1    2    0  502  0.47084592131E+02  0.44206281273E+02 -0.68331973485E+02  0.94140866367E+02  0.47000000000E+01 0. -1.
        -11    1    3    3    0    0 -0.58355501377E+01 -0.39711877484E+02 -0.65931800574E+01  0.40676244689E+02  0.00000000000E+00 0. -1.
         11    1    3    3    0    0 -0.18271314722E+02  0.54080034898E+02  0.28870704774E+01  0.57156157080E+02  0.00000000000E+00 0.  1.
<mgrwt>
<rscale>  0 0.11973938E+03</rscale>
<asrwt>0</asrwt>
<pdfrwt beam="2">  1        2 0.34149664E-01 0.12811275E+03</pdfrwt>
<pdfrwt beam="1">  1       -2 0.10927700E-01 0.12811275E+03</pdfrwt>
<totfact> 0.82472369E+03</totfact>
</mgrwt>
</event>
<event>
 7    1  0.1422977E-005  0.2316810E+03  0.7546771E-02  0.1136685E+00
          2   -1    0    0  501    0  0.00000000000E+00  0.00000000000E+00  0.15059754707E+04  0.15059754707E+04  0.00000000000E+00 0.  1.
         -2   -1    0    0    0  501 -0.00000000000E+00 -0.00000000000E+00 -0.28330722201E+02  0.28330722201E+02  0.00000000000E+00 0. -1.
         23    2    1    2    0    0 -0.11416147997E+03 -0.96732445853E+02  0.51720905603E+03  0.54632198896E+03  0.92587787483E+02 0.  0.
          5    1    1    2  502    0  0.23259911535E+02  0.32841447731E+02  0.28741294325E+02  0.49676314006E+02  0.47000000000E+01 0. -1.
         -5    1    1    2    0  502  0.90901568433E+02  0.63890998121E+02  0.93169439813E+03  0.93830788992E+03  0.47000000000E+01 0.  1.
        -11    1    3    3    0    0 -0.60524755696E+02 -0.26527185627E+02  0.35975823948E+03  0.36577715689E+03  0.00000000000E+00 0.  1.
         11    1    3    3    0    0 -0.53636724272E+02 -0.70205260226E+02  0.15745081655E+03  0.18054483207E+03  0.00000000000E+00 0. -1.
<mgrwt>
<rscale>  0 0.21628295E+03</rscale>
<asrwt>0</asrwt>
<pdfrwt beam="1">  1        2 0.23168847E+00 0.23168096E+03</pdfrwt>
<pdfrwt beam="2">  1       -2 0.43585738E-02 0.23168096E+03</pdfrwt>
<totfact> 0.32650137E+03</totfact>
</mgrwt>
</event>
<event>
 7    1  0.1422977E-005  0.4418673E+03  0.7546771E-02  0.1030175E+00
         -2   -1    0    0    0  501 -0.00000000000E+00  0.00000000000E+00  0.77281022970E+02  0.77281022970E+02  0.00000000000E+00 0.  1.
          2   -1    0    0  501    0  0.00000000000E+00 -0.00000000000E+00 -0.63161269183E+03  0.63161269183E+03  0.00000000000E+00 0. -1.
         23    2    1    2    0    0  0.59499066810E+02  0.96657965188E+02 -0.83022241172E+02  0.16725269732E+03  0.90542095441E+02 0.  0.
          5    1    1    2  502    0  0.74680945628E+02  0.31347147220E+02 -0.13219567282E+03  0.15510536158E+03  0.47000000000E+01 0. -1.
         -5    1    1    2    0  502 -0.13418001244E+03 -0.12800511241E+03 -0.33911375487E+03  0.38653565590E+03  0.47000000000E+01 0.  1.
        -11    1    3    3    0    0 -0.19964305485E+02  0.14282386214E+02 -0.35868782539E+02  0.43464118653E+02  0.00000000000E+00 0.  1.
         11    1    3    3    0    0  0.79463372295E+02  0.82375578974E+02 -0.47153458633E+02  0.12378857867E+03  0.00000000000E+00 0. -1.
<mgrwt>
<rscale>  0 0.44186729E+03</rscale>
<asrwt>0</asrwt>
<pdfrwt beam="2">  1        2 0.97171180E-01 0.44186729E+03</pdfrwt>
<pdfrwt beam="1">  1       -2 0.11889389E-01 0.44186729E+03</pdfrwt>
<totfact> 0.23962607E+03</totfact>
</mgrwt>
</event>
<event>
 7    1  0.1422977E-005  0.1283589E+03  0.7546771E-02  0.1235458E+00
         -2   -1    0    0    0  501 -0.00000000000E+00  0.00000000000E+00  0.15714289082E+02  0.15714289082E+02  0.00000000000E+00 0.  1.
          2   -1    0    0  501    0  0.00000000000E+00 -0.00000000000E+00 -0.99311328723E+03  0.99311328723E+03  0.00000000000E+00 0. -1.
         23    2    1    2    0    0 -0.22508160912E+01  0.29120489956E+02 -0.39693020806E+03  0.41716855970E+03  0.12499179185E+03 0.  0.
          5    1    1    2  502    0  0.97046335321E+01 -0.43386924447E+02 -0.57029696182E+03  0.57204660631E+03  0.47000000000E+01 0. -1.
         -5    1    1    2    0  502 -0.74538174409E+01  0.14266434491E+02 -0.10171828271E+02  0.19612410303E+02  0.47000000000E+01 0.  1.
        -11    1    3    3    0    0  0.21229355853E+02  0.74384621987E+02 -0.23638292412E+03  0.24871800167E+03  0.00000000000E+00 0.  1.
         11    1    3    3    0    0 -0.23480171944E+02 -0.45264132031E+02 -0.16054728394E+03  0.16845055804E+03  0.00000000000E+00 0. -1.
<mgrwt>
<rscale>  0 0.12475166E+03</rscale>
<asrwt>0</asrwt>
<pdfrwt beam="2">  1        2 0.15278666E+00 0.12835894E+03</pdfrwt>
<pdfrwt beam="1">  1       -2 0.24175829E-02 0.12835894E+03</pdfrwt>
<totfact> 0.14780838E+04</totfact>
</mgrwt>
</event>
<event>
 7    1  0.1422977E-005  0.1610900E+03  0.7546771E-02  0.1195191E+00
         -3   -1    0    0    0  501 -0.00000000000E+00  0.00000000000E+00  0.58218387020E+02  0.58218387020E+02  0.00000000000E+00 0.  1.
          3   -1    0    0  501    0  0.00000000000E+00 -0.00000000000E+00 -0.49294680528E+03  0.49294680528E+03  0.00000000000E+00 0. -1.
         23    2    1    2    0    0 -0.21634776334E+02 -0.99270668399E+02 -0.70898624263E+02  0.15326809442E+03  0.90231727755E+02 0.  0.
          5    1    1    2  502    0  0.61653401716E+02  0.10306374675E+03 -0.28431021126E+03  0.30867080209E+03  0.47000000000E+01 0. -1.
         -5    1    1    2    0  502 -0.40018625383E+02 -0.37930783553E+01 -0.79519582735E+02  0.89226295784E+02  0.47000000000E+01 0. -1.
        -11    1    3    3    0    0  0.10082798266E+02 -0.37800088242E+02  0.15942592195E+02  0.42245422686E+02  0.00000000000E+00 0.  1.
         11    1    3    3    0    0 -0.31717574600E+02 -0.61470580157E+02 -0.86841216458E+02  0.11102267174E+03  0.00000000000E+00 0. -1.
<mgrwt>
<rscale>  0 0.15438090E+03</rscale>
<asrwt>0</asrwt>
<pdfrwt beam="2">  1        3 0.75837967E-01 0.16108998E+03</pdfrwt>
<pdfrwt beam="1">  1       -3 0.89566753E-02 0.16108998E+03</pdfrwt>
<totfact> 0.35344450E+02</totfact>
</mgrwt>
</event>
<event>
 7    1  0.1422977E-005  0.1929207E+03  0.7546771E-02  0.1160189E+00
         -2   -1    0    0    0  501 -0.00000000000E+00  0.00000000000E+00  0.28756835029E+02  0.28756835029E+02  0.00000000000E+00 0.  1.
          2   -1    0    0  501    0  0.00000000000E+00 -0.00000000000E+00 -0.13464874782E+04  0.13464874782E+04  0.00000000000E+00 0. -1.
         23    2    1    2    0    0 -0.13613766046E+03 -0.55313027970E+02 -0.38297872583E+03  0.42079183848E+03  0.93808705533E+02 0.  0.
          5    1    1    2  502    0  0.11889513453E+03  0.79454984927E+02 -0.54243922503E+03  0.56099157792E+03  0.47000000000E+01 0. -1.
         -5    1    1    2    0  502  0.17242525936E+02 -0.24141956957E+02 -0.39231269231E+03  0.39346089683E+03  0.47000000000E+01 0. -1.
        -11    1    3    3    0    0 -0.40414327468E+02 -0.59774007461E+02 -0.22220035829E+03  0.23362202177E+03  0.00000000000E+00 0. -1.
         11    1    3    3    0    0 -0.95723332995E+02  0.44609794913E+01 -0.16077836754E+03  0.18716981671E+03  0.00000000000E+00 0.  1.
<mgrwt>
<rscale>  0 0.18809656E+03</rscale>
<asrwt>0</asrwt>
<pdfrwt beam="2">  1        2 0.20715196E+00 0.19292066E+03</pdfrwt>
<pdfrwt beam="1">  1       -2 0.44241276E-02 0.19292066E+03</pdfrwt>
<totfact> 0.38800565E+03</totfact>
</mgrwt>
</event>
<event>
 7    1  0.1422977E-005  0.1477777E+03  0.7546771E-02  0.1212855E+00
          1   -1    0    0  501    0  0.00000000000E+00  0.00000000000E+00  0.42407989030E+03  0.42407989030E+03  0.00000000000E+00 0. -1.
         -1   -1    0    0    0  501 -0.00000000000E+00 -0.00000000000E+00 -0.42576624977E+02  0.42576624977E+02  0.00000000000E+00 0.  1.
         23    2    1    2    0    0  0.59848629491E+02  0.51296371571E+02  0.15422760063E+03  0.19556154417E+03  0.90801919430E+02 0.  0.
          5    1    1    2  502    0 -0.19976532384E+02 -0.51517272434E+02  0.22405688261E+03  0.23081739070E+03  0.47000000000E+01 0. -1.
         -5    1    1    2    0  502 -0.39872097108E+02  0.22090086322E+00  0.32187820737E+01  0.40277580402E+02  0.47000000000E+01 0. -1.
        -11    1    3    3    0    0  0.36479104346E+02 -0.22164201939E+02  0.63405857588E+02  0.76434806718E+02  0.00000000000E+00 0.  1.
         11    1    3    3    0    0  0.23369525145E+02  0.73460573510E+02  0.90821743045E+02  0.11912673745E+03  0.00000000000E+00 0. -1.
<mgrwt>
<rscale>  0 0.14035273E+03</rscale>
<asrwt>0</asrwt>
<pdfrwt beam="1">  1        1 0.65243057E-01 0.14777772E+03</pdfrwt>
<pdfrwt beam="2">  1       -1 0.65502503E-02 0.14777772E+03</pdfrwt>
<totfact> 0.63213089E+03</totfact>
</mgrwt>
</event>
<event>
 7    1  0.1422977E-005  0.1374094E+03  0.7546771E-02  0.1227811E+00
         -1   -1    0    0    0  501 -0.00000000000E+00  0.00000000000E+00  0.23822448889E+03  0.23822448889E+03  0.00000000000E+00 0.  1.
          1   -1    0    0  501    0  0.00000000000E+00 -0.00000000000E+00 -0.74159472876E+02  0.74159472876E+02  0.00000000000E+00 0. -1.
         23    2    1    2    0    0 -0.48940841115E+02 -0.29344545751E+02  0.13185232964E+03  0.17124929589E+03  0.93193219800E+02 0.  0.
          5    1    1    2  502    0  0.52062187643E+01 -0.41733994323E+02 -0.15283967009E+02  0.44994673501E+02  0.47000000000E+01 0.  1.
         -5    1    1    2    0  502  0.43734622350E+02  0.71078540073E+02  0.47496653376E+02  0.96139992370E+02  0.47000000000E+01 0.  1.
        -11    1    3    3    0    0  0.39227756511E+01 -0.24787102908E+02 -0.39912478970E+01  0.25410995635E+02  0.00000000000E+00 0. -1.
         11    1    3    3    0    0 -0.52863616766E+02 -0.45574428429E+01  0.13584357754E+03  0.14583830026E+03  0.00000000000E+00 0.  1.
<mgrwt>
<rscale>  0 0.12976084E+03</rscale>
<asrwt>0</asrwt>
<pdfrwt beam="2">  1        1 0.11409150E-01 0.13740938E+03</pdfrwt>
<pdfrwt beam="1">  1       -1 0.36649921E-01 0.13740938E+03</pdfrwt>
<totfact> 0.37207672E+03</totfact>
</mgrwt>
</event>
<event>
 7    1  0.1422977E-005  0.1822361E+03  0.7546771E-02  0.1170926E+00
          1   -1    0    0  501    0  0.00000000000E+00  0.00000000000E+00  0.10801693259E+04  0.10801693259E+04  0.00000000000E+00 0. -1.
         -1   -1    0    0    0  501 -0.00000000000E+00 -0.00000000000E+00 -0.34954636900E+02  0.34954636900E+02  0.00000000000E+00 0.  1.
         23    2    1    2    0    0 -0.13070385066E+03 -0.22398499689E+02  0.23813145251E+03  0.28772239127E+03  0.92154199014E+02 0.  0.
          5    1    1    2  502    0  0.12585582619E+03  0.57695019221E+02  0.71981042413E+03  0.73301946831E+03  0.47000000000E+01 0.  1.
         -5    1    1    2    0  502  0.48480244706E+01 -0.35296519532E+02  0.87272812386E+02  0.94382103251E+02  0.47000000000E+01 0.  1.
        -11    1    3    3    0    0 -0.16645334685E+02 -0.34073248889E+02  0.24146708854E+02  0.44956834910E+02  0.00000000000E+00 0.  1.
         11    1    3    3    0    0 -0.11405851598E+03  0.11674749201E+02  0.21398474366E+03  0.24276555636E+03  0.00000000000E+00 0. -1.
<mgrwt>
<rscale>  0 0.17681101E+03</rscale>
<asrwt>0</asrwt>
<pdfrwt beam="1">  1        1 0.16617987E+00 0.18223614E+03</pdfrwt>
<pdfrwt beam="2">  1       -1 0.53776373E-02 0.18223614E+03</pdfrwt>
<totfact> 0.21903506E+03</totfact>
</mgrwt>
</event>
<event>
 7    1  0.1422977E-005  0.1523497E+03  0.7546771E-02  0.1205007E+00
         -3   -1    0    0    0  501 -0.00000000000E+00  0.00000000000E+00  0.11552227781E+03  0.11552227781E+03  0.00000000000E+00 0.  1.
          3   -1    0    0  501    0  0.00000000000E+00 -0.00000000000E+00 -0.18089982652E+03  0.18089982652E+03  0.00000000000E+00 0. -1.
         23    2    1    2    0    0 -0.26758110821E+02  0.82517621402E+02  0.20544257431E+01  0.12981632077E+03  0.96555176649E+02 0.  0.
          5    1    1    2  502    0  0.76391139478E+02 -0.37761352605E+02 -0.38631425322E+02  0.93680323247E+02  0.47000000000E+01 0. -1.
         -5    1    1    2    0  502 -0.49633028658E+02 -0.44756268797E+02 -0.28800549131E+02  0.72925460304E+02  0.47000000000E+01 0.  1.
        -11    1    3    3    0    0 -0.14514520901E+02  0.77717645148E+02  0.40751286122E+02  0.88945888072E+02  0.00000000000E+00 0.  1.
         11    1    3    3    0    0 -0.12243589919E+02  0.47999762539E+01 -0.38696860378E+02  0.40870432703E+02  0.00000000000E+00 0. -1.
<mgrwt>
<rscale>  0 0.14636924E+03</rscale>
<asrwt>0</asrwt>
<pdfrwt beam="2">  1        3 0.27830743E-01 0.15234965E+03</pdfrwt>
<pdfrwt beam="1">  1       -3 0.17772658E-01 0.15234965E+03</pdfrwt>
<totfact> 0.80182346E+02</totfact>
</mgrwt>
</event>
<event>
 7    1  0.1422977E-005  0.1677990E+03  0.7546771E-02  0.1186784E+00
         -1   -1    0    0    0  501 -0.00000000000E+00  0.00000000000E+00  0.10320100688E+03  0.10320100688E+03  0.00000000000E+00 0.  1.
          1   -1    0    0  501    0  0.00000000000E+00 -0.00000000000E+00 -0.23834368234E+03  0.23834368234E+03  0.00000000000E+00 0. -1.
         23    2    1    2    0    0  0.95797309197E+02 -0.57920211049E+02 -0.48061971396E+02  0.15249561890E+03  0.91722872788E+02 0.  0.
          5    1    1    2  502    0 -0.86357700034E+02 -0.14167445586E+02 -0.19728402175E+02  0.89831334855E+02  0.47000000000E+01 0.  1.
         -5    1    1    2    0  502 -0.94396091635E+01  0.72087656634E+02 -0.67352301896E+02  0.99217735465E+02  0.47000000000E+01 0.  1.
        -11    1    3    3    0    0  0.69214734063E+01 -0.54296431749E+02 -0.27248981636E+02  0.61143407617E+02  0.00000000000E+00 0.  1.
         11    1    3    3    0    0  0.88875835791E+02 -0.36237792998E+01 -0.20812989761E+02  0.91352211285E+02  0.00000000000E+00 0. -1.
<mgrwt>
<rscale>  0 0.16170631E+03</rscale>
<asrwt>0</asrwt>
<pdfrwt beam="2">  1        1 0.36668258E-01 0.16779899E+03</pdfrwt>
<pdfrwt beam="1">  1       -1 0.15877078E-01 0.16779899E+03</pdfrwt>
<totfact> 0.33580394E+03</totfact>
</mgrwt>
</event>
<event>
 7    1  0.1422977E-005  0.1943977E+03  0.7546771E-02  0.1159076E+00
         -2   -1    0    0    0  501 -0.00000000000E+00  0.00000000000E+00  0.25458554471E+02  0.25458554471E+02  0.00000000000E+00 0.  1.
          2   -1    0    0  501    0  0.00000000000E+00 -0.00000000000E+00 -0.13448323430E+04  0.13448323430E+04  0.00000000000E+00 0. -1.
         23    2    1    2    0    0  0.23726482622E+02  0.14697399321E+03 -0.57991703789E+03  0.60570815653E+03  0.91729490333E+02 0.  0.
          5    1    1    2  502    0 -0.11352113137E+02 -0.13609626733E+03 -0.36511049554E+03  0.38984462085E+03  0.47000000000E+01 0.  1.
         -5    1    1    2    0  502 -0.12374369485E+02 -0.10877725876E+02 -0.37434625509E+03  0.37473812008E+03  0.47000000000E+01 0.  1.
        -11    1    3    3    0    0 -0.26463437200E+02  0.22597604050E+02 -0.66413776559E+02  0.74978363106E+02  0.00000000000E+00 0.  1.
         11    1    3    3    0    0  0.50189919822E+02  0.12437638916E+03 -0.51350326133E+03  0.53072979343E+03  0.00000000000E+00 0. -1.
<mgrwt>
<rscale>  0 0.18931961E+03</rscale>
<asrwt>0</asrwt>
<pdfrwt beam="2">  1        2 0.20689731E+00 0.19439774E+03</pdfrwt>
<pdfrwt beam="1">  1       -2 0.39167002E-02 0.19439774E+03</pdfrwt>
<totfact> 0.46692149E+03</totfact>
</mgrwt>
</event>
<event>
 7    1  0.1422977E-005  0.1412197E+03  0.7546771E-02  0.1221358E+00
         -2   -1    0    0    0  501 -0.00000000000E+00  0.00000000000E+00  0.16138136397E+03  0.16138136397E+03  0.00000000000E+00 0. -1.
          2   -1    0    0  501    0  0.00000000000E+00 -0.00000000000E+00 -0.12670861714E+03  0.12670861714E+03  0.00000000000E+00 0.  1.
         23    2    1    2    0    0  0.53810235295E+02  0.37659824542E+02  0.79493628511E+02  0.13992821874E+03  0.94587872472E+02 0.  0.
          5    1    1    2  502    0 -0.89965914014E+02 -0.28391227885E+01 -0.21766363596E+02  0.92724273450E+02  0.47000000000E+01 0. -1.
         -5    1    1    2    0  502  0.36155678719E+02 -0.34820701754E+02 -0.23054518085E+02  0.55437488926E+02  0.47000000000E+01 0. -1.
        -11    1    3    3    0    0  0.76493020719E+02  0.67384492582E+01  0.54139519359E+02  0.93955715491E+02  0.00000000000E+00 0.  1.
         11    1    3    3    0    0 -0.22682785424E+02  0.30921375284E+02  0.25354109152E+02  0.45972503249E+02  0.00000000000E+00 0. -1.
<mgrwt>
<rscale>  0 0.13419678E+03</rscale>
<asrwt>0</asrwt>
<pdfrwt beam="2">  1        2 0.19493633E-01 0.14121967E+03</pdfrwt>
<pdfrwt beam="1">  1       -2 0.24827902E-01 0.14121967E+03</pdfrwt>
<totfact> 0.39541885E+03</totfact>
</mgrwt>
</event>
<event>
 7    1  0.1422977E-005  0.1438941E+03  0.7546771E-02  0.1218566E+00
          1   -1    0    0  501    0  0.00000000000E+00  0.00000000000E+00  0.88693034255E+02  0.88693034255E+02  0.00000000000E+00 0. -1.
         -1   -1    0    0    0  501 -0.00000000000E+00 -0.00000000000E+00 -0.18959666947E+03  0.18959666947E+03  0.00000000000E+00 0.  1.
         23    2    1    2    0    0  0.52147157523E+02  0.48592651193E+02 -0.47095177091E+02  0.12466396002E+03  0.90788630538E+02 0.  0.
          5    1    1    2  502    0 -0.11933213621E+02 -0.38106874428E+02  0.36372834320E+02  0.54218156945E+02  0.47000000000E+01 0. -1.
         -5    1    1    2    0  502 -0.40213943903E+02 -0.10485776764E+02 -0.90181292442E+02  0.99407586758E+02  0.47000000000E+01 0. -1.
        -11    1    3    3    0    0  0.54473610336E+01  0.17862767439E+02 -0.63672302535E+02  0.66354459631E+02  0.00000000000E+00 0.  1.
         11    1    3    3    0    0  0.46699796490E+02  0.30729883754E+02  0.16577125444E+02  0.58309500390E+02  0.00000000000E+00 0. -1.
<mgrwt>
<rscale>  0 0.13617838E+03</rscale>
<asrwt>0</asrwt>
<pdfrwt beam="1">  1        1 0.13645082E-01 0.14389412E+03</pdfrwt>
<pdfrwt beam="2">  1       -1 0.29168718E-01 0.14389412E+03</pdfrwt>
<totfact> 0.43514944E+03</totfact>
</mgrwt>
</event>
<event>
 7    1  0.1422977E-005  0.2201557E+03  0.7546771E-02  0.1137143E+00
         -1   -1    0    0    0  501 -0.00000000000E+00  0.00000000000E+00  0.58394320804E+02  0.58394320804E+02  0.00000000000E+00 0.  1.
          1   -1    0    0  501    0  0.00000000000E+00 -0.00000000000E+00 -0.87776378362E+03  0.87776378362E+03  0.00000000000E+00 0. -1.
         23    2    1    2    0    0 -0.14421506416E+03  0.10978625450E+03 -0.22802531717E+03  0.30516171230E+03  0.90978673162E+02 0.  0.
          5    1    1    2  502    0  0.29064103184E+02 -0.73218399056E+02 -0.37447197274E+03  0.38269701387E+03  0.47000000000E+01 0.  1.
         -5    1    1    2    0  502  0.11515096098E+03 -0.36567855445E+02 -0.21687217290E+03  0.24829937826E+03  0.47000000000E+01 0.  1.
        -11    1    3    3    0    0 -0.12161681857E+03  0.37807995497E+02 -0.14340699346E+03  0.19179588331E+03  0.00000000000E+00 0. -1.
         11    1    3    3    0    0 -0.22598245596E+02  0.71978259005E+02 -0.84618323719E+02  0.11336582899E+03  0.00000000000E+00 0.  1.
<mgrwt>
<rscale>  0 0.21568248E+03</rscale>
<asrwt>0</asrwt>
<pdfrwt beam="2">  1        1 0.13504057E+00 0.22015574E+03</pdfrwt>
<pdfrwt beam="1">  1       -1 0.89837427E-02 0.22015574E+03</pdfrwt>
<totfact> 0.14316813E+03</totfact>
</mgrwt>
</event>
<event>
 7    1  0.1422977E-005  0.1318434E+03  0.7546771E-02  0.1236268E+00
         -1   -1    0    0    0  501 -0.00000000000E+00  0.00000000000E+00  0.17152330351E+03  0.17152330351E+03  0.00000000000E+00 0.  1.
          1   -1    0    0  501    0  0.00000000000E+00 -0.00000000000E+00 -0.37135305222E+03  0.37135305222E+03  0.00000000000E+00 0. -1.
         23    2    1    2    0    0  0.41977769351E+02 -0.25510484476E+02  0.14229980133E+03  0.17622213389E+03  0.91608346101E+02 0.  0.
          5    1    1    2  502    0 -0.58233212815E+02  0.63922258689E+02 -0.26571798627E+03  0.27947325535E+03  0.47000000000E+01 0. -1.
         -5    1    1    2    0  502  0.16255443464E+02 -0.38411774213E+02 -0.76411563766E+02  0.87180966486E+02  0.47000000000E+01 0.  1.
        -11    1    3    3    0    0  0.60148470587E+02 -0.17632626059E+02  0.14328282729E+03  0.15639282788E+03  0.00000000000E+00 0.  1.
         11    1    3    3    0    0 -0.18170701236E+02 -0.78778584167E+01 -0.98302596303E+00  0.19829306006E+02  0.00000000000E+00 0. -1.
<mgrwt>
<rscale>  0 0.12423587E+03</rscale>
<asrwt>0</asrwt>
<pdfrwt beam="2">  1        1 0.57131239E-01 0.13184343E+03</pdfrwt>
<pdfrwt beam="1">  1       -1 0.26388200E-01 0.13184343E+03</pdfrwt>
<totfact> 0.84630594E+02</totfact>
</mgrwt>
</event>
<event>
 7    1  0.1422977E-005  0.1300887E+03  0.7546771E-02  0.1241318E+00
          1   -1    0    0  501    0  0.00000000000E+00  0.00000000000E+00  0.24215762823E+03  0.24215762823E+03  0.00000000000E+00 0. -1.
         -1   -1    0    0    0  501 -0.00000000000E+00 -0.00000000000E+00 -0.56131024155E+02  0.56131024155E+02  0.00000000000E+00 0.  1.
         23    2    1    2    0    0 -0.26423853317E+02 -0.24431650546E+02  0.48645479338E+02  0.10908862662E+03  0.90767947126E+02 0.  0.
          5    1    1    2  502    0  0.48781085426E+02  0.50449863669E+02  0.13764551016E+03  0.15457412302E+03  0.47000000000E+01 0. -1.
         -5    1    1    2    0  502 -0.22357232110E+02 -0.26018213124E+02 -0.26438541612E+00  0.34625902752E+02  0.47000000000E+01 0. -1.
        -11    1    3    3    0    0 -0.17006440438E+01 -0.47226184146E+02 -0.31197354693E+01  0.47359660140E+02  0.00000000000E+00 0.  1.
         11    1    3    3    0    0 -0.24723209273E+02  0.22794533600E+02  0.51765214808E+02  0.61728966482E+02  0.00000000000E+00 0. -1.
<mgrwt>
<rscale>  0 0.12108458E+03</rscale>
<asrwt>0</asrwt>
<pdfrwt beam="1">  1        1 0.37255019E-01 0.13008872E+03</pdfrwt>
<pdfrwt beam="2">  1       -1 0.86355424E-02 0.13008872E+03</pdfrwt>
<totfact> 0.83116965E+03</totfact>
</mgrwt>
</event>
<event>
 7    1  0.1422977E-005  0.1353165E+03  0.7546771E-02  0.1234394E+00
         -4   -1    0    0    0  501 -0.00000000000E+00  0.00000000000E+00  0.26992349479E+03  0.26992349479E+03  0.00000000000E+00 0.  1.
          4   -1    0    0  501    0  0.00000000000E+00 -0.00000000000E+00 -0.55193472881E+02  0.55193472881E+02  0.00000000000E+00 0. -1.
         23    2    1    2    0    0 -0.51818143871E+02 -0.22734097679E+01  0.13537006332E+03  0.16824579682E+03  0.85389142634E+02 0.  0.
          5    1    1    2  502    0 -0.28349641987E+02 -0.19494254273E+02  0.63202361585E+02  0.72113498461E+02  0.47000000000E+01 0.  1.
         -5    1    1    2    0  502  0.80167785858E+02  0.21767664041E+02  0.16157597005E+02  0.84757672385E+02  0.47000000000E+01 0.  1.
        -11    1    3    3    0    0 -0.83541040242E+01 -0.21868002091E+02 -0.13529873493E+01  0.23448478506E+02  0.00000000000E+00 0. -1.
         11    1    3    3    0    0 -0.43464039846E+02  0.19594592323E+02  0.13672305067E+03  0.14479731832E+03  0.00000000000E+00 0.  1.
<mgrwt>
<rscale>  0 0.12543338E+03</rscale>
<asrwt>0</asrwt>
<pdfrwt beam="2">  1        4 0.84913037E-02 0.13531652E+03</pdfrwt>
<pdfrwt beam="1">  1       -4 0.41526691E-01 0.13531652E+03</pdfrwt>
<totfact> 0.93197587E+02</totfact>
</mgrwt>
</event>
<event>
 7    1  0.1422977E-005  0.1368833E+03  0.7546771E-02  0.1220647E+00
         -2   -1    0    0    0  501 -0.00000000000E+00  0.00000000000E+00  0.11876949159E+03  0.11876949159E+03  0.00000000000E+00 0.  1.
          2   -1    0    0  501    0  0.00000000000E+00 -0.00000000000E+00 -0.16101781646E+03  0.16101781646E+03  0.00000000000E+00 0. -1.
         23    2    1    2    0    0 -0.52299392113E+02  0.19794756336E+02  0.19141659333E+02  0.12976804910E+03  0.11552612107E+03 0.  0.
          5    1    1    2  502    0  0.33753215040E+02 -0.27622898557E+02 -0.98339424235E+02  0.10768025078E+03  0.47000000000E+01 0.  1.
         -5    1    1    2    0  502  0.18546177074E+02  0.78281422205E+01  0.36949440028E+02  0.42339008173E+02  0.47000000000E+01 0.  1.
        -11    1    3    3    0    0 -0.23713147199E+02  0.89490212971E+01 -0.48952477702E+02  0.55124798461E+02  0.00000000000E+00 0. -1.
         11    1    3    3    0    0 -0.28586244915E+02  0.10845735039E+02  0.68094137035E+02  0.74643250635E+02  0.00000000000E+00 0.  1.
<mgrwt>
<rscale>  0 0.13469785E+03</rscale>
<asrwt>0</asrwt>
<pdfrwt beam="2">  1        2 0.24771972E-01 0.13688334E+03</pdfrwt>
<pdfrwt beam="1">  1       -2 0.18272230E-01 0.13688334E+03</pdfrwt>
<totfact> 0.50954860E+03</totfact>
</mgrwt>
</event>
<event>
 7    1  0.1422977E-005  0.1804736E+03  0.7546771E-02  0.1172821E+00
         -1   -1    0    0    0  501 -0.00000000000E+00  0.00000000000E+00  0.51401839088E+02  0.51401839088E+02  0.00000000000E+00 0.  1.
          1   -1    0    0  501    0  0.00000000000E+00 -0.00000000000E+00 -0.63868294962E+03  0.63868294962E+03  0.00000000000E+00 0. -1.
         23    2    1    2    0    0  0.16266642822E+02  0.12915872029E+03 -0.15757486603E+03  0.22401808582E+03  0.91693433100E+02 0.  0.
          5    1    1    2  502    0 -0.44412937796E+01 -0.13417842844E+03 -0.23350116295E+03  0.26938533525E+03  0.47000000000E+01 0.  1.
         -5    1    1    2    0  502 -0.11825349042E+02  0.50197081565E+01 -0.19620508155E+03  0.19668136764E+03  0.47000000000E+01 0.  1.
        -11    1    3    3    0    0 -0.88122063319E+01  0.13190360950E+03 -0.11866244152E+03  0.17764287829E+03  0.00000000000E+00 0.  1.
         11    1    3    3    0    0  0.25078849154E+02 -0.27448892152E+01 -0.38912424516E+02  0.46375207530E+02  0.00000000000E+00 0. -1.
<mgrwt>
<rscale>  0 0.17491079E+03</rscale>
<asrwt>0</asrwt>
<pdfrwt beam="2">  1        1 0.98258915E-01 0.18047359E+03</pdfrwt>
<pdfrwt beam="1">  1       -1 0.79079752E-02 0.18047359E+03</pdfrwt>
<totfact> 0.27862045E+03</totfact>
</mgrwt>
</event>
<event>
 7    1  0.1422977E-005  0.1502432E+03  0.7546771E-02  0.1208723E+00
         -2   -1    0    0    0  501 -0.00000000000E+00  0.00000000000E+00  0.65558691280E+03  0.65558691280E+03  0.00000000000E+00 0.  1.
          2   -1    0    0  501    0  0.00000000000E+00 -0.00000000000E+00 -0.44029501684E+02  0.44029501684E+02  0.00000000000E+00 0. -1.
         23    2    1    2    0    0 -0.59383849215E+01  0.83145513299E+02  0.49196418571E+03  0.50758632717E+03  0.93094998356E+02 0.  0.
          5    1    1    2  502    0  0.38268964173E+02 -0.31399632437E+02  0.12099878078E+03  0.13081760389E+03  0.47000000000E+01 0. -1.
         -5    1    1    2    0  502 -0.32330579252E+02 -0.51745880862E+02 -0.14055553723E+01  0.61212483423E+02  0.47000000000E+01 0. -1.
        -11    1    3    3    0    0 -0.18419915163E+02 -0.16381078299E+02  0.98690473329E+02  0.10172237967E+03  0.00000000000E+00 0. -1.
         11    1    3    3    0    0  0.12481530242E+02  0.99526591598E+02  0.39327371238E+03  0.40586394750E+03  0.00000000000E+00 0.  1.
<mgrwt>
<rscale>  0 0.14347930E+03</rscale>
<asrwt>0</asrwt>
<pdfrwt beam="2">  1        2 0.67737700E-02 0.15024319E+03</pdfrwt>
<pdfrwt beam="1">  1       -2 0.10085952E+00 0.15024319E+03</pdfrwt>
<totfact> 0.86744925E+02</totfact>
</mgrwt>
</event>
<event>
 7    1  0.1422977E-005  0.1539403E+03  0.7546771E-02  0.1204528E+00
         -2   -1    0    0    0  501 -0.00000000000E+00  0.00000000000E+00  0.77607856181E+02  0.77607856181E+02  0.00000000000E+00 0. -1.
          2   -1    0    0  501    0  0.00000000000E+00 -0.00000000000E+00 -0.25500613411E+03  0.25500613411E+03  0.00000000000E+00 0.  1.
         23    2    1    2    0    0  0.86092698725E+02 -0.25683029624E+02 -0.87832079273E+02  0.15451371617E+03  0.89935774583E+02 0.  0.
          5    1    1    2  502    0 -0.73100748765E+02 -0.35293851567E+02 -0.18392637864E+02  0.83365187914E+02  0.47000000000E+01 0. -1.
         -5    1    1    2    0  502 -0.12991949960E+02  0.60976881190E+02 -0.71173560789E+02  0.94735086208E+02  0.47000000000E+01 0. -1.
        -11    1    3    3    0    0  0.49433360247E+02  0.23810463007E+02 -0.10861010415E+02  0.55933503387E+02  0.00000000000E+00 0. -1.
         11    1    3    3    0    0  0.36659338478E+02 -0.49493492631E+02 -0.76971068858E+02  0.98580212780E+02  0.00000000000E+00 0.  1.
<mgrwt>
<rscale>  0 0.14674705E+03</rscale>
<asrwt>0</asrwt>
<pdfrwt beam="2">  1        2 0.39231713E-01 0.15394026E+03</pdfrwt>
<pdfrwt beam="1">  1       -2 0.11939670E-01 0.15394026E+03</pdfrwt>
<totfact> 0.62525363E+03</totfact>
</mgrwt>
</event>
<event>
 7    1  0.1422977E-005  0.1713196E+03  0.7546771E-02  0.1182827E+00
         -1   -1    0    0    0  501 -0.00000000000E+00  0.00000000000E+00  0.15824626290E+03  0.15824626290E+03  0.00000000000E+00 0.  1.
          1   -1    0    0  501    0  0.00000000000E+00 -0.00000000000E+00 -0.16161571861E+03  0.16161571861E+03  0.00000000000E+00 0. -1.
         23    2    1    2    0    0  0.60179860647E+02  0.10051778600E+03 -0.14294059403E+01  0.14853138353E+03  0.91291225004E+02 0.  0.
          5    1    1    2  502    0 -0.52172808068E+02 -0.36782196907E+02 -0.57672049074E+02  0.86157339533E+02  0.47000000000E+01 0.  1.
         -5    1    1    2    0  502 -0.80070525794E+01 -0.63735589089E+02  0.55731999307E+02  0.85173258446E+02  0.47000000000E+01 0.  1.
        -11    1    3    3    0    0  0.18685710478E+02  0.42093105265E+01 -0.33741641827E+02  0.38799129686E+02  0.00000000000E+00 0. -1.
         11    1    3    3    0    0  0.41494150169E+02  0.96308475469E+02  0.32312235887E+02  0.10973225384E+03  0.00000000000E+00 0.  1.
<mgrwt>
<rscale>  0 0.16531218E+03</rscale>
<asrwt>0</asrwt>
<pdfrwt beam="2">  1        1 0.24863957E-01 0.17131961E+03</pdfrwt>
<pdfrwt beam="1">  1       -1 0.24345579E-01 0.17131961E+03</pdfrwt>
<totfact> 0.27441931E+03</totfact>
</mgrwt>
</event>
<event>
 7    1  0.1422977E-005  0.1358379E+03  0.7546771E-02  0.1231577E+00
         -1   -1    0    0    0  501 -0.00000000000E+00  0.00000000000E+00  0.18553466395E+03  0.18553466395E+03  0.00000000000E+00 0.  1.
          1   -1    0    0  501    0  0.00000000000E+00 -0.00000000000E+00 -0.77978435201E+02  0.77978435201E+02  0.00000000000E+00 0. -1.
         23    2    1    2    0    0  0.49837922572E+02  0.18530942286E+02  0.50189072270E+02  0.11605827254E+03  0.90129713755E+02 0.  0.
          5    1    1    2  502    0  0.84316615266E+01  0.29301276647E+02 -0.21998858515E+02  0.37890599167E+02  0.47000000000E+01 0.  1.
         -5    1    1    2    0  502 -0.58269584098E+02 -0.47832218933E+02  0.79366014991E+02  0.10956422744E+03  0.47000000000E+01 0.  1.
        -11    1    3    3    0    0  0.72628891375E+02  0.18233528642E+02  0.18694046083E+02  0.77180857653E+02  0.00000000000E+00 0. -1.
         11    1    3    3    0    0 -0.22790968803E+02  0.29741364456E+00  0.31495026187E+02  0.38877414888E+02  0.00000000000E+00 0.  1.
<mgrwt>
<rscale>  0 0.12726101E+03</rscale>
<asrwt>0</asrwt>
<pdfrwt beam="2">  1        1 0.11996682E-01 0.13583790E+03</pdfrwt>
<pdfrwt beam="1">  1       -1 0.28543794E-01 0.13583790E+03</pdfrwt>
<totfact> 0.53206587E+03</totfact>
</mgrwt>
</event>
<event>
 7    1  0.1422977E-005  0.1386223E+03  0.7546771E-02  0.1227103E+00
          1   -1    0    0  501    0  0.00000000000E+00  0.00000000000E+00  0.61894383630E+03  0.61894383630E+03  0.00000000000E+00 0. -1.
         -1   -1    0    0    0  501 -0.00000000000E+00 -0.00000000000E+00 -0.28232527964E+02  0.28232527964E+02  0.00000000000E+00 0.  1.
         23    2    1    2    0    0 -0.54880288187E+02 -0.24072102989E+02  0.14766329235E+03  0.18294832194E+03  0.89857266927E+02 0.  0.
          5    1    1    2  502    0  0.47155175688E+02 -0.37448419516E+02  0.32738391405E+03  0.33290886425E+03  0.47000000000E+01 0.  1.
         -5    1    1    2    0  502  0.77251124989E+01  0.61520522505E+02  0.11566410194E+03  0.13131917807E+03  0.47000000000E+01 0.  1.
        -11    1    3    3    0    0  0.13876611232E+02 -0.25538461959E+02  0.13207536372E+02  0.31925106038E+02  0.00000000000E+00 0.  1.
         11    1    3    3    0    0 -0.68756899419E+02  0.14663589699E+01  0.13445575597E+03  0.15102321590E+03  0.00000000000E+00 0. -1.
<mgrwt>
<rscale>  0 0.13023818E+03</rscale>
<asrwt>0</asrwt>
<pdfrwt beam="1">  1        1 0.95222118E-01 0.13862226E+03</pdfrwt>
<pdfrwt beam="2">  1       -1 0.43434663E-02 0.13862226E+03</pdfrwt>
<totfact> 0.70467826E+03</totfact>
</mgrwt>
</event>
<event>
 7    1  0.1422977E-005  0.2645528E+03  0.7546771E-02  0.1106531E+00
         -1   -1    0    0    0  501 -0.00000000000E+00  0.00000000000E+00  0.35526524094E+02  0.35526524094E+02  0.00000000000E+00 0.  1.
          1   -1    0    0  501    0  0.00000000000E+00 -0.00000000000E+00 -0.20641899441E+04  0.20641899441E+04  0.00000000000E+00 0. -1.
         23    2    1    2    0    0  0.19047653164E+03 -0.13448045092E+03 -0.66636059408E+03  0.71196389805E+03  0.92140381964E+02 0.  0.
          5    1    1    2  502    0 -0.10109745062E+03  0.14149549802E+03 -0.84578142166E+03  0.86348710107E+03  0.47000000000E+01 0. -1.
         -5    1    1    2    0  502 -0.89379081017E+02 -0.70150471009E+01 -0.51652140423E+03  0.52426546905E+03  0.47000000000E+01 0. -1.
        -11    1    3    3    0    0  0.74042630572E+02 -0.49343269674E+02 -0.39229282601E+03  0.40225704561E+03  0.00000000000E+00 0.  1.
         11    1    3    3    0    0  0.11643390107E+03 -0.85137181248E+02 -0.27406776807E+03  0.30970685243E+03  0.00000000000E+00 0. -1.
<mgrwt>
<rscale>  0 0.26102241E+03</rscale>
<asrwt>0</asrwt>
<pdfrwt beam="2">  1        1 0.31756771E+00 0.26455284E+03</pdfrwt>
<pdfrwt beam="1">  1       -1 0.54656186E-02 0.26455284E+03</pdfrwt>
<totfact> 0.47200302E+02</totfact>
</mgrwt>
</event>
<event>
 7    1  0.1422977E-005  0.1250422E+03  0.7546771E-02  0.1252724E+00
         -1   -1    0    0    0  501 -0.00000000000E+00  0.00000000000E+00  0.38234239339E+02  0.38234239339E+02  0.00000000000E+00 0.  1.
          1   -1    0    0  501    0  0.00000000000E+00 -0.00000000000E+00 -0.30728074137E+03  0.30728074137E+03  0.00000000000E+00 0. -1.
         23    2    1    2    0    0  0.28990220623E+01  0.66145549603E+00 -0.77956495645E+02  0.11714915600E+03  0.87394895079E+02 0.  0.
          5    1    1    2  502    0 -0.10583128347E+02 -0.40676482726E+02 -0.11049414069E+02  0.43712222590E+02  0.47000000000E+01 0.  1.
         -5    1    1    2    0  502  0.76841062845E+01  0.40015027230E+02 -0.18004059232E+03  0.18465360212E+03  0.47000000000E+01 0.  1.
        -11    1    3    3    0    0  0.64618410402E+01  0.20736408001E+02  0.12066208447E+02  0.24846476465E+02  0.00000000000E+00 0.  1.
         11    1    3    3    0    0 -0.35628189780E+01 -0.20074952505E+02 -0.90022704092E+02  0.92302679535E+02  0.00000000000E+00 0. -1.
<mgrwt>
<rscale>  0 0.11434755E+03</rscale>
<asrwt>0</asrwt>
<pdfrwt beam="2">  1        1 0.47273961E-01 0.12504223E+03</pdfrwt>
<pdfrwt beam="1">  1       -1 0.58821906E-02 0.12504223E+03</pdfrwt>
<totfact> 0.10979094E+04</totfact>
</mgrwt>
</event>
<event>
 7    1  0.1422977E-005  0.1416706E+03  0.7546771E-02  0.1222158E+00
         -1   -1    0    0    0  501 -0.00000000000E+00  0.00000000000E+00  0.18097148908E+02  0.18097148908E+02  0.00000000000E+00 0.  1.
          1   -1    0    0  501    0  0.00000000000E+00 -0.00000000000E+00 -0.93308068541E+03  0.93308068541E+03  0.00000000000E+00 0. -1.
         23    2    1    2    0    0  0.41711352186E+02 -0.52024656862E+02 -0.30533696249E+03  0.32528686994E+03  0.90191381341E+02 0.  0.
          5    1    1    2  502    0  0.27922873654E+02  0.51064916693E+02 -0.14980724019E+03  0.16078436430E+03  0.47000000000E+01 0.  1.
         -5    1    1    2    0  502 -0.69634225840E+02  0.95974016902E+00 -0.45983933381E+03  0.46510660007E+03  0.47000000000E+01 0.  1.
        -11    1    3    3    0    0  0.55464393876E+02 -0.39043267215E+02 -0.29695097946E+03  0.30459901494E+03  0.00000000000E+00 0.  1.
         11    1    3    3    0    0 -0.13753041690E+02 -0.12981389647E+02 -0.83859830330E+01  0.20687854996E+02  0.00000000000E+00 0. -1.
<mgrwt>
<rscale>  0 0.13363606E+03</rscale>
<asrwt>0</asrwt>
<pdfrwt beam="2">  1        1 0.14355090E+00 0.14167058E+03</pdfrwt>
<pdfrwt beam="1">  1       -1 0.27841762E-02 0.14167058E+03</pdfrwt>
<totfact> 0.73550855E+03</totfact>
</mgrwt>
</event>
<event>
 7    1  0.1422977E-005  0.2311991E+03  0.7546771E-02  0.1128651E+00
          1   -1    0    0  501    0  0.00000000000E+00  0.00000000000E+00  0.79826574710E+02  0.79826574710E+02  0.00000000000E+00 0. -1.
         -1   -1    0    0    0  501 -0.00000000000E+00 -0.00000000000E+00 -0.67919009182E+03  0.67919009182E+03  0.00000000000E+00 0.  1.
         23    2    1    2    0    0  0.15985559679E+03 -0.11079524627E+03 -0.18270686409E+03  0.28251293156E+03  0.92748907757E+02 0.  0.
          5    1    1    2  502    0 -0.72650615153E+02 -0.15276911918E+02 -0.99710087103E+02  0.12440131587E+03  0.47000000000E+01 0. -1.
         -5    1    1    2    0  502 -0.87204981633E+02  0.12607215819E+03 -0.31694656592E+03  0.35210241911E+03  0.47000000000E+01 0. -1.
        -11    1    3    3    0    0  0.17948978395E+02  0.16149072133E+02 -0.29538074903E+02  0.38150442004E+02  0.00000000000E+00 0. -1.
         11    1    3    3    0    0  0.14190661839E+03 -0.12694431841E+03 -0.15316878919E+03  0.24436248955E+03  0.00000000000E+00 0.  1.
<mgrwt>
<rscale>  0 0.22716507E+03</rscale>
<asrwt>0</asrwt>
<pdfrwt beam="1">  1        1 0.12281012E-01 0.23119914E+03</pdfrwt>
<pdfrwt beam="2">  1       -1 0.10449078E+00 0.23119914E+03</pdfrwt>
<totfact> 0.44482516E+02</totfact>
</mgrwt>
</event>
<event>
 7    1  0.1422977E-005  0.3621619E+03  0.7546771E-02  0.1058732E+00
          2   -1    0    0  501    0  0.00000000000E+00  0.00000000000E+00  0.10401871930E+04  0.10401871930E+04  0.00000000000E+00 0. -1.
         -2   -1    0    0    0  501 -0.00000000000E+00 -0.00000000000E+00 -0.12639811962E+03  0.12639811962E+03  0.00000000000E+00 0.  1.
         23    2    1    2    0    0  0.29739852801E+03  0.16459207180E+03  0.55147310836E+03  0.65430206041E+03  0.91935642964E+02 0.  0.
          5    1    1    2  502    0 -0.28295129146E+03 -0.17607155184E+03  0.30462854093E+03  0.45153434272E+03  0.47000000000E+01 0.  1.
         -5    1    1    2    0  502 -0.14447236548E+02  0.11479480038E+02  0.57687424117E+02  0.60748909514E+02  0.47000000000E+01 0.  1.
        -11    1    3    3    0    0  0.46715701319E+02  0.52430924863E+02  0.65137614275E+02  0.95782396217E+02  0.00000000000E+00 0.  1.
         11    1    3    3    0    0  0.25068282669E+03  0.11216114694E+03  0.48633549409E+03  0.55851966419E+03  0.00000000000E+00 0. -1.
<mgrwt>
<rscale>  0 0.35962496E+03</rscale>
<asrwt>0</asrwt>
<pdfrwt beam="1">  1        2 0.16002879E+00 0.36216194E+03</pdfrwt>
<pdfrwt beam="2">  1       -2 0.19445865E-01 0.36216194E+03</pdfrwt>
<totfact> 0.54612112E+02</totfact>
</mgrwt>
</event>
<event>
 7    1  0.1422977E-005  0.2081540E+03  0.7546771E-02  0.1146864E+00
          2   -1    0    0  501    0  0.00000000000E+00  0.00000000000E+00  0.89950397281E+03  0.89950397281E+03  0.00000000000E+00 0. -1.
         -2   -1    0    0    0  501 -0.00000000000E+00 -0.00000000000E+00 -0.44061445563E+02  0.44061445563E+02  0.00000000000E+00 0.  1.
         23    2    1    2    0    0 -0.16475866138E+03  0.23605987389E+02  0.41636750312E+03  0.45764881132E+03  0.91530747299E+02 0.  0.
          5    1    1    2  502    0 -0.53637938003E+01 -0.23369920394E+02  0.13732768958E+03  0.13948443565E+03  0.47000000000E+01 0.  1.
         -5    1    1    2    0  502  0.17012245518E+03 -0.23606699442E+00  0.30174733454E+03  0.34643217141E+03  0.47000000000E+01 0.  1.
        -11    1    3    3    0    0 -0.68575721932E+02  0.49269187719E+02  0.24884120084E+03  0.26277752136E+03  0.00000000000E+00 0.  1.
         11    1    3    3    0    0 -0.96182939445E+02 -0.25663200331E+02  0.16752630228E+03  0.19487128995E+03  0.00000000000E+00 0. -1.
<mgrwt>
<rscale>  0 0.20344529E+03</rscale>
<asrwt>0</asrwt>
<pdfrwt beam="1">  1        2 0.13838521E+00 0.20815396E+03</pdfrwt>
<pdfrwt beam="2">  1       -2 0.67786846E-02 0.20815396E+03</pdfrwt>
<totfact> 0.36931065E+03</totfact>
</mgrwt>
</event>
<event>
 7    1  0.1422977E-005  0.1592461E+03  0.7546771E-02  0.1197021E+00
          1   -1    0    0  501    0  0.00000000000E+00  0.00000000000E+00  0.32137312751E+03  0.32137312751E+03  0.00000000000E+00 0. -1.
         -1   -1    0    0    0  501 -0.00000000000E+00 -0.00000000000E+00 -0.72641624475E+02  0.72641624475E+02  0.00000000000E+00 0.  1.
         23    2    1    2    0    0 -0.27690851609E+02  0.94704849845E+02  0.62242266205E+02  0.14878515661E+03  0.92342467368E+02 0.  0.
          5    1    1    2  502    0  0.18766487971E+02 -0.74198984871E+02  0.20302459328E+03  0.21702245483E+03  0.47000000000E+01 0. -1.
         -5    1    1    2    0  502  0.89243636383E+01 -0.20505864974E+02 -0.16535356444E+02  0.28207140539E+02  0.47000000000E+01 0. -1.
        -11    1    3    3    0    0 -0.16420837058E+02  0.28333264409E+02 -0.23107888167E+02  0.40079823569E+02  0.00000000000E+00 0.  1.
         11    1    3    3    0    0 -0.11270014551E+02  0.66371585436E+02  0.85350154372E+02  0.10870533305E+03  0.00000000000E+00 0. -1.
<mgrwt>
<rscale>  0 0.15284382E+03</rscale>
<asrwt>0</asrwt>
<pdfrwt beam="1">  1        1 0.49442019E-01 0.15924610E+03</pdfrwt>
<pdfrwt beam="2">  1       -1 0.11175635E-01 0.15924610E+03</pdfrwt>
<totfact> 0.39963104E+03</totfact>
</mgrwt>
</event>
<event>
 7    1  0.1422977E-005  0.1652667E+03  0.7546771E-02  0.1189844E+00
          1   -1    0    0  501    0  0.00000000000E+00  0.00000000000E+00  0.26024189332E+04  0.26024189332E+04  0.00000000000E+00 0. -1.
         -1   -1    0    0    0  501 -0.00000000000E+00 -0.00000000000E+00 -0.10709624765E+02  0.10709624765E+02  0.00000000000E+00 0.  1.
         23    2    1    2    0    0  0.33880506468E+02 -0.10266560540E+03  0.69715557362E+03  0.71138016678E+03  0.91365926967E+02 0.  0.
          5    1    1    2  502    0  0.28761605650E+02  0.71444026630E+02  0.55241174279E+03  0.55777441898E+03  0.47000000000E+01 0. -1.
         -5    1    1    2    0  502 -0.62642112118E+02  0.31221578774E+02  0.13421419921E+04  0.13439739722E+04  0.47000000000E+01 0. -1.
        -11    1    3    3    0    0  0.63847371878E+02 -0.79506783082E+02  0.55360489962E+03  0.56291757863E+03  0.00000000000E+00 0. -1.
         11    1    3    3    0    0 -0.29966865411E+02 -0.23158822322E+02  0.14355067400E+03  0.14846258815E+03  0.00000000000E+00 0.  1.
<mgrwt>
<rscale>  0 0.15898825E+03</rscale>
<asrwt>0</asrwt>
<pdfrwt beam="1">  1        1 0.40037164E+00 0.16526672E+03</pdfrwt>
<pdfrwt beam="2">  1       -1 0.16476367E-02 0.16526672E+03</pdfrwt>
<totfact> 0.12467607E+03</totfact>
</mgrwt>
</event>
<event>
 7    1  0.1422977E-005  0.1782666E+03  0.7546771E-02  0.1175272E+00
          2   -1    0    0  501    0  0.00000000000E+00  0.00000000000E+00  0.20580038893E+03  0.20580038893E+03  0.00000000000E+00 0. -1.
         -2   -1    0    0    0  501 -0.00000000000E+00 -0.00000000000E+00 -0.13723404913E+03  0.13723404913E+03  0.00000000000E+00 0.  1.
         23    2    1    2    0    0 -0.82629986841E+02 -0.96571860076E+02  0.15504436695E+02  0.15703834778E+03  0.90922033807E+02 0.  0.
          5    1    1    2  502    0  0.95184088315E+02  0.47317985188E+02  0.75265872604E+02  0.13033051818E+03  0.47000000000E+01 0.  1.
         -5    1    1    2    0  502 -0.12554101475E+02  0.49253874888E+02 -0.22203969508E+02  0.55665572100E+02  0.47000000000E+01 0.  1.
        -11    1    3    3    0    0 -0.97846701890E+02 -0.79521240070E+02 -0.52112976505E+01  0.12619335290E+03  0.00000000000E+00 0.  1.
         11    1    3    3    0    0  0.15216715049E+02 -0.17050620006E+02  0.20715734346E+02  0.30844994877E+02  0.00000000000E+00 0. -1.
<mgrwt>
<rscale>  0 0.17249327E+03</rscale>
<asrwt>0</asrwt>
<pdfrwt beam="1">  1        2 0.31661598E-01 0.17826660E+03</pdfrwt>
<pdfrwt beam="2">  1       -2 0.21112931E-01 0.17826660E+03</pdfrwt>
<totfact> 0.30925177E+03</totfact>
</mgrwt>
</event>
<event>
 7    1  0.1422977E-005  0.1378465E+03  0.7546771E-02  0.1233336E+00
         -2   -1    0    0    0  501 -0.00000000000E+00  0.00000000000E+00  0.33382156676E+03  0.33382156676E+03  0.00000000000E+00 0.  1.
          2   -1    0    0  501    0  0.00000000000E+00 -0.00000000000E+00 -0.69219527078E+02  0.69219527078E+02  0.00000000000E+00 0. -1.
         23    2    1    2    0    0 -0.48324988321E+02  0.32276093870E+02  0.24557948851E+03  0.26388827036E+03  0.77140672306E+02 0.  0.
          5    1    1    2  502    0  0.40645447214E+02  0.18117371257E+01 -0.48196797284E+02  0.63248367876E+02  0.47000000000E+01 0. -1.
         -5    1    1    2    0  502  0.76795411080E+01 -0.34087830996E+02  0.67219348448E+02  0.75904455596E+02  0.47000000000E+01 0. -1.
        -11    1    3    3    0    0 -0.28229742627E+02  0.52680360950E+02  0.20930697895E+03  0.21767303516E+03  0.00000000000E+00 0.  1.
         11    1    3    3    0    0 -0.20095245694E+02 -0.20404267080E+02  0.36272509560E+02  0.46215235197E+02  0.00000000000E+00 0. -1.
<mgrwt>
<rscale>  0 0.12611559E+03</rscale>
<asrwt>0</asrwt>
<pdfrwt beam="2">  1        2 0.10649158E-01 0.13784648E+03</pdfrwt>
<pdfrwt beam="1">  1       -2 0.51357163E-01 0.13784648E+03</pdfrwt>
<totfact> 0.20841075E+03</totfact>
</mgrwt>
</event>
<event>
 7    1  0.1422977E-005  0.1391655E+03  0.7546771E-02  0.1226312E+00
         -3   -1    0    0    0  501 -0.00000000000E+00  0.00000000000E+00  0.67707344588E+02  0.67707344588E+02  0.00000000000E+00 0.  1.
          3   -1    0    0  501    0  0.00000000000E+00 -0.00000000000E+00 -0.22990219592E+03  0.22990219592E+03  0.00000000000E+00 0. -1.
         23    2    1    2    0    0 -0.66145590904E+01 -0.60834082914E+02 -0.89152849778E+02  0.14044026687E+03  0.89614172430E+02 0.  0.
          5    1    1    2  502    0  0.96577214182E+01  0.48131174435E+02 -0.10845066262E+03  0.11913655089E+03  0.47000000000E+01 0.  1.
         -5    1    1    2    0  502 -0.30431623278E+01  0.12702908479E+02  0.35408661066E+02  0.38032722743E+02  0.47000000000E+01 0.  1.
        -11    1    3    3    0    0  0.70471355910E+01 -0.55234341629E+02 -0.10495671185E+03  0.11881248242E+03  0.00000000000E+00 0. -1.
         11    1    3    3    0    0 -0.13661694681E+02 -0.55997412849E+01  0.15803862075E+02  0.21627784457E+02  0.00000000000E+00 0.  1.
<mgrwt>
<rscale>  0 0.13077357E+03</rscale>
<asrwt>0</asrwt>
<pdfrwt beam="2">  1        3 0.35369569E-01 0.13916554E+03</pdfrwt>
<pdfrwt beam="1">  1       -3 0.10416515E-01 0.13916554E+03</pdfrwt>
<totfact> 0.12537611E+03</totfact>
</mgrwt>
</event>
<event>
 7    1  0.1422977E-005  0.1961126E+03  0.7546771E-02  0.1157497E+00
         -1   -1    0    0    0  501 -0.00000000000E+00  0.00000000000E+00  0.30473499742E+03  0.30473499742E+03  0.00000000000E+00 0.  1.
          1   -1    0    0  501    0  0.00000000000E+00 -0.00000000000E+00 -0.17619768548E+03  0.17619768548E+03  0.00000000000E+00 0. -1.
         23    2    1    2    0    0  0.34848398735E+02  0.14703846109E+03  0.20480807186E+03  0.27051073833E+03  0.91624196135E+02 0.  0.
          5    1    1    2  502    0  0.28940580069E+02 -0.10981733413E+03 -0.15604509843E+02  0.11473009535E+03  0.47000000000E+01 0.  1.
         -5    1    1    2    0  502 -0.63788978804E+02 -0.37221126961E+02 -0.60666250076E+02  0.95691849221E+02  0.47000000000E+01 0.  1.
        -11    1    3    3    0    0  0.34742772768E+02  0.62011947444E+02  0.32071265891E+02  0.77981459215E+02  0.00000000000E+00 0.  1.
         11    1    3    3    0    0  0.10562596718E+00  0.85026513650E+02  0.17273680597E+03  0.19252927911E+03  0.00000000000E+00 0. -1.
<mgrwt>
<rscale>  0 0.19107338E+03</rscale>
<asrwt>0</asrwt>
<pdfrwt beam="2">  1        1 0.27107336E-01 0.19611264E+03</pdfrwt>
<pdfrwt beam="1">  1       -1 0.46882307E-01 0.19611264E+03</pdfrwt>
<totfact> 0.79755887E+02</totfact>
</mgrwt>
</event>
<event>
 7    1  0.1422977E-005  0.1727942E+03  0.7546771E-02  0.1181040E+00
          2   -1    0    0  501    0  0.00000000000E+00  0.00000000000E+00  0.53443549063E+03  0.53443549063E+03  0.00000000000E+00 0. -1.
         -2   -1    0    0    0  501 -0.00000000000E+00 -0.00000000000E+00 -0.50876524651E+02  0.50876524651E+02  0.00000000000E+00 0.  1.
         23    2    1    2    0    0 -0.93842115220E+02  0.73680545991E+02  0.16894000013E+03  0.22636505843E+03  0.92006796414E+02 0.  0.
          5    1    1    2  502    0  0.11253457817E+03 -0.91564148524E+02  0.28090332917E+03  0.31619107343E+03  0.47000000000E+01 0.  1.
         -5    1    1    2    0  502 -0.18692462948E+02  0.17883602534E+02  0.33715636680E+02  0.42755883425E+02  0.47000000000E+01 0.  1.
        -11    1    3    3    0    0 -0.97267989554E+02  0.45198095353E+02  0.82577176153E+02  0.13536217949E+03  0.00000000000E+00 0.  1.
         11    1    3    3    0    0  0.34258743339E+01  0.28482450637E+02  0.86362823976E+02  0.91002878934E+02  0.00000000000E+00 0. -1.
<mgrwt>
<rscale>  0 0.16697484E+03</rscale>
<asrwt>0</asrwt>
<pdfrwt beam="1">  1        2 0.82220841E-01 0.17279417E+03</pdfrwt>
<pdfrwt beam="2">  1       -2 0.78271580E-02 0.17279417E+03</pdfrwt>
<totfact> 0.55075166E+03</totfact>
</mgrwt>
</event>
<event>
 7    1  0.1422977E-005  0.2713919E+03  0.7546771E-02  0.1102542E+00
          2   -1    0    0  501    0  0.00000000000E+00  0.00000000000E+00  0.54633343855E+03  0.54633343855E+03  0.00000000000E+00 0. -1.
         -2   -1    0    0    0  501 -0.00000000000E+00 -0.00000000000E+00 -0.15626977214E+03  0.15626977214E+03  0.00000000000E+00 0.  1.
         23    2    1    2    0    0  0.16023844947E+03 -0.17987643444E+03  0.41201548052E+02  0.26060962335E+03  0.90487103290E+02 0.  0.
          5    1    1    2  502    0 -0.95129734819E+01  0.96348776803E+02  0.15249891941E+03  0.18069752040E+03  0.47000000000E+01 0.  1.
         -5    1    1    2    0  502 -0.15072547599E+03  0.83527657640E+02  0.19636319894E+03  0.26129606695E+03  0.47000000000E+01 0.  1.
        -11    1    3    3    0    0  0.11131617352E+03 -0.16605855686E+03  0.56093197881E+02  0.20763713936E+03  0.00000000000E+00 0. -1.
         11    1    3    3    0    0  0.48922275950E+02 -0.13817877586E+02 -0.14891649829E+02  0.52972483987E+02  0.00000000000E+00 0.  1.
<mgrwt>
<rscale>  0 0.26780651E+03</rscale>
<asrwt>0</asrwt>
<pdfrwt beam="1">  1        2 0.84051297E-01 0.27139188E+03</pdfrwt>
<pdfrwt beam="2">  1       -2 0.24041504E-01 0.27139188E+03</pdfrwt>
<totfact> 0.85950619E+02</totfact>
</mgrwt>
</event>
<event>
 7    1  0.1422977E-005  0.1696156E+03  0.7546771E-02  0.1185573E+00
         -1   -1    0    0    0  501 -0.00000000000E+00  0.00000000000E+00  0.15510787103E+03  0.15510787103E+03  0.00000000000E+00 0. -1.
          1   -1    0    0  501    0  0.00000000000E+00 -0.00000000000E+00 -0.18290214235E+03  0.18290214235E+03  0.00000000000E+00 0.  1.
         23    2    1    2    0    0 -0.10003954719E+03 -0.56012257792E+02  0.48673158335E+02  0.15195434826E+03  0.87038862524E+02 0.  0.
          5    1    1    2  502    0  0.87680517068E+02  0.79651532231E+01  0.74244657537E+01  0.88478977339E+02  0.47000000000E+01 0.  1.
         -5    1    1    2    0  502  0.12359030118E+02  0.48047104568E+02 -0.83891895410E+02  0.97576687781E+02  0.47000000000E+01 0.  1.
        -11    1    3    3    0    0 -0.15576229945E+01 -0.37394365541E+02  0.34179797516E+02  0.50685533654E+02  0.00000000000E+00 0. -1.
         11    1    3    3    0    0 -0.98481924191E+02 -0.18617892251E+02  0.14493360819E+02  0.10126881461E+03  0.00000000000E+00 0.  1.
<mgrwt>
<rscale>  0 0.16279863E+03</rscale>
<asrwt>0</asrwt>
<pdfrwt beam="2">  1        1 0.28138791E-01 0.16961557E+03</pdfrwt>
<pdfrwt beam="1">  1       -1 0.23862749E-01 0.16961557E+03</pdfrwt>
<totfact> 0.24258605E+03</totfact>
</mgrwt>
</event>
<event>
 7    1  0.1422977E-005  0.1338555E+03  0.7546771E-02  0.1235285E+00
         -3   -1    0    0    0  501 -0.00000000000E+00  0.00000000000E+00  0.13250333457E+03  0.13250333457E+03  0.00000000000E+00 0.  1.
          3   -1    0    0  501    0  0.00000000000E+00 -0.00000000000E+00 -0.10467101720E+03  0.10467101720E+03  0.00000000000E+00 0. -1.
         23    2    1    2    0    0  0.47403030684E+02 -0.66572719323E+01  0.57608277158E+01  0.10151132838E+03  0.89330823722E+02 0.  0.
          5    1    1    2  502    0  0.36442415633E+02  0.19878994929E+02 -0.12923747072E+02  0.43730279383E+02  0.47000000000E+01 0. -1.
         -5    1    1    2    0  502 -0.83845446317E+02 -0.13221722997E+02  0.34995236726E+02  0.91932744007E+02  0.47000000000E+01 0. -1.
        -11    1    3    3    0    0  0.56856870576E+02 -0.36190788519E+02 -0.74428312480E+01  0.67807614929E+02  0.00000000000E+00 0.  1.
         11    1    3    3    0    0 -0.94538398916E+01  0.29533516587E+02  0.13203658964E+02  0.33703713456E+02  0.00000000000E+00 0. -1.
<mgrwt>
<rscale>  0 0.12486214E+03</rscale>
<asrwt>0</asrwt>
<pdfrwt beam="2">  1        3 0.16103233E-01 0.13385554E+03</pdfrwt>
<pdfrwt beam="1">  1       -3 0.20385128E-01 0.13385554E+03</pdfrwt>
<totfact> 0.16316353E+03</totfact>
</mgrwt>
</event>
<event>
 7    1  0.1422977E-005  0.2175928E+03  0.7546771E-02  0.1139145E+00
         -1   -1    0    0    0  501 -0.00000000000E+00  0.00000000000E+00  0.37866189271E+02  0.37866189271E+02  0.00000000000E+00 0.  1.
          1   -1    0    0  501    0  0.00000000000E+00 -0.00000000000E+00 -0.11946213973E+04  0.11946213973E+04  0.00000000000E+00 0. -1.
         23    2    1    2    0    0 -0.16473727561E+03 -0.67702428658E+02 -0.43869306707E+03  0.48218107075E+03  0.91241378066E+02 0.  0.
          5    1    1    2  502    0 -0.15483061897E+02  0.19239114583E+02 -0.15705853035E+03  0.15905766467E+03  0.47000000000E+01 0. -1.
         -5    1    1    2    0  502  0.18022033751E+03  0.48463314075E+02 -0.56100361058E+03  0.59124885111E+03  0.47000000000E+01 0. -1.
        -11    1    3    3    0    0 -0.12202764285E+03 -0.55834490998E+02 -0.20988280513E+03  0.24911649462E+03  0.00000000000E+00 0.  1.
         11    1    3    3    0    0 -0.42709632761E+02 -0.11867937660E+02 -0.22881026194E+03  0.23306457613E+03  0.00000000000E+00 0. -1.
<mgrwt>
<rscale>  0 0.21308585E+03</rscale>
<asrwt>0</asrwt>
<pdfrwt beam="2">  1        1 0.18378792E+00 0.21759281E+03</pdfrwt>
<pdfrwt beam="1">  1       -1 0.58255671E-02 0.21759281E+03</pdfrwt>
<totfact> 0.16143753E+03</totfact>
</mgrwt>
</event>
<event>
 7    1  0.1422977E-005  0.1289237E+03  0.7546771E-02  0.1242259E+00
          4   -1    0    0  501    0  0.00000000000E+00  0.00000000000E+00  0.16783344779E+03  0.16783344779E+03  0.00000000000E+00 0.  1.
         -4   -1    0    0    0  501 -0.00000000000E+00 -0.00000000000E+00 -0.78493802423E+02  0.78493802423E+02  0.00000000000E+00 0. -1.
         23    2    1    2    0    0 -0.22592791475E+02 -0.22034258618E+02  0.21891118468E+02  0.10082600654E+03  0.93224029886E+02 0.  0.
          5    1    1    2  502    0 -0.27277198463E+02 -0.35629758990E+02  0.49621118806E+02  0.67066166681E+02  0.47000000000E+01 0. -1.
         -5    1    1    2    0  502  0.49869989938E+02  0.57664017608E+02  0.17827408094E+02  0.78435076990E+02  0.47000000000E+01 0. -1.
        -11    1    3    3    0    0 -0.52321662434E+02 -0.14521730617E+02 -0.11486899170E+02  0.55501224063E+02  0.00000000000E+00 0. -1.
         11    1    3    3    0    0  0.29728870959E+02 -0.75125280013E+01  0.33378017637E+02  0.45324782480E+02  0.00000000000E+00 0.  1.
<mgrwt>
<rscale>  0 0.12050948E+03</rscale>
<asrwt>0</asrwt>
<pdfrwt beam="1">  1        4 0.25820530E-01 0.12892365E+03</pdfrwt>
<pdfrwt beam="2">  1       -4 0.12075970E-01 0.12892365E+03</pdfrwt>
<totfact> 0.12638715E+03</totfact>
</mgrwt>
</event>
<event>
 7    1  0.1422977E-005  0.1475102E+03  0.7546771E-02  0.1213166E+00
          3   -1    0    0  501    0  0.00000000000E+00  0.00000000000E+00  0.46240875238E+03  0.46240875238E+03  0.00000000000E+00 0. -1.
         -3   -1    0    0    0  501 -0.00000000000E+00 -0.00000000000E+00 -0.41556571420E+02  0.41556571420E+02  0.00000000000E+00 0.  1.
         23    2    1    2    0    0 -0.10457534724E+02  0.77620756619E+02  0.12482227938E+03  0.17321926313E+03  0.91049271280E+02 0.  0.
          5    1    1    2  502    0  0.37026753162E+02 -0.57636142499E+02  0.28820172010E+03  0.29626884217E+03  0.47000000000E+01 0. -1.
         -5    1    1    2    0  502 -0.26569218439E+02 -0.19984614121E+02  0.78281814807E+01  0.34477218497E+02  0.47000000000E+01 0. -1.
        -11    1    3    3    0    0 -0.28616274261E+02  0.65146786611E+02  0.32357958077E+02  0.78166696292E+02  0.00000000000E+00 0.  1.
         11    1    3    3    0    0  0.18158739537E+02  0.12473970008E+02  0.92464321302E+02  0.95052566842E+02  0.00000000000E+00 0. -1.
<mgrwt>
<rscale>  0 0.14012105E+03</rscale>
<asrwt>0</asrwt>
<pdfrwt beam="1">  1        3 0.71139805E-01 0.14751018E+03</pdfrwt>
<pdfrwt beam="2">  1       -3 0.63933190E-02 0.14751018E+03</pdfrwt>
<totfact> 0.69259717E+02</totfact>
</mgrwt>
</event>
<event>
 7    1  0.1422977E-005  0.1254975E+03  0.7546771E-02  0.1248386E+00
          2   -1    0    0  501    0  0.00000000000E+00  0.00000000000E+00  0.12760036486E+04  0.12760036486E+04  0.00000000000E+00 0. -1.
         -2   -1    0    0    0  501 -0.00000000000E+00 -0.00000000000E+00 -0.10188983243E+02  0.10188983243E+02  0.00000000000E+00 0.  1.
         23    2    1    2    0    0 -0.11147183269E+02 -0.15808971570E+01  0.37994343470E+03  0.39147622495E+03  0.93647542422E+02 0.  0.
          5    1    1    2  502    0  0.17480892046E+02 -0.45900124705E+02  0.72802177354E+03  0.72969184988E+03  0.47000000000E+01 0. -1.
         -5    1    1    2    0  502 -0.63337087766E+01  0.47481021862E+02  0.15784945713E+03  0.16502455702E+03  0.47000000000E+01 0. -1.
        -11    1    3    3    0    0  0.34389465602E+02  0.22525306403E+02  0.20601558890E+03  0.21007724209E+03  0.00000000000E+00 0. -1.
         11    1    3    3    0    0 -0.45536648871E+02 -0.24106203560E+02  0.17392784580E+03  0.18139898287E+03  0.00000000000E+00 0.  1.
<mgrwt>
<rscale>  0 0.11685016E+03</rscale>
<asrwt>0</asrwt>
<pdfrwt beam="1">  1        2 0.19630813E+00 0.12549746E+03</pdfrwt>
<pdfrwt beam="2">  1       -2 0.15675369E-02 0.12549746E+03</pdfrwt>
<totfact> 0.19128419E+04</totfact>
</mgrwt>
</event>
<event>
 6    1  0.1422977E-005  0.2481393E+03  0.7546771E-02  0.1117426E+00
          1   -1    0    0  501    0  0.00000000000E+00  0.00000000000E+00  0.10881829026E+03  0.10881829026E+03  0.00000000000E+00 0. -1.
         -1   -1    0    0    0  501 -0.00000000000E+00 -0.00000000000E+00 -0.52986503148E+03  0.52986503148E+03  0.00000000000E+00 0.  1.
          5    1    1    2  502    0 -0.12833912163E+03  0.92092615543E+02 -0.14060895989E+03  0.21153002052E+03  0.47000000000E+01 0. -1.
         -5    1    1    2    0  502  0.18545514639E+02  0.67331432793E+02 -0.35486415764E+02  0.78478236849E+02  0.47000000000E+01 0. -1.
        -11    1    1    2    0    0 -0.31297471341E+02 -0.37024181833E+02 -0.10377298323E+03  0.11453887463E+03  0.00000000000E+00 0.  1.
         11    1    1    2    0    0  0.14109107833E+03 -0.12239986650E+03 -0.14117838233E+03  0.23413618974E+03  0.00000000000E+00 0. -1.
<mgrwt>
<rscale>  0 0.24358673E+03</rscale>
<asrwt>0</asrwt>
<pdfrwt beam="1">  1        1 0.16741275E-01 0.24813933E+03</pdfrwt>
<pdfrwt beam="2">  1       -1 0.81517698E-01 0.24813933E+03</pdfrwt>
<totfact> 0.50664399E+02</totfact>
</mgrwt>
</event>
<event>
 7    1  0.1422977E-005  0.1288319E+03  0.7546771E-02  0.1242728E+00
         -1   -1    0    0    0  501 -0.00000000000E+00  0.00000000000E+00  0.20196419342E+02  0.20196419342E+02  0.00000000000E+00 0.  1.
          1   -1    0    0  501    0  0.00000000000E+00 -0.00000000000E+00 -0.64990105773E+03  0.64990105773E+03  0.00000000000E+00 0. -1.
         23    2    1    2    0    0  0.28012393986E+02  0.13727359766E+02 -0.22266543193E+03  0.24315653919E+03  0.92585492139E+02 0.  0.
          5    1    1    2  502    0  0.35982625940E+02 -0.43613979490E+02 -0.21172771684E+03  0.21919772959E+03  0.47000000000E+01 0. -1.
         -5    1    1    2    0  502 -0.63995019926E+02  0.29886619724E+02 -0.19531148962E+03  0.20774320829E+03  0.47000000000E+01 0. -1.
        -11    1    3    3    0    0  0.33433208686E+02 -0.15182224072E+02 -0.20620857415E+03  0.20945227481E+03  0.00000000000E+00 0. -1.
         11    1    3    3    0    0 -0.54208146998E+01  0.28909583838E+02 -0.16456857777E+02  0.33704264383E+02  0.00000000000E+00 0.  1.
<mgrwt>
<rscale>  0 0.12022385E+03</rscale>
<asrwt>0</asrwt>
<pdfrwt beam="2">  1        1 0.99984784E-01 0.12883186E+03</pdfrwt>
<pdfrwt beam="1">  1       -1 0.31071413E-02 0.12883186E+03</pdfrwt>
<totfact> 0.10706551E+04</totfact>
</mgrwt>
</event>
<event>
 7    1  0.1422977E-005  0.2469043E+03  0.7546771E-02  0.1117821E+00
         -2   -1    0    0    0  501 -0.00000000000E+00  0.00000000000E+00  0.10647687741E+03  0.10647687741E+03  0.00000000000E+00 0. -1.
          2   -1    0    0  501    0  0.00000000000E+00 -0.00000000000E+00 -0.97990696936E+03  0.97990696936E+03  0.00000000000E+00 0.  1.
         23    2    1    2    0    0 -0.12535604930E+03 -0.17210737505E+03 -0.64202646973E+02  0.24032782065E+03  0.91106497342E+02 0.  0.
          5    1    1    2  502    0  0.27308866777E+02 -0.17569808466E+02 -0.12774421470E+03  0.13189066215E+03  0.47000000000E+01 0. -1.
         -5    1    1    2    0  502  0.98047182526E+02  0.18967718351E+03 -0.68148323027E+03  0.71416536397E+03  0.47000000000E+01 0. -1.
        -11    1    3    3    0    0 -0.91433050615E+02 -0.13230091474E+03 -0.87487696509E+02  0.18307821232E+03  0.00000000000E+00 0. -1.
         11    1    3    3    0    0 -0.33922998688E+02 -0.39806460309E+02  0.23285049536E+02  0.57249608332E+02  0.00000000000E+00 0.  1.
<mgrwt>
<rscale>  0 0.24298420E+03</rscale>
<asrwt>0</asrwt>
<pdfrwt beam="2">  1        2 0.15075492E+00 0.24690432E+03</pdfrwt>
<pdfrwt beam="1">  1       -2 0.16381058E-01 0.24690432E+03</pdfrwt>
<totfact> 0.80138488E+02</totfact>
</mgrwt>
</event>
<event>
 7    1  0.1422977E-005  0.1436777E+03  0.7546771E-02  0.1219691E+00
         -2   -1    0    0    0  501 -0.00000000000E+00  0.00000000000E+00  0.11291333311E+02  0.11291333311E+02  0.00000000000E+00 0.  1.
          2   -1    0    0  501    0  0.00000000000E+00 -0.00000000000E+00 -0.23198863253E+04  0.23198863253E+04  0.00000000000E+00 0. -1.
         23    2    1    2    0    0  0.56622353457E+02  0.58142731641E+02 -0.36223637745E+03  0.37952320046E+03  0.78968337840E+02 0.  0.
          5    1    1    2  502    0 -0.59492779603E+01 -0.69993380769E+02 -0.15822661153E+04  0.15838316251E+04  0.47000000000E+01 0. -1.
         -5    1    1    2    0  502 -0.50673075496E+02  0.11850649127E+02 -0.36409249932E+03  0.36782283307E+03  0.47000000000E+01 0.  1.
        -11    1    3    3    0    0 -0.13537036297E+02 -0.86342508158E+01 -0.62279027131E+02  0.64315463609E+02  0.00000000000E+00 0. -1.
         11    1    3    3    0    0  0.70159389754E+02  0.66776982457E+02 -0.29995735032E+03  0.31520773685E+03  0.00000000000E+00 0.  1.
<mgrwt>
<rscale>  0 0.13537523E+03</rscale>
<asrwt>0</asrwt>
<pdfrwt beam="2">  1        2 0.35690547E+00 0.14367765E+03</pdfrwt>
<pdfrwt beam="1">  1       -2 0.17371288E-02 0.14367765E+03</pdfrwt>
<totfact> 0.47759107E+03</totfact>
</mgrwt>
</event>
<event>
 7    1  0.1422977E-005  0.1346674E+03  0.7546771E-02  0.1224989E+00
          4   -1    0    0  501    0  0.00000000000E+00  0.00000000000E+00  0.84295878016E+02  0.84295878016E+02  0.00000000000E+00 0. -1.
         -4   -1    0    0    0  501 -0.00000000000E+00 -0.00000000000E+00 -0.19934637386E+03  0.19934637386E+03  0.00000000000E+00 0.  1.
         23    2    1    2    0    0  0.44285830513E+02 -0.23435234489E+02 -0.70172182341E+02  0.14169377743E+03  0.11243907856E+03 0.  0.
          5    1    1    2  502    0  0.35630449770E+02  0.18867510161E+02  0.13485688929E+02  0.42772253815E+02  0.47000000000E+01 0.  1.
         -5    1    1    2    0  502 -0.79916280284E+02  0.45677243275E+01 -0.58364002435E+02  0.99176220639E+02  0.47000000000E+01 0.  1.
        -11    1    3    3    0    0  0.45540581054E+02  0.39276042893E+02 -0.38733245288E+02  0.71531925450E+02  0.00000000000E+00 0. -1.
         11    1    3    3    0    0 -0.12547505405E+01 -0.62711277381E+02 -0.31438937054E+02  0.70161851977E+02  0.00000000000E+00 0.  1.
<mgrwt>
<rscale>  0 0.13167676E+03</rscale>
<asrwt>0</asrwt>
<pdfrwt beam="1">  1        4 0.12968597E-01 0.13466739E+03</pdfrwt>
<pdfrwt beam="2">  1       -4 0.30668673E-01 0.13466739E+03</pdfrwt>
<totfact> 0.81778105E+02</totfact>
</mgrwt>
</event>
<event>
 7    1  0.1422977E-005  0.1286158E+03  0.7546771E-02  0.1247344E+00
          4   -1    0    0  501    0  0.00000000000E+00  0.00000000000E+00  0.22761404790E+02  0.22761404790E+02  0.00000000000E+00 0. -1.
         -4   -1    0    0    0  501 -0.00000000000E+00 -0.00000000000E+00 -0.53772145350E+03  0.53772145350E+03  0.00000000000E+00 0.  1.
         23    2    1    2    0    0 -0.70506781832E+01  0.29455757362E+02 -0.25911867506E+03  0.27413194603E+03  0.84193125429E+02 0.  0.
          5    1    1    2  502    0 -0.44535342939E+02 -0.76588823228E+01 -0.20689717135E+03  0.21182678008E+03  0.47000000000E+01 0.  1.
         -5    1    1    2    0  502  0.51586021122E+02 -0.21796875039E+02 -0.48944202310E+02  0.74524132176E+02  0.47000000000E+01 0.  1.
        -11    1    3    3    0    0  0.34973282601E+02  0.70376842166E+01 -0.16301574789E+03  0.16687358555E+03  0.00000000000E+00 0.  1.
         11    1    3    3    0    0 -0.42023960784E+02  0.22418073145E+02 -0.96102927164E+02  0.10725836048E+03  0.00000000000E+00 0. -1.
<mgrwt>
<rscale>  0 0.11746181E+03</rscale>
<asrwt>0</asrwt>
<pdfrwt beam="1">  1        4 0.35017551E-02 0.12861585E+03</pdfrwt>
<pdfrwt beam="2">  1       -4 0.82726366E-01 0.12861585E+03</pdfrwt>
<totfact> 0.91189934E+02</totfact>
</mgrwt>
</event>
<event>
 7    1  0.1422977E-005  0.1461306E+03  0.7546771E-02  0.1215537E+00
         -1   -1    0    0    0  501 -0.00000000000E+00  0.00000000000E+00  0.14588838329E+03  0.14588838329E+03  0.00000000000E+00 0.  1.
          1   -1    0    0  501    0  0.00000000000E+00 -0.00000000000E+00 -0.12015589538E+03  0.12015589538E+03  0.00000000000E+00 0. -1.
         23    2    1    2    0    0 -0.65176921803E+00  0.75683366416E+02  0.23988974864E+02  0.11990325316E+03  0.89849443231E+02 0.  0.
          5    1    1    2  502    0 -0.31098014014E+02 -0.29483121545E+02  0.54179493057E+02  0.69237622718E+02  0.47000000000E+01 0. -1.
         -5    1    1    2    0  502  0.31749783232E+02 -0.46200244871E+02 -0.52435980014E+02  0.76903402795E+02  0.47000000000E+01 0. -1.
        -11    1    3    3    0    0  0.41590482671E+02  0.19752931469E+02  0.18425171015E+02  0.49592675642E+02  0.00000000000E+00 0.  1.
         11    1    3    3    0    0 -0.42242251889E+02  0.55930434947E+02  0.55638038494E+01  0.70310577521E+02  0.00000000000E+00 0. -1.
<mgrwt>
<rscale>  0 0.13837130E+03</rscale>
<asrwt>0</asrwt>
<pdfrwt beam="2">  1        1 0.18485522E-01 0.14613062E+03</pdfrwt>
<pdfrwt beam="1">  1       -1 0.22444367E-01 0.14613062E+03</pdfrwt>
<totfact> 0.45339349E+03</totfact>
</mgrwt>
</event>
<event>
 7    1  0.1422977E-005  0.1529962E+03  0.7546771E-02  0.1206717E+00
          1   -1    0    0  501    0  0.00000000000E+00  0.00000000000E+00  0.37944781576E+02  0.37944781576E+02  0.00000000000E+00 0. -1.
         -1   -1    0    0    0  501 -0.00000000000E+00 -0.00000000000E+00 -0.50576389738E+03  0.50576389738E+03  0.00000000000E+00 0.  1.
         23    2    1    2    0    0  0.86633942387E+02 -0.16670912431E+02 -0.22584645783E+03  0.25742453070E+03  0.86472002392E+02 0.  0.
          5    1    1    2  502    0  0.38548559062E+00 -0.30617260428E+01 -0.17380994228E+03  0.17390085912E+03  0.47000000000E+01 0. -1.
         -5    1    1    2    0  502 -0.87019427977E+02  0.19732638474E+02 -0.68162715688E+02  0.11238328913E+03  0.47000000000E+01 0. -1.
        -11    1    3    3    0    0  0.76827472264E+02  0.81361494656E+01 -0.88349470877E+02  0.11736390598E+03  0.00000000000E+00 0. -1.
         11    1    3    3    0    0  0.98064701226E+01 -0.24807061897E+02 -0.13749698695E+03  0.14006062472E+03  0.00000000000E+00 0.  1.
<mgrwt>
<rscale>  0 0.14502991E+03</rscale>
<asrwt>0</asrwt>
<pdfrwt beam="1">  1        1 0.58376587E-02 0.15299623E+03</pdfrwt>
<pdfrwt beam="2">  1       -1 0.77809831E-01 0.15299623E+03</pdfrwt>
<totfact> 0.22607388E+03</totfact>
</mgrwt>
</event>
<event>
 7    1  0.1422977E-005  0.1841435E+03  0.7546771E-02  0.1168848E+00
          2   -1    0    0  501    0  0.00000000000E+00  0.00000000000E+00  0.76496630225E+02  0.76496630225E+02  0.00000000000E+00 0.  1.
         -2   -1    0    0    0  501 -0.00000000000E+00 -0.00000000000E+00 -0.54118044799E+03  0.54118044799E+03  0.00000000000E+00 0. -1.
         23    2    1    2    0    0 -0.66965749779E+02 -0.11787525215E+03 -0.38209998076E+03  0.41586304545E+03  0.92534807279E+02 0.  0.
          5    1    1    2  502    0  0.51824082712E+02  0.64119466606E+02 -0.11149978285E+03  0.13874917341E+03  0.47000000000E+01 0.  1.
         -5    1    1    2    0  502  0.15141667067E+02  0.53755785544E+02  0.28915945848E+02  0.63064859354E+02  0.47000000000E+01 0.  1.
        -11    1    3    3    0    0 -0.78464306108E+02 -0.10892833715E+03 -0.37738240855E+03  0.40054901354E+03  0.00000000000E+00 0. -1.
         11    1    3    3    0    0  0.11498556329E+02 -0.89469149998E+01 -0.47175722152E+01  0.15314031908E+02  0.00000000000E+00 0.  1.
<mgrwt>
<rscale>  0 0.17892470E+03</rscale>
<asrwt>0</asrwt>
<pdfrwt beam="1">  1        2 0.11768712E-01 0.18414346E+03</pdfrwt>
<pdfrwt beam="2">  1       -2 0.83258532E-01 0.18414346E+03</pdfrwt>
<totfact> 0.67630406E+02</totfact>
</mgrwt>
</event>
<event>
 7    1  0.1422977E-005  0.1262405E+03  0.7546771E-02  0.1248027E+00
         -1   -1    0    0    0  501 -0.00000000000E+00  0.00000000000E+00  0.17335610619E+02  0.17335610619E+02  0.00000000000E+00 0. -1.
          1   -1    0    0  501    0  0.00000000000E+00 -0.00000000000E+00 -0.87038250383E+03  0.87038250383E+03  0.00000000000E+00 0.  1.
         23    2    1    2    0    0 -0.25523750151E+01 -0.17469035467E+02 -0.17817699343E+03  0.20114251368E+03  0.91649266255E+02 0.  0.
          5    1    1    2  502    0 -0.35670752185E+02  0.56251223848E+02 -0.27514719019E+03  0.28313365927E+03  0.47000000000E+01 0.  1.
         -5    1    1    2    0  502  0.38223127200E+02 -0.38782188382E+02 -0.39972270959E+03  0.40344194149E+03  0.47000000000E+01 0.  1.
        -11    1    3    3    0    0 -0.18362932185E+02 -0.49948058616E+02 -0.76090480528E+02  0.92853470936E+02  0.00000000000E+00 0. -1.
         11    1    3    3    0    0  0.15810557170E+02  0.32479023150E+02 -0.10208651290E+03  0.10828904275E+03  0.00000000000E+00 0.  1.
<mgrwt>
<rscale>  0 0.11706021E+03</rscale>
<asrwt>0</asrwt>
<pdfrwt beam="2">  1        1 0.13390502E+00 0.12624054E+03</pdfrwt>
<pdfrwt beam="1">  1       -1 0.26670166E-02 0.12624054E+03</pdfrwt>
<totfact> 0.86913026E+03</totfact>
</mgrwt>
</event>
<event>
 7    1  0.1422977E-005  0.1909557E+03  0.7546771E-02  0.1162210E+00
         -1   -1    0    0    0  501 -0.00000000000E+00  0.00000000000E+00  0.22038006865E+03  0.22038006865E+03  0.00000000000E+00 0.  1.
          1   -1    0    0  501    0  0.00000000000E+00 -0.00000000000E+00 -0.15086258244E+03  0.15086258244E+03  0.00000000000E+00 0. -1.
         23    2    1    2    0    0 -0.27815702364E+02 -0.14165988236E+03  0.53198907213E+02  0.17959090483E+03  0.92636568384E+02 0.  0.
          5    1    1    2  502    0 -0.23016545855E+02  0.11874986088E+03 -0.23062467661E+02  0.12322847990E+03  0.47000000000E+01 0. -1.
         -5    1    1    2    0  502  0.50832248219E+02  0.22910021474E+02  0.39381046667E+02  0.68423266361E+02  0.47000000000E+01 0. -1.
        -11    1    3    3    0    0 -0.49376846775E+02 -0.94180537149E+02  0.17746177477E+01  0.10635410591E+03  0.00000000000E+00 0. -1.
         11    1    3    3    0    0  0.21561144411E+02 -0.47479345210E+02  0.51424289465E+02  0.73236798925E+02  0.00000000000E+00 0.  1.
<mgrwt>
<rscale>  0 0.18590240E+03</rscale>
<asrwt>0</asrwt>
<pdfrwt beam="2">  1        1 0.23209628E-01 0.19095574E+03</pdfrwt>
<pdfrwt beam="1">  1       -1 0.33904626E-01 0.19095574E+03</pdfrwt>
<totfact> 0.17214873E+03</totfact>
</mgrwt>
</event>
<event>
 7    1  0.1422977E-005  0.1415386E+03  0.7546771E-02  0.1223688E+00
          1   -1    0    0  501    0  0.00000000000E+00  0.00000000000E+00  0.15108742160E+03  0.15108742160E+03  0.00000000000E+00 0. -1.
         -1   -1    0    0    0  501 -0.00000000000E+00 -0.00000000000E+00 -0.10552982742E+03  0.10552982742E+03  0.00000000000E+00 0.  1.
         23    2    1    2    0    0  0.29523965644E+02  0.59475612196E+02  0.36088936942E+02  0.11476232924E+03  0.86365316247E+02 0.  0.
          5    1    1    2  502    0 -0.59388423325E+02 -0.46916573662E+02  0.49185625310E+02  0.90385095267E+02  0.47000000000E+01 0. -1.
         -5    1    1    2    0  502  0.29864457681E+02 -0.12559038534E+02 -0.39716968078E+02  0.51469824507E+02  0.47000000000E+01 0. -1.
        -11    1    3    3    0    0  0.59108335931E+02  0.33174172359E+02  0.13261088476E+02  0.69066472009E+02  0.00000000000E+00 0.  1.
         11    1    3    3    0    0 -0.29584370287E+02  0.26301439837E+02  0.22827848466E+02  0.45695857234E+02  0.00000000000E+00 0. -1.
<mgrwt>
<rscale>  0 0.13257242E+03</rscale>
<asrwt>0</asrwt>
<pdfrwt beam="1">  1        1 0.23244219E-01 0.14153856E+03</pdfrwt>
<pdfrwt beam="2">  1       -1 0.16235358E-01 0.14153856E+03</pdfrwt>
<totfact> 0.56816104E+03</totfact>
</mgrwt>
</event>
<event>
 7    1  0.1422977E-005  0.1663196E+03  0.7546771E-02  0.1188842E+00
          2   -1    0    0  501    0  0.00000000000E+00  0.00000000000E+00  0.14860213920E+04  0.14860213920E+04  0.00000000000E+00 0. -1.
         -2   -1    0    0    0  501 -0.00000000000E+00 -0.00000000000E+00 -0.16988141872E+02  0.16988141872E+02  0.00000000000E+00 0.  1.
         23    2    1    2    0    0  0.93703712440E+02 -0.57069759411E+02  0.49846255715E+03  0.51829146121E+03  0.90131984962E+02 0.  0.
          5    1    1    2  502    0 -0.54772092077E+02 -0.31433970833E+02  0.26087901007E+03  0.26845488353E+03  0.47000000000E+01 0. -1.
         -5    1    1    2    0  502 -0.38931620363E+02  0.88503730244E+02  0.70969168286E+03  0.71626318910E+03  0.47000000000E+01 0. -1.
        -11    1    3    3    0    0  0.29453604042E+02 -0.65333459315E+02  0.33247410628E+03  0.34011028659E+03  0.00000000000E+00 0. -1.
         11    1    3    3    0    0  0.64250108398E+02  0.82636999040E+01  0.16598845087E+03  0.17818117462E+03  0.00000000000E+00 0.  1.
<mgrwt>
<rscale>  0 0.15987182E+03</rscale>
<asrwt>0</asrwt>
<pdfrwt beam="1">  1        2 0.22861857E+00 0.16631961E+03</pdfrwt>
<pdfrwt beam="2">  1       -2 0.26135615E-02 0.16631961E+03</pdfrwt>
<totfact> 0.71249181E+03</totfact>
</mgrwt>
</event>
<event>
 7    1  0.1422977E-005  0.1466012E+03  0.7546771E-02  0.1213673E+00
         -1   -1    0    0    0  501 -0.00000000000E+00  0.00000000000E+00  0.19555983390E+03  0.19555983390E+03  0.00000000000E+00 0.  1.
          1   -1    0    0  501    0  0.00000000000E+00 -0.00000000000E+00 -0.10144885568E+03  0.10144885568E+03  0.00000000000E+00 0. -1.
         23    2    1    2    0    0  0.74966048545E+02 -0.15746120679E+02  0.89141335873E+02  0.15032327800E+03  0.93717988650E+02 0.  0.
          5    1    1    2  502    0 -0.19005281553E+02 -0.48008046708E+02  0.27637627730E+02  0.58752887096E+02  0.47000000000E+01 0. -1.
         -5    1    1    2    0  502 -0.55960766993E+02  0.63754167387E+02 -0.22667985378E+02  0.87932524487E+02  0.47000000000E+01 0. -1.
        -11    1    3    3    0    0  0.21409145438E+02 -0.42227091706E+01 -0.19105448439E+02  0.29003464297E+02  0.00000000000E+00 0. -1.
         11    1    3    3    0    0  0.53556903107E+02 -0.11523411509E+02  0.10824678431E+03  0.12131981370E+03  0.00000000000E+00 0.  1.
<mgrwt>
<rscale>  0 0.13974498E+03</rscale>
<asrwt>0</asrwt>
<pdfrwt beam="2">  1        1 0.15607516E-01 0.14660120E+03</pdfrwt>
<pdfrwt beam="1">  1       -1 0.30086128E-01 0.14660120E+03</pdfrwt>
<totfact> 0.34728642E+03</totfact>
</mgrwt>
</event>
<event>
 7    1  0.1422977E-005  0.2173266E+03  0.7546771E-02  0.1154049E+00
          1   -1    0    0  501    0  0.00000000000E+00  0.00000000000E+00  0.82000887699E+03  0.82000887699E+03  0.00000000000E+00 0. -1.
         -1   -1    0    0    0  501 -0.00000000000E+00 -0.00000000000E+00 -0.57275335234E+02  0.57275335234E+02  0.00000000000E+00 0.  1.
         23    2    1    2    0    0  0.19139606383E+00  0.10744850332E+03  0.82511610520E+02  0.16318846105E+03  0.90978516436E+02 0.  0.
          5    1    1    2  502    0 -0.43157593485E+01 -0.12881478279E+03  0.23294835423E+03  0.26626847313E+03  0.47000000000E+01 0. -1.
         -5    1    1    2    0  502  0.41243632847E+01  0.21366279472E+02  0.44727357701E+03  0.44782727804E+03  0.47000000000E+01 0.  1.
        -11    1    3    3    0    0  0.12514707963E+02  0.11633906730E+03  0.88649938604E+02  0.14679989138E+03  0.00000000000E+00 0.  1.
         11    1    3    3    0    0 -0.12323311899E+02 -0.88905639849E+01 -0.61383280841E+01  0.16388569669E+02  0.00000000000E+00 0. -1.
<mgrwt>
<rscale>  0 0.19497503E+03</rscale>
<asrwt>0</asrwt>
<pdfrwt beam="1">  1        1 0.12615520E+00 0.21732663E+03</pdfrwt>
<pdfrwt beam="2">  1       -1 0.88115907E-02 0.21732663E+03</pdfrwt>
<totfact> 0.16415815E+03</totfact>
</mgrwt>
</event>
<event>
 7    1  0.1422977E-005  0.1524074E+03  0.7546771E-02  0.1206402E+00
         -1   -1    0    0    0  501 -0.00000000000E+00  0.00000000000E+00  0.29758726329E+02  0.29758726329E+02  0.00000000000E+00 0.  1.
          1   -1    0    0  501    0  0.00000000000E+00 -0.00000000000E+00 -0.65072933496E+03  0.65072933496E+03  0.00000000000E+00 0. -1.
         23    2    1    2    0    0 -0.79200871661E+02  0.36466503978E+02 -0.28935606300E+03  0.31552750296E+03  0.90708819553E+02 0.  0.
          5    1    1    2  502    0  0.37921508406E+02  0.36696766085E+02 -0.21329650465E+03  0.21977757469E+03  0.47000000000E+01 0. -1.
         -5    1    1    2    0  502  0.41279363255E+02 -0.73163270062E+02 -0.11831804098E+03  0.14518298364E+03  0.47000000000E+01 0. -1.
        -11    1    3    3    0    0 -0.34327926704E+02  0.50731547100E+01 -0.18763645079E+02  0.39448926819E+02  0.00000000000E+00 0.  1.
         11    1    3    3    0    0 -0.44872944957E+02  0.31393349268E+02 -0.27059241793E+03  0.27607857614E+03  0.00000000000E+00 0. -1.
<mgrwt>
<rscale>  0 0.14527533E+03</rscale>
<asrwt>0</asrwt>
<pdfrwt beam="2">  1        1 0.10011221E+00 0.15240736E+03</pdfrwt>
<pdfrwt beam="1">  1       -1 0.45782656E-02 0.15240736E+03</pdfrwt>
<totfact> 0.61135001E+03</totfact>
</mgrwt>
</event>
<event>
 7    1  0.1422977E-005  0.1392127E+03  0.7546771E-02  0.1226087E+00
         -1   -1    0    0    0  501 -0.00000000000E+00  0.00000000000E+00  0.18856966055E+03  0.18856966055E+03  0.00000000000E+00 0.  1.
          1   -1    0    0  501    0  0.00000000000E+00 -0.00000000000E+00 -0.18636481125E+03  0.18636481125E+03  0.00000000000E+00 0. -1.
         23    2    1    2    0    0 -0.60422546792E+02 -0.10157693010E+02  0.14112486793E+03  0.17826484294E+03  0.90044783265E+02 0.  0.
          5    1    1    2  502    0 -0.27176776240E+02  0.32481106347E+02 -0.73588653117E+02  0.85035165102E+02  0.47000000000E+01 0. -1.
         -5    1    1    2    0  502  0.87599323032E+02 -0.22323413337E+02 -0.65331365509E+02  0.11163446376E+03  0.47000000000E+01 0. -1.
        -11    1    3    3    0    0 -0.43838148906E+02 -0.48556657368E+02  0.70441857259E+02  0.96133176003E+02  0.00000000000E+00 0.  1.
         11    1    3    3    0    0 -0.16584397885E+02  0.38398964358E+02  0.70683010670E+02  0.82131666940E+02  0.00000000000E+00 0. -1.
<mgrwt>
<rscale>  0 0.13092706E+03</rscale>
<asrwt>0</asrwt>
<pdfrwt beam="2">  1        1 0.28671510E-01 0.13921268E+03</pdfrwt>
<pdfrwt beam="1">  1       -1 0.29010717E-01 0.13921268E+03</pdfrwt>
<totfact> 0.17021296E+03</totfact>
</mgrwt>
</event>
<event>
 7    1  0.1422977E-005  0.1568825E+03  0.7546771E-02  0.1200484E+00
          1   -1    0    0  501    0  0.00000000000E+00  0.00000000000E+00  0.35285206369E+03  0.35285206369E+03  0.00000000000E+00 0. -1.
         -1   -1    0    0    0  501 -0.00000000000E+00 -0.00000000000E+00 -0.66701209685E+02  0.66701209685E+02  0.00000000000E+00 0.  1.
         23    2    1    2    0    0  0.75156126428E+02 -0.57767163421E+02  0.59617872501E+02  0.14400052023E+03  0.90533809135E+02 0.  0.
          5    1    1    2  502    0 -0.10596337050E+03  0.43771879538E+02  0.13127511686E+03  0.17435440812E+03  0.47000000000E+01 0. -1.
         -5    1    1    2    0  502  0.30807244068E+02  0.13995283883E+02  0.95257864640E+02  0.10119834502E+03  0.47000000000E+01 0. -1.
        -11    1    3    3    0    0  0.58255999278E+02 -0.70582182704E+02  0.12550141400E+02  0.92374845148E+02  0.00000000000E+00 0.  1.
         11    1    3    3    0    0  0.16900127150E+02  0.12815019283E+02  0.47067731102E+02  0.51625675085E+02  0.00000000000E+00 0. -1.
<mgrwt>
<rscale>  0 0.14999083E+03</rscale>
<asrwt>0</asrwt>
<pdfrwt beam="1">  1        1 0.54284932E-01 0.15688253E+03</pdfrwt>
<pdfrwt beam="2">  1       -1 0.10261725E-01 0.15688253E+03</pdfrwt>
<totfact> 0.40511500E+03</totfact>
</mgrwt>
</event>
<event>
 7    1  0.1422977E-005  0.1825549E+03  0.7546771E-02  0.1170753E+00
         -2   -1    0    0    0  501 -0.00000000000E+00  0.00000000000E+00  0.14662523076E+02  0.14662523076E+02  0.00000000000E+00 0.  1.
          2   -1    0    0  501    0  0.00000000000E+00 -0.00000000000E+00 -0.22131815355E+04  0.22131815355E+04  0.00000000000E+00 0. -1.
         23    2    1    2    0    0 -0.11592604968E+03 -0.65299369064E+02 -0.70512202110E+03  0.72333055695E+03  0.91143696346E+02 0.  0.
          5    1    1    2  502    0  0.66364415273E+02  0.82860233593E+02 -0.58425203387E+03  0.59383716876E+03  0.47000000000E+01 0. -1.
         -5    1    1    2    0  502  0.49561634411E+02 -0.17560864529E+02 -0.90914495746E+03  0.91067633287E+03  0.47000000000E+01 0. -1.
        -11    1    3    3    0    0 -0.59674782471E+02  0.16221710311E+02 -0.29591789169E+03  0.30231047314E+03  0.00000000000E+00 0. -1.
         11    1    3    3    0    0 -0.56251267213E+02 -0.81521079374E+02 -0.40920412941E+03  0.42102008381E+03  0.00000000000E+00 0.  1.
<mgrwt>
<rscale>  0 0.17698554E+03</rscale>
<asrwt>0</asrwt>
<pdfrwt beam="2">  1        2 0.34048962E+00 0.18255493E+03</pdfrwt>
<pdfrwt beam="1">  1       -2 0.22557718E-02 0.18255493E+03</pdfrwt>
<totfact> 0.37129832E+03</totfact>
</mgrwt>
</event>
<event>
 7    1  0.1422977E-005  0.2320588E+03  0.7546771E-02  0.1128166E+00
         -2   -1    0    0    0  501 -0.00000000000E+00  0.00000000000E+00  0.85036853607E+02  0.85036853607E+02  0.00000000000E+00 0.  1.
          2   -1    0    0  501    0  0.00000000000E+00 -0.00000000000E+00 -0.93536045260E+03  0.93536045260E+03  0.00000000000E+00 0. -1.
         23    2    1    2    0    0  0.40403884779E+02  0.19129046614E+03 -0.10514941998E+03  0.23992575507E+03  0.91013466492E+02 0.  0.
          5    1    1    2  502    0 -0.54377981605E+02 -0.14612866873E+03 -0.35951824840E+03  0.39190051498E+03  0.47000000000E+01 0.  1.
         -5    1    1    2    0  502  0.13974096825E+02 -0.45161797407E+02 -0.38565593062E+03  0.38857103616E+03  0.47000000000E+01 0.  1.
        -11    1    3    3    0    0  0.58207345545E+02  0.14933911188E+03 -0.48989596233E+02  0.16760144973E+03  0.00000000000E+00 0.  1.
         11    1    3    3    0    0 -0.17803460765E+02  0.41951354253E+02 -0.56159823748E+02  0.72324305336E+02  0.00000000000E+00 0. -1.
<mgrwt>
<rscale>  0 0.22784497E+03</rscale>
<asrwt>0</asrwt>
<pdfrwt beam="2">  1        2 0.14390162E+00 0.23205880E+03</pdfrwt>
<pdfrwt beam="1">  1       -2 0.13082592E-01 0.23205880E+03</pdfrwt>
<totfact> 0.12390579E+03</totfact>
</mgrwt>
</event>
<event>
 7    1  0.1422977E-005  0.1531254E+03  0.7546771E-02  0.1205040E+00
          1   -1    0    0  501    0  0.00000000000E+00  0.00000000000E+00  0.51781406118E+03  0.51781406118E+03  0.00000000000E+00 0. -1.
         -1   -1    0    0    0  501 -0.00000000000E+00 -0.00000000000E+00 -0.40143940481E+02  0.40143940481E+02  0.00000000000E+00 0.  1.
         23    2    1    2    0    0 -0.82985127343E+02 -0.30583167132E+02  0.15546623949E+03  0.20121898315E+03  0.92181701458E+02 0.  0.
          5    1    1    2  502    0  0.63554378510E+02  0.61053011171E+02  0.10807443953E+03  0.13953065499E+03  0.47000000000E+01 0. -1.
         -5    1    1    2    0  502  0.19430748833E+02 -0.30469844039E+02  0.21412944167E+03  0.21720836352E+03  0.47000000000E+01 0. -1.
        -11    1    3    3    0    0 -0.24560561924E+02 -0.33855311940E+02  0.80229318403E+01  0.42588387900E+02  0.00000000000E+00 0.  1.
         11    1    3    3    0    0 -0.58424565420E+02  0.32721448084E+01  0.14744330765E+03  0.15863059525E+03  0.00000000000E+00 0. -1.
<mgrwt>
<rscale>  0 0.14634342E+03</rscale>
<asrwt>0</asrwt>
<pdfrwt beam="1">  1        1 0.79663697E-01 0.15312539E+03</pdfrwt>
<pdfrwt beam="2">  1       -1 0.61759912E-02 0.15312539E+03</pdfrwt>
<totfact> 0.53414212E+03</totfact>
</mgrwt>
</event>
<event>
 7    1  0.1422977E-005  0.1338883E+03  0.7546771E-02  0.1234496E+00
          2   -1    0    0  501    0  0.00000000000E+00  0.00000000000E+00  0.12833723336E+04  0.12833723336E+04  0.00000000000E+00 0.  1.
         -2   -1    0    0    0  501 -0.00000000000E+00 -0.00000000000E+00 -0.10956522693E+02  0.10956522693E+02  0.00000000000E+00 0. -1.
         23    2    1    2    0    0 -0.62684988414E+01 -0.47588032307E+02  0.51850090501E+03  0.52861757415E+03  0.91046341563E+02 0.  0.
          5    1    1    2  502    0  0.14707868940E+02 -0.41494334214E+02  0.24500569385E+03  0.24897385646E+03  0.47000000000E+01 0. -1.
         -5    1    1    2    0  502 -0.84393700984E+01  0.89082366521E+02  0.50890921209E+03  0.51673742572E+03  0.47000000000E+01 0. -1.
        -11    1    3    3    0    0  0.14111494083E+02  0.24197188317E+02  0.15986847050E+03  0.16230393109E+03  0.00000000000E+00 0.  1.
         11    1    3    3    0    0 -0.20379992924E+02 -0.71785220624E+02  0.35863243451E+03  0.36631364306E+03  0.00000000000E+00 0. -1.
<mgrwt>
<rscale>  0 0.12536785E+03</rscale>
<asrwt>0</asrwt>
<pdfrwt beam="1">  1        2 0.19744178E+00 0.13388832E+03</pdfrwt>
<pdfrwt beam="2">  1       -2 0.16856199E-02 0.13388832E+03</pdfrwt>
<totfact> 0.17139592E+04</totfact>
</mgrwt>
</event>
<event>
 7    1  0.1422977E-005  0.1388376E+03  0.7546771E-02  0.1226082E+00
         -1   -1    0    0    0  501 -0.00000000000E+00  0.00000000000E+00  0.55788364538E+02  0.55788364538E+02  0.00000000000E+00 0.  1.
          1   -1    0    0  501    0  0.00000000000E+00 -0.00000000000E+00 -0.34982088857E+03  0.34982088857E+03  0.00000000000E+00 0. -1.
         23    2    1    2    0    0  0.41748232608E+01  0.60250304994E+02 -0.41425408736E+02  0.11736240518E+03  0.91707912743E+02 0.  0.
          5    1    1    2  502    0 -0.16300659379E+02 -0.95722266579E+02 -0.20930766967E+03  0.23078183290E+03  0.47000000000E+01 0.  1.
         -5    1    1    2    0  502  0.12125836118E+02  0.35471961585E+02 -0.43299445624E+02  0.57465015023E+02  0.47000000000E+01 0.  1.
        -11    1    3    3    0    0 -0.22029220025E+02  0.60766888293E+02  0.41698938443E+01  0.64771052657E+02  0.00000000000E+00 0. -1.
         11    1    3    3    0    0  0.26204043285E+02 -0.51658329873E+00 -0.45595302580E+02  0.52591352523E+02  0.00000000000E+00 0.  1.
<mgrwt>
<rscale>  0 0.13093002E+03</rscale>
<asrwt>0</asrwt>
<pdfrwt beam="2">  1        1 0.53818599E-01 0.13883764E+03</pdfrwt>
<pdfrwt beam="1">  1       -1 0.85828251E-02 0.13883764E+03</pdfrwt>
<totfact> 0.53424762E+03</totfact>
</mgrwt>
</event>
<event>
 7    1  0.1422977E-005  0.1514270E+03  0.7546771E-02  0.1204451E+00
         -1   -1    0    0    0  501 -0.00000000000E+00  0.00000000000E+00  0.36572308019E+02  0.36572308019E+02  0.00000000000E+00 0.  1.
          1   -1    0    0  501    0  0.00000000000E+00 -0.00000000000E+00 -0.10400941341E+04  0.10400941341E+04  0.00000000000E+00 0. -1.
         23    2    1    2    0    0 -0.72235806253E+02 -0.68456547448E+02 -0.11828969103E+03  0.17857620691E+03  0.89401901984E+02 0.  0.
          5    1    1    2  502    0  0.42017782437E+02  0.59849392346E+02 -0.83781925933E+03  0.84101762473E+03  0.47000000000E+01 0. -1.
         -5    1    1    2    0  502  0.30218023816E+02  0.86071551023E+01 -0.47412875729E+02  0.57072610481E+02  0.47000000000E+01 0.  1.
        -11    1    3    3    0    0 -0.11660454540E+02  0.17918741900E+02 -0.45885507643E+02  0.50621411705E+02  0.00000000000E+00 0. -1.
         11    1    3    3    0    0 -0.60575351713E+02 -0.86375289348E+02 -0.72404183386E+02  0.12795479521E+03  0.00000000000E+00 0.  1.
<mgrwt>
<rscale>  0 0.14680811E+03</rscale>
<asrwt>0</asrwt>
<pdfrwt beam="2">  1        1 0.16001449E+00 0.15142700E+03</pdfrwt>
<pdfrwt beam="1">  1       -1 0.56265087E-02 0.15142700E+03</pdfrwt>
<totfact> 0.21824582E+03</totfact>
</mgrwt>
</event>
<event>
 7    1  0.1422977E-005  0.1709661E+03  0.7546771E-02  0.1183807E+00
          4   -1    0    0  501    0  0.00000000000E+00  0.00000000000E+00  0.13249475440E+03  0.13249475440E+03  0.00000000000E+00 0. -1.
         -4   -1    0    0    0  501 -0.00000000000E+00 -0.00000000000E+00 -0.18989164153E+03  0.18989164153E+03  0.00000000000E+00 0.  1.
         23    2    1    2    0    0 -0.95961542224E+02  0.66305038453E+02 -0.29645020982E+02  0.14918257210E+03  0.88156887651E+02 0.  0.
          5    1    1    2  502    0  0.44625984383E+02 -0.42199050349E+02 -0.76537864109E+02  0.98246490904E+02  0.47000000000E+01 0.  1.
         -5    1    1    2    0  502  0.51335557841E+02 -0.24105988103E+02  0.48785997957E+02  0.74957332917E+02  0.47000000000E+01 0.  1.
        -11    1    3    3    0    0 -0.96192180314E+02  0.25673280047E+02 -0.11705776785E+01  0.99566174547E+02  0.00000000000E+00 0.  1.
         11    1    3    3    0    0  0.23063808957E+00  0.40631758406E+02 -0.28474443304E+02  0.49616397557E+02  0.00000000000E+00 0. -1.
<mgrwt>
<rscale>  0 0.16440871E+03</rscale>
<asrwt>0</asrwt>
<pdfrwt beam="1">  1        4 0.20383808E-01 0.17096607E+03</pdfrwt>
<pdfrwt beam="2">  1       -4 0.29214099E-01 0.17096607E+03</pdfrwt>
<totfact> 0.42225803E+02</totfact>
</mgrwt>
</event>
<event>
 7    1  0.1422977E-005  0.1339883E+03  0.7546771E-02  0.1234503E+00
          1   -1    0    0  501    0  0.00000000000E+00  0.00000000000E+00  0.14865720292E+04  0.14865720292E+04  0.00000000000E+00 0. -1.
         -1   -1    0    0    0  501 -0.00000000000E+00 -0.00000000000E+00 -0.13152977268E+02  0.13152977268E+02  0.00000000000E+00 0.  1.
         23    2    1    2    0    0  0.47025918754E+02 -0.10614533221E+02  0.26991712505E+03  0.28878745392E+03  0.90657783982E+02 0.  0.
          5    1    1    2  502    0 -0.40286189100E+02 -0.50508696023E+02  0.81506683651E+03  0.81763692638E+03  0.47000000000E+01 0.  1.
         -5    1    1    2    0  502 -0.67397296546E+01  0.61123229245E+02  0.38843509037E+03  0.39330062617E+03  0.47000000000E+01 0.  1.
        -11    1    3    3    0    0 -0.67652343288E+00 -0.42575250074E+02  0.14838552595E+03  0.15437413615E+03  0.00000000000E+00 0.  1.
         11    1    3    3    0    0  0.47702442187E+02  0.31960716853E+02  0.12153159910E+03  0.13441331777E+03  0.00000000000E+00 0. -1.
<mgrwt>
<rscale>  0 0.12536330E+03</rscale>
<asrwt>0</asrwt>
<pdfrwt beam="1">  1        1 0.22870326E+00 0.13398831E+03</pdfrwt>
<pdfrwt beam="2">  1       -1 0.20235361E-02 0.13398831E+03</pdfrwt>
<totfact> 0.48413232E+03</totfact>
</mgrwt>
</event>
<event>
 7    1  0.1422977E-005  0.1321176E+03  0.7546771E-02  0.1240712E+00
          1   -1    0    0  501    0  0.00000000000E+00  0.00000000000E+00  0.34893114382E+03  0.34893114382E+03  0.00000000000E+00 0. -1.
         -1   -1    0    0    0  501 -0.00000000000E+00 -0.00000000000E+00 -0.37614776664E+02  0.37614776664E+02  0.00000000000E+00 0.  1.
         23    2    1    2    0    0 -0.38027686773E+02 -0.19560590112E+02  0.10142048521E+03  0.13853114379E+03  0.84119209060E+02 0.  0.
          5    1    1    2  502    0  0.90372692976E+01 -0.49424364333E+02  0.48209242206E+02  0.69790121508E+02  0.47000000000E+01 0. -1.
         -5    1    1    2    0  502  0.28990417475E+02  0.68984954446E+02  0.16168663974E+03  0.17822465518E+03  0.47000000000E+01 0. -1.
        -11    1    3    3    0    0 -0.12640100017E+02 -0.47665621540E+02  0.82692547483E+02  0.96280013578E+02  0.00000000000E+00 0.  1.
         11    1    3    3    0    0 -0.25387586756E+02  0.28105031428E+02  0.18727937730E+02  0.42251130216E+02  0.00000000000E+00 0. -1.
<mgrwt>
<rscale>  0 0.12145718E+03</rscale>
<asrwt>0</asrwt>
<pdfrwt beam="1">  1        1 0.53681712E-01 0.13211755E+03</pdfrwt>
<pdfrwt beam="2">  1       -1 0.57868890E-02 0.13211755E+03</pdfrwt>
<totfact> 0.96493609E+03</totfact>
</mgrwt>
</event>
<event>
 7    1  0.1422977E-005  0.1589488E+03  0.7546771E-02  0.1198090E+00
         -1   -1    0    0    0  501 -0.00000000000E+00  0.00000000000E+00  0.37481133368E+02  0.37481133368E+02  0.00000000000E+00 0.  1.
          1   -1    0    0  501    0  0.00000000000E+00 -0.00000000000E+00 -0.57262905502E+03  0.57262905502E+03  0.00000000000E+00 0. -1.
         23    2    1    2    0    0  0.48241852170E+02  0.85492885440E+02 -0.27221307629E+03  0.30286523843E+03  0.89392863180E+02 0.  0.
          5    1    1    2  502    0 -0.74858971198E+02 -0.35997864087E+02 -0.78517077520E+02  0.11439726068E+03  0.47000000000E+01 0. -1.
         -5    1    1    2    0  502  0.26617119028E+02 -0.49495021353E+02 -0.18441776785E+03  0.19284768928E+03  0.47000000000E+01 0. -1.
        -11    1    3    3    0    0  0.50797317951E+02  0.10615052527E+02 -0.15771307042E+03  0.16603150133E+03  0.00000000000E+00 0. -1.
         11    1    3    3    0    0 -0.25554657806E+01  0.74877832912E+02 -0.11450000587E+03  0.13683373711E+03  0.00000000000E+00 0.  1.
<mgrwt>
<rscale>  0 0.15195552E+03</rscale>
<asrwt>0</asrwt>
<pdfrwt beam="2">  1        1 0.88096777E-01 0.15894882E+03</pdfrwt>
<pdfrwt beam="1">  1       -1 0.57663282E-02 0.15894882E+03</pdfrwt>
<totfact> 0.51840726E+03</totfact>
</mgrwt>
</event>
<event>
 7    1  0.1422977E-005  0.1744060E+03  0.7546771E-02  0.1177955E+00
          1   -1    0    0  501    0  0.00000000000E+00  0.00000000000E+00  0.43770153904E+02  0.43770153904E+02  0.00000000000E+00 0. -1.
         -1   -1    0    0    0  501 -0.00000000000E+00 -0.00000000000E+00 -0.66735984444E+03  0.66735984444E+03  0.00000000000E+00 0.  1.
         23    2    1    2    0    0  0.86116530590E+02  0.85878195944E+02 -0.20969915036E+03  0.26199434929E+03  0.99378991852E+02 0.  0.
          5    1    1    2  502    0  0.26042863242E+02 -0.46686472768E+02 -0.16051129666E+03  0.16924486350E+03  0.47000000000E+01 0.  1.
         -5    1    1    2    0  502 -0.11215939383E+03 -0.39191723176E+02 -0.25337924353E+03  0.27989078556E+03  0.47000000000E+01 0.  1.
        -11    1    3    3    0    0  0.82924373553E+02  0.12955169834E+02 -0.10672446358E+03  0.13577333789E+03  0.00000000000E+00 0. -1.
         11    1    3    3    0    0  0.31921570377E+01  0.72923026110E+02 -0.10297468677E+03  0.12622101140E+03  0.00000000000E+00 0.  1.
<mgrwt>
<rscale>  0 0.16989722E+03</rscale>
<asrwt>0</asrwt>
<pdfrwt beam="1">  1        1 0.67338704E-02 0.17440600E+03</pdfrwt>
<pdfrwt beam="2">  1       -1 0.10267074E+00 0.17440600E+03</pdfrwt>
<totfact> 0.10360336E+03</totfact>
</mgrwt>
</event>
<event>
 7    1  0.1422977E-005  0.1307237E+03  0.7546771E-02  0.1241509E+00
          1   -1    0    0  501    0  0.00000000000E+00  0.00000000000E+00  0.65569267463E+03  0.65569267463E+03  0.00000000000E+00 0. -1.
         -1   -1    0    0    0  501 -0.00000000000E+00 -0.00000000000E+00 -0.20706507533E+02  0.20706507533E+02  0.00000000000E+00 0.  1.
         23    2    1    2    0    0  0.65160649149E+01 -0.37680337307E+02  0.19309740372E+03  0.21557994834E+03  0.87896756934E+02 0.  0.
          5    1    1    2  502    0 -0.27037910766E+02 -0.11392166738E+02  0.20591597699E+02  0.36151541840E+02  0.47000000000E+01 0. -1.
         -5    1    1    2    0  502  0.20521845851E+02  0.49072504045E+02  0.42129716568E+03  0.42466769199E+03  0.47000000000E+01 0. -1.
        -11    1    3    3    0    0 -0.17008978761E+02 -0.10258342766E+02  0.75901897676E+00  0.19877501467E+02  0.00000000000E+00 0.  1.
         11    1    3    3    0    0  0.23525043675E+02 -0.27421994542E+02  0.19233838475E+03  0.19570244687E+03  0.00000000000E+00 0. -1.
<mgrwt>
<rscale>  0 0.12096759E+03</rscale>
<asrwt>0</asrwt>
<pdfrwt beam="1">  1        1 0.10087578E+00 0.13072371E+03</pdfrwt>
<pdfrwt beam="2">  1       -1 0.31856170E-02 0.13072371E+03</pdfrwt>
<totfact> 0.10207995E+04</totfact>
</mgrwt>
</event>
<event>
 7    1  0.1422977E-005  0.1391017E+03  0.7546771E-02  0.1233213E+00
          2   -1    0    0  501    0  0.00000000000E+00  0.00000000000E+00  0.23507995152E+04  0.23507995152E+04  0.00000000000E+00 0. -1.
         -2   -1    0    0    0  501 -0.00000000000E+00 -0.00000000000E+00 -0.79660225507E+01  0.79660225507E+01  0.00000000000E+00 0.  1.
         23    2    1    2    0    0 -0.31253548539E+01  0.16524582612E+02  0.39957783794E+03  0.41053766897E+03  0.92714073331E+02 0.  0.
          5    1    1    2  502    0  0.21856326343E+02 -0.36685357442E+02  0.18584243467E+04  0.18589208312E+04  0.47000000000E+01 0. -1.
         -5    1    1    2    0  502 -0.18730971489E+02  0.20160774830E+02  0.84831308026E+02  0.89307037551E+02  0.47000000000E+01 0.  1.
        -11    1    3    3    0    0 -0.45450183293E+02  0.21930565786E+02  0.18504773656E+03  0.19180545791E+03  0.00000000000E+00 0.  1.
         11    1    3    3    0    0  0.42324828439E+02 -0.54059831737E+01  0.21453010139E+03  0.21873221106E+03  0.00000000000E+00 0. -1.
<mgrwt>
<rscale>  0 0.12619531E+03</rscale>
<asrwt>0</asrwt>
<pdfrwt beam="1">  1        2 0.36166091E+00 0.13910172E+03</pdfrwt>
<pdfrwt beam="2">  1       -2 0.12255438E-02 0.13910172E+03</pdfrwt>
<totfact> 0.76072810E+03</totfact>
</mgrwt>
</event>
<event>
 7    1  0.1422977E-005  0.2134180E+03  0.7546771E-02  0.1142486E+00
         -1   -1    0    0    0  501 -0.00000000000E+00  0.00000000000E+00  0.14022975179E+03  0.14022975179E+03  0.00000000000E+00 0.  1.
          1   -1    0    0  501    0  0.00000000000E+00 -0.00000000000E+00 -0.29842925182E+03  0.29842925182E+03  0.00000000000E+00 0. -1.
         23    2    1    2    0    0 -0.15976455089E+03  0.66299790125E+02 -0.73256762129E+02  0.20895812604E+03  0.91523610872E+02 0.  0.
          5    1    1    2  502    0  0.17829374218E+03 -0.73334163219E+02 -0.73796172978E+02  0.20648129005E+03  0.47000000000E+01 0.  1.
         -5    1    1    2    0  502 -0.18529191291E+02  0.70343730942E+01 -0.11146564926E+02  0.23219587515E+02  0.47000000000E+01 0.  1.
        -11    1    3    3    0    0 -0.30439297790E+02  0.85665017190E+01 -0.58583817338E+02  0.66573263819E+02  0.00000000000E+00 0. -1.
         11    1    3    3    0    0 -0.12932525310E+03  0.57733288406E+02 -0.14672944791E+02  0.14238486222E+03  0.00000000000E+00 0.  1.
<mgrwt>
<rscale>  0 0.20884243E+03</rscale>
<asrwt>0</asrwt>
<pdfrwt beam="2">  1        1 0.45912192E-01 0.21341796E+03</pdfrwt>
<pdfrwt beam="1">  1       -1 0.21573808E-01 0.21341796E+03</pdfrwt>
<totfact> 0.15611236E+03</totfact>
</mgrwt>
</event>
<event>
 7    1  0.1422977E-005  0.1427814E+03  0.7546771E-02  0.1219803E+00
          3   -1    0    0  501    0  0.00000000000E+00  0.00000000000E+00  0.64620905544E+03  0.64620905544E+03  0.00000000000E+00 0. -1.
         -3   -1    0    0    0  501 -0.00000000000E+00 -0.00000000000E+00 -0.25874148844E+02  0.25874148844E+02  0.00000000000E+00 0.  1.
         23    2    1    2    0    0 -0.64638735585E+02  0.24183883068E+02  0.25216279439E+03  0.27719432746E+03  0.92128138842E+02 0.  0.
          5    1    1    2  502    0  0.53730127314E+02  0.42083659259E+02  0.24667938858E+03  0.25598978829E+03  0.47000000000E+01 0. -1.
         -5    1    1    2    0  502  0.10908608271E+02 -0.66267542327E+02  0.12149272363E+03  0.13889908853E+03  0.47000000000E+01 0. -1.
        -11    1    3    3    0    0 -0.78679751818E+02  0.40689947915E+01  0.12551505446E+03  0.14819274261E+03  0.00000000000E+00 0.  1.
         11    1    3    3    0    0  0.14041016233E+02  0.20114888276E+02  0.12664773993E+03  0.12900158486E+03  0.00000000000E+00 0. -1.
<mgrwt>
<rscale>  0 0.13529545E+03</rscale>
<asrwt>0</asrwt>
<pdfrwt beam="1">  1        3 0.99416766E-01 0.14278137E+03</pdfrwt>
<pdfrwt beam="2">  1       -3 0.39806388E-02 0.14278137E+03</pdfrwt>
<totfact> 0.70136074E+02</totfact>
</mgrwt>
</event>
<event>
 7    1  0.1422977E-005  0.1722983E+03  0.7546771E-02  0.1181591E+00
          2   -1    0    0  501    0  0.00000000000E+00  0.00000000000E+00  0.24876280806E+03  0.24876280806E+03  0.00000000000E+00 0. -1.
         -2   -1    0    0    0  501 -0.00000000000E+00 -0.00000000000E+00 -0.10712830698E+03  0.10712830698E+03  0.00000000000E+00 0.  1.
         23    2    1    2    0    0  0.11762384233E+03 -0.15009772111E+02  0.38046354897E+02  0.15485076591E+03  0.92035716096E+02 0.  0.
          5    1    1    2  502    0 -0.55899511536E+02  0.69637318989E+02  0.59941557856E+02  0.10765310931E+03  0.47000000000E+01 0.  1.
         -5    1    1    2    0  502 -0.61724330795E+02 -0.54627546878E+02  0.43646588325E+02  0.93387239827E+02  0.47000000000E+01 0.  1.
        -11    1    3    3    0    0  0.32295750871E+02  0.15778636905E+02  0.51853406188E+02  0.63093237674E+02  0.00000000000E+00 0. -1.
         11    1    3    3    0    0  0.85328091460E+02 -0.30788409016E+02 -0.13807051291E+02  0.91757528232E+02  0.00000000000E+00 0.  1.
<mgrwt>
<rscale>  0 0.16645964E+03</rscale>
<asrwt>0</asrwt>
<pdfrwt beam="1">  1        2 0.38271201E-01 0.17229834E+03</pdfrwt>
<pdfrwt beam="2">  1       -2 0.16481278E-01 0.17229834E+03</pdfrwt>
<totfact> 0.38205025E+03</totfact>
</mgrwt>
</event>
<event>
 7    1  0.1422977E-005  0.1584510E+03  0.7546771E-02  0.1198497E+00
          1   -1    0    0  501    0  0.00000000000E+00  0.00000000000E+00  0.39035681666E+03  0.39035681666E+03  0.00000000000E+00 0. -1.
         -1   -1    0    0    0  501 -0.00000000000E+00 -0.00000000000E+00 -0.56318850852E+02  0.56318850852E+02  0.00000000000E+00 0.  1.
         23    2    1    2    0    0 -0.13265255134E+02  0.96444338979E+02  0.11116825215E+03  0.17322068206E+03  0.90385545817E+02 0.  0.
          5    1    1    2  502    0  0.16304765558E+02 -0.66098629489E-01 -0.11149971345E+02  0.20304226406E+02  0.47000000000E+01 0. -1.
         -5    1    1    2    0  502 -0.30395104246E+01 -0.96378240350E+02  0.23401968500E+03  0.25315075905E+03  0.47000000000E+01 0. -1.
        -11    1    3    3    0    0  0.30380984162E+02  0.17794654532E+02  0.60456036444E+02  0.69961319821E+02  0.00000000000E+00 0. -1.
         11    1    3    3    0    0 -0.43646239296E+02  0.78649684447E+02  0.50712215707E+02  0.10325936224E+03  0.00000000000E+00 0.  1.
<mgrwt>
<rscale>  0 0.15161954E+03</rscale>
<asrwt>0</asrwt>
<pdfrwt beam="1">  1        1 0.60054893E-01 0.15845100E+03</pdfrwt>
<pdfrwt beam="2">  1       -1 0.86644388E-02 0.15845100E+03</pdfrwt>
<totfact> 0.46215501E+03</totfact>
</mgrwt>
</event>
<event>
 7    1  0.1422977E-005  0.2110220E+03  0.7546771E-02  0.1144166E+00
          4   -1    0    0  501    0  0.00000000000E+00  0.00000000000E+00  0.19013555517E+03  0.19013555517E+03  0.00000000000E+00 0.  1.
         -4   -1    0    0    0  501 -0.00000000000E+00 -0.00000000000E+00 -0.21838453239E+03  0.21838453239E+03  0.00000000000E+00 0. -1.
         23    2    1    2    0    0  0.71236077277E+02 -0.15437211552E+03 -0.34123228079E+02  0.19741637238E+03  0.94358362812E+02 0.  0.
          5    1    1    2  502    0 -0.41595526459E+02  0.13778942788E+03 -0.44000699616E+02  0.15057976565E+03  0.47000000000E+01 0.  1.
         -5    1    1    2    0  502 -0.29640550818E+02  0.16582687633E+02  0.49874950473E+02  0.60523949529E+02  0.47000000000E+01 0.  1.
        -11    1    3    3    0    0 -0.73411523802E+01 -0.80778511795E+02 -0.38251517255E+02  0.89678531758E+02  0.00000000000E+00 0.  1.
         11    1    3    3    0    0  0.78577229657E+02 -0.73593603722E+02  0.41282891758E+01  0.10773784062E+03  0.00000000000E+00 0. -1.
<mgrwt>
<rscale>  0 0.20674971E+03</rscale>
<asrwt>0</asrwt>
<pdfrwt beam="1">  1        4 0.29251624E-01 0.21102197E+03</pdfrwt>
<pdfrwt beam="2">  1       -4 0.33597620E-01 0.21102197E+03</pdfrwt>
<totfact> 0.17097321E+02</totfact>
</mgrwt>
</event>
<event>
 7    1  0.1422977E-005  0.1874911E+03  0.7546771E-02  0.1179065E+00
         -1   -1    0    0    0  501 -0.00000000000E+00  0.00000000000E+00  0.54074461711E+02  0.54074461711E+02  0.00000000000E+00 0.  1.
          1   -1    0    0  501    0  0.00000000000E+00 -0.00000000000E+00 -0.46278234748E+03  0.46278234748E+03  0.00000000000E+00 0. -1.
         23    2    1    2    0    0  0.16316023824E+01  0.82950541179E+02 -0.11621866220E+03  0.16943365758E+03  0.91200506964E+02 0.  0.
          5    1    1    2  502    0  0.48280647294E+02 -0.10660495768E+03 -0.12637191189E+03  0.17230086482E+03  0.47000000000E+01 0. -1.
         -5    1    1    2    0  502 -0.49912249676E+02  0.23654416500E+02 -0.16611731168E+03  0.17512228678E+03  0.47000000000E+01 0.  1.
        -11    1    3    3    0    0 -0.31039783015E+02 -0.27198816292E+01 -0.23420494892E+02  0.38979295359E+02  0.00000000000E+00 0. -1.
         11    1    3    3    0    0  0.32671385397E+02  0.85670422808E+02 -0.92798167308E+02  0.13045436223E+03  0.00000000000E+00 0.  1.
<mgrwt>
<rscale>  0 0.16883769E+03</rscale>
<asrwt>0</asrwt>
<pdfrwt beam="2">  1        1 0.71197283E-01 0.18749107E+03</pdfrwt>
<pdfrwt beam="1">  1       -1 0.83191480E-02 0.18749107E+03</pdfrwt>
<totfact> 0.39835997E+03</totfact>
</mgrwt>
</event>
<event>
 7    1  0.1422977E-005  0.1985476E+03  0.7546771E-02  0.1173447E+00
          1   -1    0    0  501    0  0.00000000000E+00  0.00000000000E+00  0.91600674224E+02  0.91600674224E+02  0.00000000000E+00 0. -1.
         -1   -1    0    0    0  501 -0.00000000000E+00 -0.00000000000E+00 -0.36236749356E+03  0.36236749356E+03  0.00000000000E+00 0.  1.
         23    2    1    2    0    0 -0.70812453626E+02  0.72221808261E+01 -0.21910536702E+03  0.24880956523E+03  0.93981244981E+02 0.  0.
          5    1    1    2  502    0 -0.94105757909E+01 -0.85247425896E+02 -0.30639139548E+02  0.91195007708E+02  0.47000000000E+01 0. -1.
         -5    1    1    2    0  502  0.80223029417E+02  0.78025245070E+02 -0.21022312773E+02  0.11396359485E+03  0.47000000000E+01 0.  1.
        -11    1    3    3    0    0 -0.13434470215E+02 -0.40101035935E+02 -0.97275641173E+02  0.10607133656E+03  0.00000000000E+00 0.  1.
         11    1    3    3    0    0 -0.57377983412E+02  0.47323216761E+02 -0.12182972585E+03  0.14273822867E+03  0.00000000000E+00 0. -1.
<mgrwt>
<rscale>  0 0.17428964E+03</rscale>
<asrwt>0</asrwt>
<pdfrwt beam="1">  1        1 0.14092411E-01 0.19854759E+03</pdfrwt>
<pdfrwt beam="2">  1       -1 0.55748846E-01 0.19854759E+03</pdfrwt>
<totfact> 0.13437120E+03</totfact>
</mgrwt>
</event>
<event>
 7    1  0.1422977E-005  0.1911943E+03  0.7546771E-02  0.1162352E+00
         -1   -1    0    0    0  501 -0.00000000000E+00  0.00000000000E+00  0.72124284438E+02  0.72124284438E+02  0.00000000000E+00 0.  1.
          1   -1    0    0  501    0  0.00000000000E+00 -0.00000000000E+00 -0.48913803633E+03  0.48913803633E+03  0.00000000000E+00 0. -1.
         23    2    1    2    0    0 -0.21796211306E+02 -0.14300620568E+03 -0.12122617766E+03  0.20906129881E+03  0.89916577005E+02 0.  0.
          5    1    1    2  502    0  0.72415400309E+02  0.97414128448E+02 -0.16803824049E+03  0.20734619092E+03  0.47000000000E+01 0.  1.
         -5    1    1    2    0  502 -0.50619189003E+02  0.45592077235E+02 -0.12774933374E+03  0.14485483103E+03  0.47000000000E+01 0.  1.
        -11    1    3    3    0    0  0.25404752289E+02 -0.92645883601E+02 -0.44544991248E+02  0.10589106399E+03  0.00000000000E+00 0.  1.
         11    1    3    3    0    0 -0.47200963595E+02 -0.50360322082E+02 -0.76681186412E+02  0.10317023483E+03  0.00000000000E+00 0. -1.
<mgrwt>
<rscale>  0 0.18574892E+03</rscale>
<asrwt>0</asrwt>
<pdfrwt beam="2">  1        1 0.75252007E-01 0.19119433E+03</pdfrwt>
<pdfrwt beam="1">  1       -1 0.11096044E-01 0.19119433E+03</pdfrwt>
<totfact> 0.23824958E+03</totfact>
</mgrwt>
</event>
<event>
 7    1  0.1422977E-005  0.1405697E+03  0.7546771E-02  0.1223788E+00
         -1   -1    0    0    0  501 -0.00000000000E+00  0.00000000000E+00  0.28045839053E+02  0.28045839053E+02  0.00000000000E+00 0.  1.
          1   -1    0    0  501    0  0.00000000000E+00 -0.00000000000E+00 -0.57532688530E+03  0.57532688530E+03  0.00000000000E+00 0. -1.
         23    2    1    2    0    0  0.41227093583E+02 -0.49346093367E+02 -0.20010657866E+03  0.22881971623E+03  0.90449486117E+02 0.  0.
          5    1    1    2  502    0 -0.66212959033E+02  0.54545629346E+02 -0.12994648087E+03  0.15578048503E+03  0.47000000000E+01 0.  1.
         -5    1    1    2    0  502  0.24985865450E+02 -0.51995359794E+01 -0.21722798672E+03  0.21877252309E+03  0.47000000000E+01 0.  1.
        -11    1    3    3    0    0  0.71123581348E+01 -0.63042155894E+02 -0.16950392529E+03  0.18098751268E+03  0.00000000000E+00 0.  1.
         11    1    3    3    0    0  0.34114735448E+02  0.13696062528E+02 -0.30602653370E+02  0.47832203553E+02  0.00000000000E+00 0. -1.
<mgrwt>
<rscale>  0 0.13250331E+03</rscale>
<asrwt>0</asrwt>
<pdfrwt beam="2">  1        1 0.88511819E-01 0.14056972E+03</pdfrwt>
<pdfrwt beam="1">  1       -1 0.43147449E-02 0.14056972E+03</pdfrwt>
<totfact> 0.78663934E+03</totfact>
</mgrwt>
</event>
<event>
 7    1  0.1422977E-005  0.1279683E+03  0.7546771E-02  0.1244614E+00
         -2   -1    0    0    0  501 -0.00000000000E+00  0.00000000000E+00  0.13797808235E+02  0.13797808235E+02  0.00000000000E+00 0.  1.
          2   -1    0    0  501    0  0.00000000000E+00 -0.00000000000E+00 -0.13706690447E+04  0.13706690447E+04  0.00000000000E+00 0. -1.
         23    2    1    2    0    0  0.27435114954E+02 -0.35136108853E+01 -0.21497611939E+03  0.23542361906E+03  0.91894055907E+02 0.  0.
          5    1    1    2  502    0  0.18880953601E+02  0.23494790062E+02 -0.75284485948E+02  0.81230163076E+02  0.47000000000E+01 0. -1.
         -5    1    1    2    0  502 -0.46316068554E+02 -0.19981179176E+02 -0.10666106311E+04  0.10678130708E+04  0.47000000000E+01 0. -1.
        -11    1    3    3    0    0 -0.13497374999E+02 -0.10658841909E+02 -0.76051851839E+00  0.17215354516E+02  0.00000000000E+00 0.  1.
         11    1    3    3    0    0  0.40932489952E+02  0.71452310238E+01 -0.21421560087E+03  0.21820826455E+03  0.00000000000E+00 0. -1.
<mgrwt>
<rscale>  0 0.11908490E+03</rscale>
<asrwt>0</asrwt>
<pdfrwt beam="2">  1        2 0.21087222E+00 0.12796834E+03</pdfrwt>
<pdfrwt beam="1">  1       -2 0.21227392E-02 0.12796834E+03</pdfrwt>
<totfact> 0.10993747E+04</totfact>
</mgrwt>
</event>
<event>
 7    1  0.1422977E-005  0.1284852E+03  0.7546771E-02  0.1243504E+00
          1   -1    0    0  501    0  0.00000000000E+00  0.00000000000E+00  0.43912579564E+03  0.43912579564E+03  0.00000000000E+00 0. -1.
         -1   -1    0    0    0  501 -0.00000000000E+00 -0.00000000000E+00 -0.37982347365E+02  0.37982347365E+02  0.00000000000E+00 0.  1.
         23    2    1    2    0    0 -0.28119535846E+02  0.97353146730E+01  0.63654835483E+02  0.11598903147E+03  0.92282353094E+02 0.  0.
          5    1    1    2  502    0 -0.12767407543E+02 -0.61224267121E+01 -0.53129398959E+01  0.15836923140E+02  0.47000000000E+01 0.  1.
         -5    1    1    2    0  502  0.40886943389E+02 -0.36128879609E+01  0.34280155269E+03  0.34528218840E+03  0.47000000000E+01 0.  1.
        -11    1    3    3    0    0  0.11216049552E+02 -0.33476837207E+02  0.38884184852E+02  0.52521216937E+02  0.00000000000E+00 0. -1.
         11    1    3    3    0    0 -0.39335585398E+02  0.43212151880E+02  0.24770650631E+02  0.63467814531E+02  0.00000000000E+00 0.  1.
<mgrwt>
<rscale>  0 0.11975388E+03</rscale>
<asrwt>0</asrwt>
<pdfrwt beam="1">  1        1 0.67557811E-01 0.12848521E+03</pdfrwt>
<pdfrwt beam="2">  1       -1 0.58434384E-02 0.12848521E+03</pdfrwt>
<totfact> 0.71091574E+03</totfact>
</mgrwt>
</event>
<event>
 7    1  0.1422977E-005  0.1282172E+03  0.7546771E-02  0.1245028E+00
          1   -1    0    0  501    0  0.00000000000E+00  0.00000000000E+00  0.40207257507E+02  0.40207257507E+02  0.00000000000E+00 0. -1.
         -1   -1    0    0    0  501 -0.00000000000E+00 -0.00000000000E+00 -0.35555354262E+03  0.35555354262E+03  0.00000000000E+00 0.  1.
         23    2    1    2    0    0  0.25095332309E+02 -0.13568340107E+02 -0.20811385259E+03  0.22861283624E+03  0.90214065964E+02 0.  0.
          5    1    1    2  502    0 -0.17334709844E+02  0.68499697456E+02 -0.73434652526E+02  0.10201685600E+03  0.47000000000E+01 0.  1.
         -5    1    1    2    0  502 -0.77606224651E+01 -0.54931357349E+02 -0.33797779997E+02  0.65131107882E+02  0.47000000000E+01 0.  1.
        -11    1    3    3    0    0  0.40929246578E+02 -0.44027699096E+02 -0.12568013523E+03  0.13931668208E+03  0.00000000000E+00 0. -1.
         11    1    3    3    0    0 -0.15833914268E+02  0.30459358989E+02 -0.82433717357E+02  0.89296154163E+02  0.00000000000E+00 0.  1.
<mgrwt>
<rscale>  0 0.11883721E+03</rscale>
<asrwt>0</asrwt>
<pdfrwt beam="1">  1        1 0.61857319E-02 0.12821719E+03</pdfrwt>
<pdfrwt beam="2">  1       -1 0.54700545E-01 0.12821719E+03</pdfrwt>
<totfact> 0.41022846E+03</totfact>
</mgrwt>
</event>
<event>
 7    1  0.1422977E-005  0.1599885E+03  0.7546771E-02  0.1196970E+00
         -2   -1    0    0    0  501 -0.00000000000E+00  0.00000000000E+00  0.26807077846E+02  0.26807077846E+02  0.00000000000E+00 0.  1.
          2   -1    0    0  501    0  0.00000000000E+00 -0.00000000000E+00 -0.88825431522E+03  0.88825431522E+03  0.00000000000E+00 0. -1.
         23    2    1    2    0    0  0.54202217036E+02 -0.83868742224E+02 -0.25411558317E+03  0.28701039204E+03  0.88478185305E+02 0.  0.
          5    1    1    2  502    0 -0.68179260855E+02 -0.39227160714E+01 -0.32022745545E+03  0.32746223070E+03  0.47000000000E+01 0.  1.
         -5    1    1    2    0  502  0.13977043819E+02  0.87791458296E+02 -0.28710419876E+03  0.30058877033E+03  0.47000000000E+01 0.  1.
        -11    1    3    3    0    0  0.60293407500E+02 -0.45094601258E+02 -0.22737673057E+03  0.23951825746E+03  0.00000000000E+00 0. -1.
         11    1    3    3    0    0 -0.60911904635E+01 -0.38774140966E+02 -0.26738852603E+02  0.47492134585E+02  0.00000000000E+00 0.  1.
<mgrwt>
<rscale>  0 0.15288673E+03</rscale>
<asrwt>0</asrwt>
<pdfrwt beam="2">  1        2 0.13665450E+00 0.15998850E+03</pdfrwt>
<pdfrwt beam="1">  1       -2 0.41241661E-02 0.15998850E+03</pdfrwt>
<totfact> 0.79048743E+03</totfact>
</mgrwt>
</event>
<event>
 7    1  0.1422977E-005  0.1345002E+03  0.7546771E-02  0.1231626E+00
         -1   -1    0    0    0  501 -0.00000000000E+00  0.00000000000E+00  0.24232865891E+02  0.24232865891E+02  0.00000000000E+00 0.  1.
          1   -1    0    0  501    0  0.00000000000E+00 -0.00000000000E+00 -0.67715412510E+03  0.67715412510E+03  0.00000000000E+00 0. -1.
         23    2    1    2    0    0  0.43470946474E+02  0.37050284091E+02 -0.18042499827E+03  0.21012023396E+03  0.91295596728E+02 0.  0.
          5    1    1    2  502    0 -0.79184415674E+02 -0.14789307702E+02 -0.39297702728E+03  0.40117568381E+03  0.47000000000E+01 0. -1.
         -5    1    1    2    0  502  0.35713469200E+02 -0.22260976389E+02 -0.79519233660E+02  0.90091073220E+02  0.47000000000E+01 0.  1.
        -11    1    3    3    0    0  0.46985869800E+02  0.53432020370E+02 -0.17978572969E+03  0.19335346224E+03  0.00000000000E+00 0.  1.
         11    1    3    3    0    0 -0.35149233260E+01 -0.16381736279E+02 -0.63926857594E+00  0.16766771717E+02  0.00000000000E+00 0. -1.
<mgrwt>
<rscale>  0 0.12722926E+03</rscale>
<asrwt>0</asrwt>
<pdfrwt beam="2">  1        1 0.10417755E+00 0.13450022E+03</pdfrwt>
<pdfrwt beam="1">  1       -1 0.37281336E-02 0.13450022E+03</pdfrwt>
<totfact> 0.77679209E+03</totfact>
</mgrwt>
</event>
<event>
 7    1  0.1422977E-005  0.1379974E+03  0.7546771E-02  0.1230264E+00
          1   -1    0    0  501    0  0.00000000000E+00  0.00000000000E+00  0.60814809241E+02  0.60814809241E+02  0.00000000000E+00 0. -1.
         -1   -1    0    0    0  501 -0.00000000000E+00 -0.00000000000E+00 -0.29871207089E+03  0.29871207089E+03  0.00000000000E+00 0.  1.
         23    2    1    2    0    0  0.57740263654E+02 -0.92231922718E+01 -0.18541937264E+03  0.21188807473E+03  0.84244923536E+02 0.  0.
          5    1    1    2  502    0  0.34394157807E+02  0.26403466902E+02 -0.10633029538E+02  0.44891563493E+02  0.47000000000E+01 0.  1.
         -5    1    1    2    0  502 -0.92134421461E+02 -0.17180274630E+02 -0.41844859467E+02  0.10274724190E+03  0.47000000000E+01 0.  1.
        -11    1    3    3    0    0  0.78193577633E+02 -0.60015859758E+01 -0.12072475605E+03  0.14396083266E+03  0.00000000000E+00 0. -1.
         11    1    3    3    0    0 -0.20453313978E+02 -0.32216062960E+01 -0.64694616592E+02  0.67927242074E+02  0.00000000000E+00 0.  1.
<mgrwt>
<rscale>  0 0.12812552E+03</rscale>
<asrwt>0</asrwt>
<pdfrwt beam="1">  1        1 0.93561245E-02 0.13799742E+03</pdfrwt>
<pdfrwt beam="2">  1       -1 0.45955703E-01 0.13799742E+03</pdfrwt>
<totfact> 0.32485691E+03</totfact>
</mgrwt>
</event>
<event>
 7    1  0.1422977E-005  0.2402083E+03  0.7546771E-02  0.1122349E+00
         -2   -1    0    0    0  501 -0.00000000000E+00  0.00000000000E+00  0.13038762123E+03  0.13038762123E+03  0.00000000000E+00 0.  1.
          2   -1    0    0  501    0  0.00000000000E+00 -0.00000000000E+00 -0.43940785610E+03  0.43940785610E+03  0.00000000000E+00 0. -1.
         23    2    1    2    0    0  0.11910671378E+03  0.16699662348E+03 -0.21781241120E+03  0.31285401728E+03  0.91439095223E+02 0.  0.
          5    1    1    2  502    0 -0.30336990007E+02 -0.11307677712E+03  0.21781112479E+01  0.11719012183E+03  0.47000000000E+01 0. -1.
         -5    1    1    2    0  502 -0.88769723770E+02 -0.53919846366E+02 -0.93385934920E+02  0.13975133821E+03  0.47000000000E+01 0. -1.
        -11    1    3    3    0    0  0.31348159258E+02  0.11991369314E+03 -0.10568599233E+03  0.16288502039E+03  0.00000000000E+00 0.  1.
         11    1    3    3    0    0  0.87758554519E+02  0.47082930340E+02 -0.11212641887E+03  0.14996899689E+03  0.00000000000E+00 0. -1.
<mgrwt>
<rscale>  0 0.23620168E+03</rscale>
<asrwt>0</asrwt>
<pdfrwt beam="2">  1        2 0.67601208E-01 0.24020834E+03</pdfrwt>
<pdfrwt beam="1">  1       -2 0.20059634E-01 0.24020834E+03</pdfrwt>
<totfact> 0.15011136E+03</totfact>
</mgrwt>
</event>
<event>
 7    1  0.1422977E-005  0.1493284E+03  0.7546771E-02  0.1209578E+00
         -2   -1    0    0    0  501 -0.00000000000E+00  0.00000000000E+00  0.23161290787E+03  0.23161290787E+03  0.00000000000E+00 0.  1.
          2   -1    0    0  501    0  0.00000000000E+00 -0.00000000000E+00 -0.82038606151E+02  0.82038606151E+02  0.00000000000E+00 0. -1.
         23    2    1    2    0    0  0.55090256587E+02  0.60321078931E+02  0.83914609244E+02  0.15052531399E+03  0.94565530582E+02 0.  0.
          5    1    1    2  502    0 -0.67692915851E+02  0.17182373419E+02  0.23235210487E+02  0.73753168197E+02  0.47000000000E+01 0. -1.
         -5    1    1    2    0  502  0.12602659263E+02 -0.77503452350E+02  0.42424481993E+02  0.89373031833E+02  0.47000000000E+01 0. -1.
        -11    1    3    3    0    0  0.77519863652E+02  0.59471305330E+02  0.82769209053E+02  0.12805040955E+03  0.00000000000E+00 0.  1.
         11    1    3    3    0    0 -0.22429607065E+02  0.84977360070E+00  0.11454001909E+01  0.22474904446E+02  0.00000000000E+00 0. -1.
<mgrwt>
<rscale>  0 0.14282482E+03</rscale>
<asrwt>0</asrwt>
<pdfrwt beam="2">  1        2 0.12621324E-01 0.14932837E+03</pdfrwt>
<pdfrwt beam="1">  1       -2 0.35632755E-01 0.14932837E+03</pdfrwt>
<totfact> 0.34391126E+03</totfact>
</mgrwt>
</event>
<event>
 7    1  0.1422977E-005  0.2016027E+03  0.7546771E-02  0.1148394E+00
         -2   -1    0    0    0  501 -0.00000000000E+00  0.00000000000E+00  0.11387149667E+03  0.11387149667E+03  0.00000000000E+00 0.  1.
          2   -1    0    0  501    0  0.00000000000E+00 -0.00000000000E+00 -0.89231374408E+02  0.89231374408E+02  0.00000000000E+00 0. -1.
         23    2    1    2    0    0  0.90167561962E+01 -0.88294033805E+01  0.14529338201E+02  0.77065283199E+02  0.74623695631E+02 0.  0.
          5    1    1    2  502    0  0.22781126769E+02 -0.41050353445E+02  0.37894131628E+02  0.60515836494E+02  0.47000000000E+01 0. -1.
         -5    1    1    2    0  502 -0.31797882965E+02  0.49879756825E+02 -0.27783347569E+02  0.65521751382E+02  0.47000000000E+01 0. -1.
        -11    1    3    3    0    0  0.33268438889E+02 -0.17345907774E+02 -0.12709929176E+02  0.39613278610E+02  0.00000000000E+00 0. -1.
         11    1    3    3    0    0 -0.24251682692E+02  0.85165043936E+01  0.27239267377E+02  0.37452004589E+02  0.00000000000E+00 0.  1.
<mgrwt>
<rscale>  0 0.20160268E+03</rscale>
<asrwt>0</asrwt>
<pdfrwt beam="2">  1        2 0.13727904E-01 0.20160268E+03</pdfrwt>
<pdfrwt beam="1">  1       -2 0.17518692E-01 0.20160268E+03</pdfrwt>
<totfact> 0.11065441E+04</totfact>
</mgrwt>
</event>
<event>
 7    1  0.1422977E-005  0.1734488E+03  0.7546771E-02  0.1180291E+00
          2   -1    0    0  501    0  0.00000000000E+00  0.00000000000E+00  0.62743392953E+03  0.62743392953E+03  0.00000000000E+00 0. -1.
         -2   -1    0    0    0  501 -0.00000000000E+00 -0.00000000000E+00 -0.47644287173E+02  0.47644287173E+02  0.00000000000E+00 0.  1.
         23    2    1    2    0    0  0.86903415390E+02 -0.83109324023E+02  0.15738815826E+03  0.21845199304E+03  0.92145957893E+02 0.  0.
          5    1    1    2  502    0 -0.75470605983E+02  0.46933735949E+02  0.10816407197E+03  0.14007192582E+03  0.47000000000E+01 0.  1.
         -5    1    1    2    0  502 -0.11432809406E+02  0.36175588074E+02  0.31423741213E+03  0.31655429785E+03  0.47000000000E+01 0.  1.
        -11    1    3    3    0    0  0.36954406460E+02  0.10881670972E+02  0.16576799849E+02  0.41938397838E+02  0.00000000000E+00 0.  1.
         11    1    3    3    0    0  0.49949008930E+02 -0.93990994995E+02  0.14081135841E+03  0.17651359520E+03  0.00000000000E+00 0. -1.
<mgrwt>
<rscale>  0 0.16767832E+03</rscale>
<asrwt>0</asrwt>
<pdfrwt beam="1">  1        2 0.96528291E-01 0.17344882E+03</pdfrwt>
<pdfrwt beam="2">  1       -2 0.73298908E-02 0.17344882E+03</pdfrwt>
<totfact> 0.50783998E+03</totfact>
</mgrwt>
</event>
<event>
 7    1  0.1422977E-005  0.1351320E+03  0.7546771E-02  0.1233007E+00
         -1   -1    0    0    0  501 -0.00000000000E+00  0.00000000000E+00  0.56109501670E+02  0.56109501670E+02  0.00000000000E+00 0.  1.
          1   -1    0    0  501    0  0.00000000000E+00 -0.00000000000E+00 -0.25480117315E+03  0.25480117315E+03  0.00000000000E+00 0. -1.
         23    2    1    2    0    0  0.10321001476E+02 -0.50195296149E+02 -0.73587283890E+02  0.12675918096E+03  0.89591912474E+02 0.  0.
          5    1    1    2  502    0 -0.30466793310E+02  0.21803368597E+02  0.14310160797E+02  0.40379240691E+02  0.47000000000E+01 0.  1.
         -5    1    1    2    0  502  0.20145791834E+02  0.28391927552E+02 -0.13941454839E+03  0.14377225317E+03  0.47000000000E+01 0.  1.
        -11    1    3    3    0    0  0.21987142241E+02 -0.72618744343E+02 -0.43485336427E+02  0.87452220887E+02  0.00000000000E+00 0.  1.
         11    1    3    3    0    0 -0.11666140765E+02  0.22423448194E+02 -0.30101947464E+02  0.39306960075E+02  0.00000000000E+00 0. -1.
<mgrwt>
<rscale>  0 0.12632860E+03</rscale>
<asrwt>0</asrwt>
<pdfrwt beam="2">  1        1 0.39200181E-01 0.13513203E+03</pdfrwt>
<pdfrwt beam="1">  1       -1 0.86322310E-02 0.13513203E+03</pdfrwt>
<totfact> 0.78308186E+03</totfact>
</mgrwt>
</event>
<event>
 7    1  0.1422977E-005  0.1756219E+03  0.7546771E-02  0.1180113E+00
          1   -1    0    0  501    0  0.00000000000E+00  0.00000000000E+00  0.55498776308E+03  0.55498776308E+03  0.00000000000E+00 0. -1.
         -1   -1    0    0    0  501 -0.00000000000E+00 -0.00000000000E+00 -0.59433786273E+02  0.59433786273E+02  0.00000000000E+00 0.  1.
         23    2    1    2    0    0  0.11086234558E+03  0.53764640490E+02  0.88694459061E+02  0.17127629209E+03  0.79295428167E+02 0.  0.
          5    1    1    2  502    0 -0.83711444278E+02 -0.91789147925E+02  0.33479574620E+03  0.35713181775E+03  0.47000000000E+01 0. -1.
         -5    1    1    2    0  502 -0.27150901302E+02  0.38024507435E+02  0.72063771545E+02  0.86013439511E+02  0.47000000000E+01 0. -1.
        -11    1    3    3    0    0 -0.12589159957E+00  0.16789509957E+02  0.42151500991E+02  0.45372376277E+02  0.00000000000E+00 0. -1.
         11    1    3    3    0    0  0.11098823718E+03  0.36975130532E+02  0.46542958070E+02  0.12590391581E+03  0.00000000000E+00 0.  1.
<mgrwt>
<rscale>  0 0.16784567E+03</rscale>
<asrwt>0</asrwt>
<pdfrwt beam="1">  1        1 0.85382729E-01 0.17562190E+03</pdfrwt>
<pdfrwt beam="2">  1       -1 0.91436598E-02 0.17562190E+03</pdfrwt>
<totfact> 0.27060059E+03</totfact>
</mgrwt>
</event>
<event>
 7    1  0.1422977E-005  0.1525067E+03  0.7546771E-02  0.1206011E+00
         -1   -1    0    0    0  501 -0.00000000000E+00  0.00000000000E+00  0.40526435682E+02  0.40526435682E+02  0.00000000000E+00 0.  1.
          1   -1    0    0  501    0  0.00000000000E+00 -0.00000000000E+00 -0.48772374017E+03  0.48772374017E+03  0.00000000000E+00 0. -1.
         23    2    1    2    0    0  0.11785410332E+02 -0.86567576198E+02 -0.17154485872E+03  0.21322230080E+03  0.91669350708E+02 0.  0.
          5    1    1    2  502    0  0.37688383515E+02  0.87601318840E+02 -0.22319577659E+03  0.24276089059E+03  0.47000000000E+01 0. -1.
         -5    1    1    2    0  502 -0.49473793847E+02 -0.10337426422E+01 -0.52456669182E+02  0.72266984462E+02  0.47000000000E+01 0. -1.
        -11    1    3    3    0    0  0.58666792721E+01 -0.10547219605E+03 -0.13264145991E+03  0.16956579535E+03  0.00000000000E+00 0. -1.
         11    1    3    3    0    0  0.59187310603E+01  0.18904619853E+02 -0.38903398805E+02  0.43656505446E+02  0.00000000000E+00 0.  1.
<mgrwt>
<rscale>  0 0.14558079E+03</rscale>
<asrwt>0</asrwt>
<pdfrwt beam="2">  1        1 0.75034421E-01 0.15250669E+03</pdfrwt>
<pdfrwt beam="1">  1       -1 0.62348363E-02 0.15250669E+03</pdfrwt>
<totfact> 0.56949102E+03</totfact>
</mgrwt>
</event>
<event>
 7    1  0.1422977E-005  0.1406215E+03  0.7546771E-02  0.1223184E+00
          1   -1    0    0  501    0  0.00000000000E+00  0.00000000000E+00  0.10723353493E+04  0.10723353493E+04  0.00000000000E+00 0. -1.
         -1   -1    0    0    0  501 -0.00000000000E+00 -0.00000000000E+00 -0.14954439862E+02  0.14954439862E+02  0.00000000000E+00 0.  1.
         23    2    1    2    0    0 -0.53712518573E+02  0.35564733973E+02  0.49941839633E+03  0.51187986775E+03  0.91936823172E+02 0.  0.
          5    1    1    2  502    0  0.19560300184E+02 -0.53941344472E+02  0.51139759603E+03  0.51462789004E+03  0.47000000000E+01 0. -1.
         -5    1    1    2    0  502  0.34152218388E+02  0.18376610499E+02  0.46564917043E+02  0.60782031337E+02  0.47000000000E+01 0. -1.
        -11    1    3    3    0    0  0.24865496927E+02  0.12139579803E+02  0.83793264271E+02  0.88243829657E+02  0.00000000000E+00 0.  1.
         11    1    3    3    0    0 -0.78578015499E+02  0.23425154170E+02  0.41562513206E+03  0.42363603809E+03  0.00000000000E+00 0. -1.
<mgrwt>
<rscale>  0 0.13292140E+03</rscale>
<asrwt>0</asrwt>
<pdfrwt beam="1">  1        1 0.16497461E+00 0.14062152E+03</pdfrwt>
<pdfrwt beam="2">  1       -1 0.23006839E-02 0.14062152E+03</pdfrwt>
<totfact> 0.76667496E+03</totfact>
</mgrwt>
</event>
<event>
 7    1  0.1422977E-005  0.1650192E+03  0.7546771E-02  0.1190576E+00
         -2   -1    0    0    0  501 -0.00000000000E+00  0.00000000000E+00  0.50947418235E+02  0.50947418235E+02  0.00000000000E+00 0.  1.
          2   -1    0    0  501    0  0.00000000000E+00 -0.00000000000E+00 -0.60482257795E+03  0.60482257795E+03  0.00000000000E+00 0. -1.
         23    2    1    2    0    0  0.19417368504E+02 -0.10596840056E+03 -0.97638798122E+02  0.17060719495E+03  0.89258859243E+02 0.  0.
          5    1    1    2  502    0  0.52106954565E+02  0.36131551573E+02 -0.20841869394E+03  0.21790150462E+03  0.47000000000E+01 0. -1.
         -5    1    1    2    0  502 -0.71524323069E+02  0.69836848985E+02 -0.24781766765E+03  0.26726129661E+03  0.47000000000E+01 0. -1.
        -11    1    3    3    0    0  0.29935470751E+02 -0.10756553137E+03 -0.10829808119E+03  0.15554726078E+03  0.00000000000E+00 0. -1.
         11    1    3    3    0    0 -0.10518102247E+02  0.15971308138E+01  0.10659283063E+02  0.15059934168E+02  0.00000000000E+00 0.  1.
<mgrwt>
<rscale>  0 0.15834680E+03</rscale>
<asrwt>0</asrwt>
<pdfrwt beam="2">  1        2 0.93049628E-01 0.16501917E+03</pdfrwt>
<pdfrwt beam="1">  1       -2 0.78380643E-02 0.16501917E+03</pdfrwt>
<totfact> 0.47663771E+03</totfact>
</mgrwt>
</event>
<event>
 7    1  0.1422977E-005  0.1388625E+03  0.7546771E-02  0.1225935E+00
          1   -1    0    0  501    0  0.00000000000E+00  0.00000000000E+00  0.80900755365E+03  0.80900755365E+03  0.00000000000E+00 0. -1.
         -1   -1    0    0    0  501 -0.00000000000E+00 -0.00000000000E+00 -0.20598395937E+02  0.20598395937E+02  0.00000000000E+00 0.  1.
         23    2    1    2    0    0  0.48218063955E+02  0.36499324290E+02  0.24259505035E+03  0.26640453776E+03  0.91988243394E+02 0.  0.
          5    1    1    2  502    0 -0.42926098860E+02  0.47388431501E+01  0.52618619216E+02  0.68234270612E+02  0.47000000000E+01 0. -1.
         -5    1    1    2    0  502 -0.52919650955E+01 -0.41238167440E+02  0.49319548815E+03  0.49496714121E+03  0.47000000000E+01 0. -1.
        -11    1    3    3    0    0 -0.14856805332E+02 -0.27609333608E+00  0.20224042473E+01  0.14996366598E+02  0.00000000000E+00 0.  1.
         11    1    3    3    0    0  0.63074869287E+02  0.36775417626E+02  0.24057264610E+03  0.25140817116E+03  0.00000000000E+00 0. -1.
<mgrwt>
<rscale>  0 0.13103042E+03</rscale>
<asrwt>0</asrwt>
<pdfrwt beam="1">  1        1 0.12446268E+00 0.13886249E+03</pdfrwt>
<pdfrwt beam="2">  1       -1 0.31689846E-02 0.13886249E+03</pdfrwt>
<totfact> 0.76098124E+03</totfact>
</mgrwt>
</event>
<event>
 7    1  0.1422977E-005  0.1358717E+03  0.7546771E-02  0.1230825E+00
         -1   -1    0    0    0  501 -0.00000000000E+00  0.00000000000E+00  0.32506643537E+02  0.32506643537E+02  0.00000000000E+00 0.  1.
          1   -1    0    0  501    0  0.00000000000E+00 -0.00000000000E+00 -0.77832651031E+03  0.77832651031E+03  0.00000000000E+00 0. -1.
         23    2    1    2    0    0 -0.48690116513E+02 -0.21604516743E+02 -0.84544709285E+02  0.13574356338E+03  0.91875048521E+02 0.  0.
          5    1    1    2  502    0 -0.28333166305E+02 -0.29014310646E+02 -0.27058863674E+03  0.27365105311E+03  0.47000000000E+01 0.  1.
         -5    1    1    2    0  502  0.77023282819E+02  0.50618827389E+02 -0.39068652075E+03  0.40143853736E+03  0.47000000000E+01 0.  1.
        -11    1    3    3    0    0 -0.12165735516E+02  0.25192119094E+02  0.48905444812E+01  0.28400095253E+02  0.00000000000E+00 0.  1.
         11    1    3    3    0    0 -0.36524380998E+02 -0.46796635837E+02 -0.89435253766E+02  0.10734346813E+03  0.00000000000E+00 0. -1.
<mgrwt>
<rscale>  0 0.12775510E+03</rscale>
<asrwt>0</asrwt>
<pdfrwt beam="2">  1        1 0.11974255E+00 0.13587171E+03</pdfrwt>
<pdfrwt beam="1">  1       -1 0.50010218E-02 0.13587171E+03</pdfrwt>
<totfact> 0.41223461E+03</totfact>
</mgrwt>
</event>
<event>
 7    1  0.1422977E-005  0.1671141E+03  0.7546771E-02  0.1187336E+00
          2   -1    0    0  501    0  0.00000000000E+00  0.00000000000E+00  0.90234069652E+03  0.90234069652E+03  0.00000000000E+00 0. -1.
         -2   -1    0    0    0  501 -0.00000000000E+00 -0.00000000000E+00 -0.35485903752E+02  0.35485903752E+02  0.00000000000E+00 0.  1.
         23    2    1    2    0    0  0.11084698570E+03 -0.39264333844E+01  0.18015984834E+03  0.23108968130E+03  0.92964502533E+02 0.  0.
          5    1    1    2  502    0  0.22729127082E+02  0.11669895203E+02  0.20990124383E+03  0.21150277027E+03  0.47000000000E+01 0. -1.
         -5    1    1    2    0  502 -0.13357611278E+03 -0.77434618184E+01  0.47679370060E+03  0.49523414870E+03  0.47000000000E+01 0. -1.
        -11    1    3    3    0    0  0.65214888591E+02  0.22296562970E+02  0.16091107486E+03  0.17504997123E+03  0.00000000000E+00 0. -1.
         11    1    3    3    0    0  0.45632097112E+02 -0.26222996355E+02  0.19248773482E+02  0.56039710074E+02  0.00000000000E+00 0.  1.
<mgrwt>
<rscale>  0 0.16121095E+03</rscale>
<asrwt>0</asrwt>
<pdfrwt beam="1">  1        2 0.13882163E+00 0.16711411E+03</pdfrwt>
<pdfrwt beam="2">  1       -2 0.54593705E-02 0.16711411E+03</pdfrwt>
<totfact> 0.50864521E+03</totfact>
</mgrwt>
</event>
<event>
 7    1  0.1422977E-005  0.1495006E+03  0.7546771E-02  0.1216005E+00
         -2   -1    0    0    0  501 -0.00000000000E+00  0.00000000000E+00  0.18202600735E+03  0.18202600735E+03  0.00000000000E+00 0. -1.
          2   -1    0    0  501    0  0.00000000000E+00 -0.00000000000E+00 -0.96389552704E+02  0.96389552704E+02  0.00000000000E+00 0.  1.
         23    2    1    2    0    0  0.42498289082E+02  0.70140936153E+02  0.67308929000E+02  0.12779577351E+03  0.71241927992E+02 0.  0.
          5    1    1    2  502    0 -0.12899240824E+02 -0.10334688189E+03  0.70695733307E+01  0.10449419733E+03  0.47000000000E+01 0.  1.
         -5    1    1    2    0  502 -0.29599048258E+02  0.33205945734E+02  0.11257952316E+02  0.46125589213E+02  0.47000000000E+01 0.  1.
        -11    1    3    3    0    0  0.34932822381E+02  0.26708442641E+01  0.45306217776E+01  0.35326505945E+02  0.00000000000E+00 0.  1.
         11    1    3    3    0    0  0.75654667012E+01  0.67470091889E+02  0.62778307222E+02  0.92469267563E+02  0.00000000000E+00 0. -1.
<mgrwt>
<rscale>  0 0.13802992E+03</rscale>
<asrwt>0</asrwt>
<pdfrwt beam="2">  1        2 0.14829162E-01 0.14950057E+03</pdfrwt>
<pdfrwt beam="1">  1       -2 0.28004001E-01 0.14950057E+03</pdfrwt>
<totfact> 0.44014241E+03</totfact>
</mgrwt>
</event>
<event>
 7    1  0.1422977E-005  0.1545950E+03  0.7546771E-02  0.1203180E+00
          2   -1    0    0  501    0  0.00000000000E+00  0.00000000000E+00  0.20925411370E+03  0.20925411370E+03  0.00000000000E+00 0. -1.
         -2   -1    0    0    0  501 -0.00000000000E+00 -0.00000000000E+00 -0.13152409345E+03  0.13152409345E+03  0.00000000000E+00 0.  1.
         23    2    1    2    0    0 -0.85966737129E+02  0.29742294585E+02 -0.51678049853E+02  0.13916949903E+03  0.91774967417E+02 0.  0.
          5    1    1    2  502    0 -0.25402452182E+02 -0.16380038983E+02  0.39974369866E+00  0.30591502888E+02  0.47000000000E+01 0.  1.
         -5    1    1    2    0  502  0.11136918931E+03 -0.13362255602E+02  0.12900832640E+03  0.17101720523E+03  0.47000000000E+01 0.  1.
        -11    1    3    3    0    0 -0.83473742246E+02  0.42235339813E+02 -0.82523376563E+01  0.93913740477E+02  0.00000000000E+00 0. -1.
         11    1    3    3    0    0 -0.24929948836E+01 -0.12493045228E+02 -0.43425712197E+02  0.45255758555E+02  0.00000000000E+00 0.  1.
<mgrwt>
<rscale>  0 0.14781829E+03</rscale>
<asrwt>0</asrwt>
<pdfrwt beam="1">  1        2 0.32192941E-01 0.15459503E+03</pdfrwt>
<pdfrwt beam="2">  1       -2 0.20234476E-01 0.15459503E+03</pdfrwt>
<totfact> 0.32445222E+03</totfact>
</mgrwt>
</event>
<event>
 7    1  0.1422977E-005  0.1412488E+03  0.7546771E-02  0.1222337E+00
          2   -1    0    0  501    0  0.00000000000E+00  0.00000000000E+00  0.12964451415E+04  0.12964451415E+04  0.00000000000E+00 0.  1.
         -2   -1    0    0    0  501 -0.00000000000E+00 -0.00000000000E+00 -0.20409665021E+02  0.20409665021E+02  0.00000000000E+00 0. -1.
         23    2    1    2    0    0  0.16088114042E+02 -0.63783295815E+02  0.18454100314E+03  0.21625887102E+03  0.91571727167E+02 0.  0.
          5    1    1    2  502    0 -0.50497898950E+02 -0.65381922063E+01  0.66402691284E+03  0.66599295546E+03  0.47000000000E+01 0. -1.
         -5    1    1    2    0  502  0.34409784908E+02  0.70321488022E+02  0.42746756048E+03  0.43460298001E+03  0.47000000000E+01 0. -1.
        -11    1    3    3    0    0 -0.26033917533E+01  0.11922960483E+02 -0.34952371806E+01  0.12694538914E+02  0.00000000000E+00 0. -1.
         11    1    3    3    0    0  0.18691505795E+02 -0.75706256298E+02  0.18803624032E+03  0.20356433210E+03  0.00000000000E+00 0.  1.
<mgrwt>
<rscale>  0 0.13351116E+03</rscale>
<asrwt>0</asrwt>
<pdfrwt beam="1">  1        2 0.19945303E+00 0.14124882E+03</pdfrwt>
<pdfrwt beam="2">  1       -2 0.31399495E-02 0.14124882E+03</pdfrwt>
<totfact> 0.68245749E+03</totfact>
</mgrwt>
</event>
<event>
 7    1  0.1422977E-005  0.1821105E+03  0.7546771E-02  0.1171209E+00
          2   -1    0    0  501    0  0.00000000000E+00  0.00000000000E+00  0.11742841140E+04  0.11742841140E+04  0.00000000000E+00 0. -1.
         -2   -1    0    0    0  501 -0.00000000000E+00 -0.00000000000E+00 -0.25725338466E+02  0.25725338466E+02  0.00000000000E+00 0.  1.
         23    2    1    2    0    0  0.13277007890E+03  0.10971942692E+01  0.44108916860E+03  0.46947713148E+03  0.90664351504E+02 0.  0.
          5    1    1    2  502    0 -0.15515227655E+03 -0.12450972574E+02  0.63014770685E+03  0.64910359580E+03  0.47000000000E+01 0. -1.
         -5    1    1    2    0  502  0.22382197641E+02  0.11353778305E+02  0.77321900034E+02  0.81428725140E+02  0.47000000000E+01 0. -1.
        -11    1    3    3    0    0  0.31907889774E+02  0.13987687827E+01  0.22908892456E+02  0.39305054859E+02  0.00000000000E+00 0.  1.
         11    1    3    3    0    0  0.10086218913E+03 -0.30157451351E+00  0.41818027615E+03  0.43017207662E+03  0.00000000000E+00 0. -1.
<mgrwt>
<rscale>  0 0.17652529E+03</rscale>
<asrwt>0</asrwt>
<pdfrwt beam="1">  1        2 0.18065905E+00 0.18211048E+03</pdfrwt>
<pdfrwt beam="2">  1       -2 0.39577453E-02 0.18211048E+03</pdfrwt>
<totfact> 0.57018368E+03</totfact>
</mgrwt>
</event>
<event>
 7    1  0.1435818E-005  0.1826865E+03  0.7546771E-02  0.1171384E+00
          3   -1    0    0  501    0  0.00000000000E+00  0.00000000000E+00  0.10045427155E+04  0.10045427155E+04  0.00000000000E+00 0. -1.
         -3   -1    0    0    0  501 -0.00000000000E+00 -0.00000000000E+00 -0.30478963886E+02  0.30478963886E+02  0.00000000000E+00 0.  1.
         23    2    1    2    0    0  0.13320667534E+03 -0.21747113067E+01  0.34033653888E+03  0.37548809017E+03  0.86102255709E+02 0.  0.
          5    1    1    2  502    0 -0.54315376408E+02  0.18718204715E+02  0.72958165011E+02  0.92981262326E+02  0.47000000000E+01 0.  1.
         -5    1    1    2    0  502 -0.78891298929E+02 -0.16543493408E+02  0.56076904772E+03  0.56655232688E+03  0.47000000000E+01 0.  1.
        -11    1    3    3    0    0 -0.20504923401E+01 -0.19338977249E+02  0.23115517316E+02  0.30208073436E+02  0.00000000000E+00 0. -1.
         11    1    3    3    0    0  0.13525716768E+03  0.17164265943E+02  0.31722102157E+03  0.34528001674E+03  0.00000000000E+00 0.  1.
<mgrwt>
<rscale>  0 0.17634933E+03</rscale>
<asrwt>0</asrwt>
<pdfrwt beam="1">  1        3 0.15454501E+00 0.18268655E+03</pdfrwt>
<pdfrwt beam="2">  1       -3 0.46890722E-02 0.18268655E+03</pdfrwt>
<totfact> 0.19501689E+02</totfact>
</mgrwt>
</event>
<event>
 7    1  0.1422977E-005  0.1496044E+03  0.7546771E-02  0.1204057E+00
          2   -1    0    0  501    0  0.00000000000E+00  0.00000000000E+00  0.86409542612E+03  0.86409542612E+03  0.00000000000E+00 0. -1.
         -2   -1    0    0    0  501 -0.00000000000E+00 -0.00000000000E+00 -0.26007419804E+02  0.26007419804E+02  0.00000000000E+00 0.  1.
         23    2    1    2    0    0 -0.80903661644E+02 -0.14602312181E+02  0.29035730080E+03  0.32230852654E+03  0.11321128106E+03 0.  0.
          5    1    1    2  502    0  0.22217980196E+02  0.29377527832E+02  0.45775448709E+03  0.45925803013E+03  0.47000000000E+01 0.  1.
         -5    1    1    2    0  502  0.58685681448E+02 -0.14775215651E+02  0.89976218424E+02  0.10853628926E+03  0.47000000000E+01 0.  1.
        -11    1    3    3    0    0  0.75391346808E+01 -0.93996223895E+01 -0.56635138250E+01  0.13314159442E+02  0.00000000000E+00 0.  1.
         11    1    3    3    0    0 -0.88442796325E+02 -0.52026897916E+01  0.29602081463E+03  0.30899436709E+03  0.00000000000E+00 0. -1.
<mgrwt>
<rscale>  0 0.14712012E+03</rscale>
<asrwt>0</asrwt>
<pdfrwt beam="1">  1        2 0.13293774E+00 0.14960436E+03</pdfrwt>
<pdfrwt beam="2">  1       -2 0.40011422E-02 0.14960436E+03</pdfrwt>
<totfact> 0.85422974E+03</totfact>
</mgrwt>
</event>
<event>
 7    1  0.1422977E-005  0.2105277E+03  0.7546771E-02  0.1170651E+00
          1   -1    0    0  501    0  0.00000000000E+00  0.00000000000E+00  0.17190613412E+04  0.17190613412E+04  0.00000000000E+00 0. -1.
         -1   -1    0    0    0  501 -0.00000000000E+00 -0.00000000000E+00 -0.37461571945E+02  0.37461571945E+02  0.00000000000E+00 0.  1.
         23    2    1    2    0    0  0.14727918420E+02 -0.54851080066E+02  0.59930039602E+02  0.12124476300E+03  0.88786994225E+02 0.  0.
          5    1    1    2  502    0  0.88170665538E+02 -0.47844352417E+01  0.55686899545E+03  0.56384583458E+03  0.47000000000E+01 0. -1.
         -5    1    1    2    0  502 -0.10289858396E+03  0.59635515308E+02  0.10648007342E+04  0.10714323156E+04  0.47000000000E+01 0.  1.
        -11    1    3    3    0    0  0.21824925774E+02 -0.45070325085E+02  0.82000851437E+02  0.96082262800E+02  0.00000000000E+00 0. -1.
         11    1    3    3    0    0 -0.70970073543E+01 -0.97807549809E+01 -0.22070811836E+02  0.25162500203E+02  0.00000000000E+00 0.  1.
<mgrwt>
<rscale>  0 0.17708826E+03</rscale>
<asrwt>0</asrwt>
<pdfrwt beam="1">  1        1 0.26447091E+00 0.21052771E+03</pdfrwt>
<pdfrwt beam="2">  1       -1 0.57633201E-02 0.21052771E+03</pdfrwt>
<totfact> 0.73485066E+02</totfact>
</mgrwt>
</event>
<event>
 7    1  0.1422977E-005  0.1910679E+03  0.7546771E-02  0.1160811E+00
          2   -1    0    0  501    0  0.00000000000E+00  0.00000000000E+00  0.25764232587E+03  0.25764232587E+03  0.00000000000E+00 0. -1.
         -2   -1    0    0    0  501 -0.00000000000E+00 -0.00000000000E+00 -0.14072271140E+03  0.14072271140E+03  0.00000000000E+00 0.  1.
         23    2    1    2    0    0  0.11901274530E+03  0.81978835565E+02  0.50410483538E+01  0.17695194766E+03  0.10199027693E+03 0.  0.
          5    1    1    2  502    0 -0.12266850430E+03 -0.10851164959E+03  0.94513359669E+02  0.18914863256E+03  0.47000000000E+01 0. -1.
         -5    1    1    2    0  502  0.36557590040E+01  0.26532814021E+02  0.17365206450E+02  0.32264457051E+02  0.47000000000E+01 0. -1.
        -11    1    3    3    0    0  0.11047245069E+02  0.51042113208E+02  0.32267690695E+02  0.61388458256E+02  0.00000000000E+00 0. -1.
         11    1    3    3    0    0  0.10796550023E+03  0.30936722357E+02 -0.27226642341E+02  0.11556348940E+03  0.00000000000E+00 0.  1.
<mgrwt>
<rscale>  0 0.18741768E+03</rscale>
<asrwt>0</asrwt>
<pdfrwt beam="1">  1        2 0.39637281E-01 0.19106790E+03</pdfrwt>
<pdfrwt beam="2">  1       -2 0.21649648E-01 0.19106790E+03</pdfrwt>
<totfact> 0.23298872E+03</totfact>
</mgrwt>
</event>
<event>
 7    1  0.1422977E-005  0.1424855E+03  0.7546771E-02  0.1220759E+00
          2   -1    0    0  501    0  0.00000000000E+00  0.00000000000E+00  0.93705241166E+03  0.93705241166E+03  0.00000000000E+00 0. -1.
         -2   -1    0    0    0  501 -0.00000000000E+00 -0.00000000000E+00 -0.22820600190E+02  0.22820600190E+02  0.00000000000E+00 0.  1.
         23    2    1    2    0    0 -0.15603733325E+02 -0.66615862691E+02  0.18661357639E+03  0.21843494297E+03  0.90598276824E+02 0.  0.
          5    1    1    2  502    0  0.20662547961E+02 -0.29915871300E+02  0.33790929275E+03  0.33989215992E+03  0.47000000000E+01 0.  1.
         -5    1    1    2    0  502 -0.50588146358E+01  0.96531733991E+02  0.38970894233E+03  0.40154590896E+03  0.47000000000E+01 0.  1.
        -11    1    3    3    0    0  0.14148739435E+02 -0.79508851045E+02  0.12518962043E+03  0.14897746570E+03  0.00000000000E+00 0.  1.
         11    1    3    3    0    0 -0.29752472760E+02  0.12892988353E+02  0.61423955958E+02  0.69457477276E+02  0.00000000000E+00 0. -1.
<mgrwt>
<rscale>  0 0.13461895E+03</rscale>
<asrwt>0</asrwt>
<pdfrwt beam="1">  1        2 0.14416188E+00 0.14248549E+03</pdfrwt>
<pdfrwt beam="2">  1       -2 0.35108623E-02 0.14248549E+03</pdfrwt>
<totfact> 0.93022895E+03</totfact>
</mgrwt>
</event>
<event>
 7    1  0.1422977E-005  0.1262160E+03  0.7546771E-02  0.1247038E+00
         -2   -1    0    0    0  501 -0.00000000000E+00  0.00000000000E+00  0.18711381409E+02  0.18711381409E+02  0.00000000000E+00 0.  1.
          2   -1    0    0  501    0  0.00000000000E+00 -0.00000000000E+00 -0.14221361439E+04  0.14221361439E+04  0.00000000000E+00 0. -1.
         23    2    1    2    0    0 -0.44353653581E+01 -0.16890205878E+02 -0.12991073226E+03  0.16109424052E+03  0.93646166235E+02 0.  0.
          5    1    1    2  502    0 -0.27386589913E+02  0.13337230128E+02 -0.11867488679E+04  0.11871490523E+04  0.47000000000E+01 0. -1.
         -5    1    1    2    0  502  0.31821955271E+02  0.35529757501E+01 -0.86765162361E+02  0.92604232482E+02  0.47000000000E+01 0. -1.
        -11    1    3    3    0    0  0.27796659523E+02  0.11748618451E+02 -0.71940126859E+01  0.31023187049E+02  0.00000000000E+00 0.  1.
         11    1    3    3    0    0 -0.32232024881E+02 -0.28638824329E+02 -0.12271671957E+03  0.13007105347E+03  0.00000000000E+00 0. -1.
<mgrwt>
<rscale>  0 0.11764245E+03</rscale>
<asrwt>0</asrwt>
<pdfrwt beam="2">  1        2 0.21879022E+00 0.12621602E+03</pdfrwt>
<pdfrwt beam="1">  1       -2 0.28786735E-02 0.12621602E+03</pdfrwt>
<totfact> 0.66198665E+03</totfact>
</mgrwt>
</event>
<event>
 7    1  0.1422977E-005  0.1267902E+03  0.7546771E-02  0.1247213E+00
         -1   -1    0    0    0  501 -0.00000000000E+00  0.00000000000E+00  0.71344857623E+02  0.71344857623E+02  0.00000000000E+00 0.  1.
          1   -1    0    0  501    0  0.00000000000E+00 -0.00000000000E+00 -0.17128485084E+03  0.17128485084E+03  0.00000000000E+00 0. -1.
         23    2    1    2    0    0  0.28706129435E+01 -0.20998525112E+02 -0.33251641350E+02  0.99370859984E+02  0.91212486459E+02 0.  0.
          5    1    1    2  502    0 -0.42798050008E+02  0.53250445030E+02 -0.14674357418E+02  0.70033632963E+02  0.47000000000E+01 0.  1.
         -5    1    1    2    0  502  0.39927437064E+02 -0.32251919918E+02 -0.52013994455E+02  0.73225215521E+02  0.47000000000E+01 0.  1.
        -11    1    3    3    0    0  0.22445701856E+02 -0.40481071069E+02  0.10657263709E+02  0.47498462253E+02  0.00000000000E+00 0.  1.
         11    1    3    3    0    0 -0.19575088912E+02  0.19482545957E+02 -0.43908905059E+02  0.51872397731E+02  0.00000000000E+00 0. -1.
<mgrwt>
<rscale>  0 0.11753912E+03</rscale>
<asrwt>0</asrwt>
<pdfrwt beam="2">  1        1 0.26351515E-01 0.12679023E+03</pdfrwt>
<pdfrwt beam="1">  1       -1 0.10976132E-01 0.12679023E+03</pdfrwt>
<totfact> 0.88485437E+03</totfact>
</mgrwt>
</event>
<event>
 7    1  0.1422977E-005  0.1688994E+03  0.7546771E-02  0.1185353E+00
         -1   -1    0    0    0  501 -0.00000000000E+00  0.00000000000E+00  0.20151522100E+02  0.20151522100E+02  0.00000000000E+00 0.  1.
          1   -1    0    0  501    0  0.00000000000E+00 -0.00000000000E+00 -0.12341635944E+04  0.12341635944E+04  0.00000000000E+00 0. -1.
         23    2    1    2    0    0  0.28276691713E+02  0.11159583387E+03 -0.56699672857E+03  0.58561797743E+03  0.90608630116E+02 0.  0.
          5    1    1    2  502    0 -0.61493265753E+02 -0.12675052371E+02 -0.28758841792E+03  0.29439984173E+03  0.47000000000E+01 0. -1.
         -5    1    1    2    0  502  0.33216574040E+02 -0.98920781496E+02 -0.35942692585E+03  0.37429729739E+03  0.47000000000E+01 0. -1.
        -11    1    3    3    0    0 -0.32553622693E+02  0.48870234945E+02 -0.24954632922E+03  0.25636187049E+03  0.00000000000E+00 0. -1.
         11    1    3    3    0    0  0.60830314406E+02  0.62725598922E+02 -0.31745039934E+03  0.32925610694E+03  0.00000000000E+00 0.  1.
<mgrwt>
<rscale>  0 0.16299816E+03</rscale>
<asrwt>0</asrwt>
<pdfrwt beam="2">  1        1 0.18987138E+00 0.16889940E+03</pdfrwt>
<pdfrwt beam="1">  1       -1 0.31002333E-02 0.16889940E+03</pdfrwt>
<totfact> 0.38550143E+03</totfact>
</mgrwt>
</event>
<event>
 7    1  0.1422977E-005  0.1348296E+03  0.7546771E-02  0.1235294E+00
         -2   -1    0    0    0  501 -0.00000000000E+00  0.00000000000E+00  0.69102733982E+02  0.69102733982E+02  0.00000000000E+00 0.  1.
          2   -1    0    0  501    0  0.00000000000E+00 -0.00000000000E+00 -0.20163104430E+03  0.20163104430E+03  0.00000000000E+00 0. -1.
         23    2    1    2    0    0  0.72922299371E+01 -0.35769930035E+02 -0.38531382594E+02  0.10637304775E+03  0.92184018847E+02 0.  0.
          5    1    1    2  502    0  0.41002750236E+02  0.62845691237E+02 -0.33785819650E+02  0.82428017345E+02  0.47000000000E+01 0. -1.
         -5    1    1    2    0  502 -0.48294980173E+02 -0.27075761202E+02 -0.60211108075E+02  0.81932713187E+02  0.47000000000E+01 0.  1.
        -11    1    3    3    0    0 -0.12203807014E+02  0.96501747898E+01 -0.52705060712E+02  0.54953454885E+02  0.00000000000E+00 0. -1.
         11    1    3    3    0    0  0.19496036951E+02 -0.45420104825E+02  0.14173678118E+02  0.51419592866E+02  0.00000000000E+00 0.  1.
<mgrwt>
<rscale>  0 0.12485653E+03</rscale>
<asrwt>0</asrwt>
<pdfrwt beam="2">  1        2 0.31020160E-01 0.13482962E+03</pdfrwt>
<pdfrwt beam="1">  1       -2 0.10631190E-01 0.13482962E+03</pdfrwt>
<totfact> 0.95884468E+03</totfact>
</mgrwt>
</event>
<event>
 7    1  0.1422977E-005  0.2222222E+03  0.7546771E-02  0.1135311E+00
         -2   -1    0    0    0  501 -0.00000000000E+00  0.00000000000E+00  0.11600267940E+03  0.11600267940E+03  0.00000000000E+00 0. -1.
          2   -1    0    0  501    0  0.00000000000E+00 -0.00000000000E+00 -0.41357154191E+03  0.41357154191E+03  0.00000000000E+00 0.  1.
         23    2    1    2    0    0 -0.17774189071E+03  0.46489390701E+02 -0.88156693372E+02  0.22422825128E+03  0.93558874105E+02 0.  0.
          5    1    1    2  502    0  0.67762306172E+02 -0.50998951684E+02 -0.16687245129E+03  0.18724617008E+03  0.47000000000E+01 0. -1.
         -5    1    1    2    0  502  0.10997958454E+03  0.45095609830E+01 -0.42539717848E+02  0.11809979996E+03  0.47000000000E+01 0. -1.
        -11    1    3    3    0    0  0.44393367480E+00  0.25572234006E+02 -0.33835891619E+01  0.25798932241E+02  0.00000000000E+00 0. -1.
         11    1    3    3    0    0 -0.17818582438E+03  0.20917156696E+02 -0.84773104210E+02  0.19842931904E+03  0.00000000000E+00 0.  1.
<mgrwt>
<rscale>  0 0.21809603E+03</rscale>
<asrwt>0</asrwt>
<pdfrwt beam="2">  1        2 0.63626391E-01 0.22222220E+03</pdfrwt>
<pdfrwt beam="1">  1       -2 0.17846566E-01 0.22222220E+03</pdfrwt>
<totfact> 0.19536361E+03</totfact>
</mgrwt>
</event>
<event>
 7    1  0.1422977E-005  0.2406430E+03  0.7546771E-02  0.1121510E+00
         -1   -1    0    0    0  501 -0.00000000000E+00  0.00000000000E+00  0.39037007526E+03  0.39037007526E+03  0.00000000000E+00 0.  1.
          1   -1    0    0  501    0  0.00000000000E+00 -0.00000000000E+00 -0.20574273351E+03  0.20574273351E+03  0.00000000000E+00 0. -1.
         23    2    1    2    0    0  0.16138566053E+03  0.13291330658E+03  0.25816248058E+03  0.34448518553E+03  0.91164127723E+02 0.  0.
          5    1    1    2  502    0 -0.68195191430E+02 -0.10439863492E+03 -0.88410011035E+02  0.15293161596E+03  0.47000000000E+01 0. -1.
         -5    1    1    2    0  502 -0.93190469097E+02 -0.28514671659E+02  0.14874872215E+02  0.98696007284E+02  0.47000000000E+01 0.  1.
        -11    1    3    3    0    0  0.11268095557E+03  0.13337885150E+03  0.16961610730E+03  0.24342666171E+03  0.00000000000E+00 0.  1.
         11    1    3    3    0    0  0.48704704960E+02 -0.46554491515E+00  0.88546373276E+02  0.10105852383E+03  0.00000000000E+00 0. -1.
<mgrwt>
<rscale>  0 0.23743977E+03</rscale>
<asrwt>0</asrwt>
<pdfrwt beam="2">  1        1 0.31652728E-01 0.24064298E+03</pdfrwt>
<pdfrwt beam="1">  1       -1 0.60056935E-01 0.24064298E+03</pdfrwt>
<totfact> 0.41274932E+02</totfact>
</mgrwt>
</event>
<event>
 7    1  0.1422977E-005  0.1173172E+03  0.7546771E-02  0.1258224E+00
          1   -1    0    0  501    0  0.00000000000E+00  0.00000000000E+00  0.86337422655E+02  0.86337422655E+02  0.00000000000E+00 0. -1.
         -1   -1    0    0    0  501 -0.00000000000E+00 -0.00000000000E+00 -0.15728658975E+03  0.15728658975E+03  0.00000000000E+00 0.  1.
         23    2    1    2    0    0 -0.25645947465E+02 -0.28155383669E+01 -0.82432245459E+02  0.12574616836E+03  0.91385895455E+02 0.  0.
          5    1    1    2  502    0  0.22401038556E+01 -0.53319354968E+02  0.18033576830E+02  0.56526733258E+02  0.47000000000E+01 0. -1.
         -5    1    1    2    0  502  0.23405843609E+02  0.56134893335E+02 -0.65504984668E+01  0.61351110788E+02  0.47000000000E+01 0.  1.
        -11    1    3    3    0    0 -0.49131219939E+01  0.31888392037E+02 -0.78809991852E+02  0.85158811231E+02  0.00000000000E+00 0.  1.
         11    1    3    3    0    0 -0.20732825471E+02 -0.34703930404E+02 -0.36222536064E+01  0.40587357129E+02  0.00000000000E+00 0. -1.
<mgrwt>
<rscale>  0 0.11127668E+03</rscale>
<asrwt>0</asrwt>
<pdfrwt beam="1">  1        1 0.13282680E-01 0.11731720E+03</pdfrwt>
<pdfrwt beam="2">  1       -1 0.24197937E-01 0.11731720E+03</pdfrwt>
<totfact> 0.60545768E+03</totfact>
</mgrwt>
</event>
<event>
 7    1  0.1422977E-005  0.1370019E+03  0.7546771E-02  0.1229002E+00
         -2   -1    0    0    0  501 -0.00000000000E+00  0.00000000000E+00  0.38769666755E+02  0.38769666755E+02  0.00000000000E+00 0.  1.
          2   -1    0    0  501    0  0.00000000000E+00 -0.00000000000E+00 -0.42826283484E+03  0.42826283484E+03  0.00000000000E+00 0. -1.
         23    2    1    2    0    0  0.33678829275E+02 -0.44831892022E+02 -0.10050554872E+03  0.14721478758E+03  0.91796875076E+02 0.  0.
          5    1    1    2  502    0 -0.42779189707E+02  0.40409725986E+02 -0.29903345412E+03  0.30480502245E+03  0.47000000000E+01 0. -1.
         -5    1    1    2    0  502  0.91003604320E+01  0.44221660358E+01  0.10045834753E+02  0.15012691575E+02  0.47000000000E+01 0. -1.
        -11    1    3    3    0    0 -0.21622615244E+02 -0.66861681106E+01  0.39946528433E+01  0.22982593094E+02  0.00000000000E+00 0.  1.
         11    1    3    3    0    0  0.55301444520E+02 -0.38145723912E+02 -0.10450020157E+03  0.12423219448E+03  0.00000000000E+00 0. -1.
<mgrwt>
<rscale>  0 0.12896312E+03</rscale>
<asrwt>0</asrwt>
<pdfrwt beam="2">  1        2 0.65886590E-01 0.13700192E+03</pdfrwt>
<pdfrwt beam="1">  1       -2 0.59645641E-02 0.13700192E+03</pdfrwt>
<totfact> 0.10504628E+04</totfact>
</mgrwt>
</event>
<event>
 7    1  0.1422977E-005  0.1483480E+03  0.7546771E-02  0.1212222E+00
          1   -1    0    0  501    0  0.00000000000E+00  0.00000000000E+00  0.77231241548E+03  0.77231241548E+03  0.00000000000E+00 0. -1.
         -1   -1    0    0    0  501 -0.00000000000E+00 -0.00000000000E+00 -0.23578401630E+02  0.23578401630E+02  0.00000000000E+00 0.  1.
         23    2    1    2    0    0 -0.90037928254E+01  0.79379149718E+02  0.30066315634E+03  0.32390075028E+03  0.90173414892E+02 0.  0.
          5    1    1    2  502    0  0.19062650667E+02 -0.10332279647E+03  0.42194005966E+03  0.43484996132E+03  0.47000000000E+01 0. -1.
         -5    1    1    2    0  502 -0.10058857842E+02  0.23943646752E+02  0.26130797851E+02  0.37140105509E+02  0.47000000000E+01 0. -1.
        -11    1    3    3    0    0 -0.29122362845E+02  0.61991877868E+02  0.28483825818E+03  0.29295722940E+03  0.00000000000E+00 0.  1.
         11    1    3    3    0    0  0.20118570020E+02  0.17387271850E+02  0.15824898164E+02  0.30943520871E+02  0.00000000000E+00 0. -1.
<mgrwt>
<rscale>  0 0.14082582E+03</rscale>
<asrwt>0</asrwt>
<pdfrwt beam="1">  1        1 0.11881728E+00 0.14834800E+03</pdfrwt>
<pdfrwt beam="2">  1       -1 0.36274470E-02 0.14834800E+03</pdfrwt>
<totfact> 0.67190473E+03</totfact>
</mgrwt>
</event>
<event>
 7    1  0.1422977E-005  0.1283168E+03  0.7546771E-02  0.1244503E+00
          1   -1    0    0  501    0  0.00000000000E+00  0.00000000000E+00  0.84829916960E+03  0.84829916960E+03  0.00000000000E+00 0. -1.
         -1   -1    0    0    0  501 -0.00000000000E+00 -0.00000000000E+00 -0.20136096575E+02  0.20136096575E+02  0.00000000000E+00 0.  1.
         23    2    1    2    0    0 -0.19980428997E+01  0.28923150394E+02  0.14666863985E+03  0.17496582667E+03  0.90888997048E+02 0.  0.
          5    1    1    2  502    0 -0.13229683070E+01 -0.74116411185E+02  0.53279299538E+03  0.53794559073E+03  0.47000000000E+01 0.  1.
         -5    1    1    2    0  502  0.33210112066E+01  0.45193260792E+02  0.14870143779E+03  0.15552384878E+03  0.47000000000E+01 0.  1.
        -11    1    3    3    0    0  0.71408923301E+01  0.38000563836E+02  0.15491756630E+03  0.15966993312E+03  0.00000000000E+00 0. -1.
         11    1    3    3    0    0 -0.91389352297E+01 -0.90774134426E+01 -0.82489264509E+01  0.15295893551E+02  0.00000000000E+00 0.  1.
<mgrwt>
<rscale>  0 0.11915187E+03</rscale>
<asrwt>0</asrwt>
<pdfrwt beam="1">  1        1 0.13050754E+00 0.12831680E+03</pdfrwt>
<pdfrwt beam="2">  1       -1 0.30978617E-02 0.12831680E+03</pdfrwt>
<totfact> 0.72841320E+03</totfact>
</mgrwt>
</event>
<event>
 7    1  0.1422977E-005  0.1297918E+03  0.7546771E-02  0.1241909E+00
         -1   -1    0    0    0  501 -0.00000000000E+00  0.00000000000E+00  0.45876822015E+02  0.45876822015E+02  0.00000000000E+00 0.  1.
          1   -1    0    0  501    0  0.00000000000E+00 -0.00000000000E+00 -0.28127379739E+03  0.28127379739E+03  0.00000000000E+00 0. -1.
         23    2    1    2    0    0 -0.29298286366E+02  0.19031038972E+02 -0.93156779087E+02  0.13459367490E+03  0.90646024765E+02 0.  0.
          5    1    1    2  502    0 -0.99102669393E+01 -0.41897536219E+02 -0.14035602926E+03  0.14688608471E+03  0.47000000000E+01 0.  1.
         -5    1    1    2    0  502  0.39208553305E+02  0.22866497247E+02 -0.18841670283E+01  0.45670859791E+02  0.47000000000E+01 0.  1.
        -11    1    3    3    0    0  0.31568712924E+02  0.16431631111E+02 -0.27100299315E+02  0.44732631933E+02  0.00000000000E+00 0.  1.
         11    1    3    3    0    0 -0.60866999290E+02  0.25994078614E+01 -0.66056479772E+02  0.89861042971E+02  0.00000000000E+00 0. -1.
<mgrwt>
<rscale>  0 0.12072332E+03</rscale>
<asrwt>0</asrwt>
<pdfrwt beam="2">  1        1 0.43272892E-01 0.12979177E+03</pdfrwt>
<pdfrwt beam="1">  1       -1 0.70579725E-02 0.12979177E+03</pdfrwt>
<totfact> 0.93586718E+03</totfact>
</mgrwt>
</event>
<event>
 7    1  0.1422977E-005  0.1265548E+03  0.7546771E-02  0.1248410E+00
         -2   -1    0    0    0  501 -0.00000000000E+00  0.00000000000E+00  0.64083546453E+02  0.64083546453E+02  0.00000000000E+00 0.  1.
          2   -1    0    0  501    0  0.00000000000E+00 -0.00000000000E+00 -0.20355246735E+03  0.20355246735E+03  0.00000000000E+00 0. -1.
         23    2    1    2    0    0  0.16281789583E+02  0.11270616499E+02 -0.21037343384E+02  0.94309281032E+02  0.89774980946E+02 0.  0.
          5    1    1    2  502    0 -0.54269972289E+01  0.51672811021E+02 -0.19954201052E+02  0.55855096790E+02  0.47000000000E+01 0.  1.
         -5    1    1    2    0  502 -0.10854792354E+02 -0.62943427521E+02 -0.98477376460E+02  0.11747163598E+03  0.47000000000E+01 0.  1.
        -11    1    3    3    0    0  0.46702031462E+02 -0.10717447097E+02  0.56587984949E+01  0.48248993931E+02  0.00000000000E+00 0. -1.
         11    1    3    3    0    0 -0.30420241879E+02  0.21988063596E+02 -0.26696141879E+02  0.46060287101E+02  0.00000000000E+00 0.  1.
<mgrwt>
<rscale>  0 0.11683603E+03</rscale>
<asrwt>0</asrwt>
<pdfrwt beam="2">  1        2 0.31315764E-01 0.12655480E+03</pdfrwt>
<pdfrwt beam="1">  1       -2 0.98590073E-02 0.12655480E+03</pdfrwt>
<totfact> 0.10632323E+04</totfact>
</mgrwt>
</event>
<event>
 7    1  0.1422977E-005  0.1399312E+03  0.7546771E-02  0.1224764E+00
         -1   -1    0    0    0  501 -0.00000000000E+00  0.00000000000E+00  0.13426159789E+02  0.13426159789E+02  0.00000000000E+00 0.  1.
          1   -1    0    0  501    0  0.00000000000E+00 -0.00000000000E+00 -0.11698590434E+04  0.11698590434E+04  0.00000000000E+00 0. -1.
         23    2    1    2    0    0  0.40955141459E+02  0.47727708953E+02 -0.47332481485E+03  0.48599231000E+03  0.90536662204E+02 0.  0.
          5    1    1    2  502    0 -0.51543019294E+02 -0.39590738375E+02 -0.14466401326E+03  0.15866277489E+03  0.47000000000E+01 0.  1.
         -5    1    1    2    0  502  0.10587877835E+02 -0.81369705782E+01 -0.53844405552E+03  0.53863011833E+03  0.47000000000E+01 0.  1.
        -11    1    3    3    0    0  0.69070588599E+02  0.43320559626E+02 -0.36457719374E+03  0.37358258430E+03  0.00000000000E+00 0.  1.
         11    1    3    3    0    0 -0.28115447140E+02  0.44071493274E+01 -0.10874762111E+03  0.11240972569E+03  0.00000000000E+00 0. -1.
<mgrwt>
<rscale>  0 0.13183101E+03</rscale>
<asrwt>0</asrwt>
<pdfrwt beam="2">  1        1 0.17997838E+00 0.13993122E+03</pdfrwt>
<pdfrwt beam="1">  1       -1 0.20655623E-02 0.13993122E+03</pdfrwt>
<totfact> 0.76538230E+03</totfact>
</mgrwt>
</event>
<event>
 7    1  0.1422977E-005  0.1485290E+03  0.7546771E-02  0.1211537E+00
          1   -1    0    0  501    0  0.00000000000E+00  0.00000000000E+00  0.29315279419E+03  0.29315279419E+03  0.00000000000E+00 0. -1.
         -1   -1    0    0    0  501 -0.00000000000E+00 -0.00000000000E+00 -0.62539823529E+02  0.62539823529E+02  0.00000000000E+00 0.  1.
         23    2    1    2    0    0 -0.23777407910E+02 -0.76623154492E+02  0.93392357504E+02  0.15347893444E+03  0.91636117042E+02 0.  0.
          5    1    1    2  502    0 -0.57878743298E+01  0.30461183621E+02  0.14345452588E+03  0.14684234469E+03  0.47000000000E+01 0.  1.
         -5    1    1    2    0  502  0.29565282240E+02  0.46161970872E+02 -0.62339127297E+01  0.55371338584E+02  0.47000000000E+01 0.  1.
        -11    1    3    3    0    0  0.13892373674E+01 -0.70782715440E+02  0.16961750460E+02  0.72799888490E+02  0.00000000000E+00 0.  1.
         11    1    3    3    0    0 -0.25166645278E+02 -0.58404390525E+01  0.76430607045E+02  0.80679045954E+02  0.00000000000E+00 0. -1.
<mgrwt>
<rscale>  0 0.14133982E+03</rscale>
<asrwt>0</asrwt>
<pdfrwt beam="1">  1        1 0.45100429E-01 0.14852904E+03</pdfrwt>
<pdfrwt beam="2">  1       -1 0.96215115E-02 0.14852904E+03</pdfrwt>
<totfact> 0.56162536E+03</totfact>
</mgrwt>
</event>
<event>
 7    1  0.1422977E-005  0.2100141E+03  0.7546771E-02  0.1143354E+00
          2   -1    0    0  501    0  0.00000000000E+00  0.00000000000E+00  0.25011144412E+03  0.25011144412E+03  0.00000000000E+00 0.  1.
         -2   -1    0    0    0  501 -0.00000000000E+00 -0.00000000000E+00 -0.17321749651E+03  0.17321749651E+03  0.00000000000E+00 0. -1.
         23    2    1    2    0    0  0.68092811524E+02  0.15441547418E+03  0.70788980378E+02  0.21322615967E+03  0.10942369841E+03 0.  0.
          5    1    1    2  502    0 -0.42734942647E+02  0.95396730410E+01  0.70852112547E+00  0.44043985820E+02  0.47000000000E+01 0.  1.
         -5    1    1    2    0  502 -0.25357868877E+02 -0.16395514722E+03  0.53964461029E+01  0.16605879515E+03  0.47000000000E+01 0.  1.
        -11    1    3    3    0    0  0.18802388068E+02  0.69991436553E+02  0.87959267690E+02  0.11397001255E+03  0.00000000000E+00 0.  1.
         11    1    3    3    0    0  0.49290423455E+02  0.84424037629E+02 -0.17170287313E+02  0.99256147117E+02  0.00000000000E+00 0. -1.
<mgrwt>
<rscale>  0 0.20775759E+03</rscale>
<asrwt>0</asrwt>
<pdfrwt beam="1">  1        2 0.38478684E-01 0.21001407E+03</pdfrwt>
<pdfrwt beam="2">  1       -2 0.26648845E-01 0.21001407E+03</pdfrwt>
<totfact> 0.16768437E+03</totfact>
</mgrwt>
</event>
<event>
 7    1  0.1422977E-005  0.1338700E+03  0.7546771E-02  0.1233257E+00
         -2   -1    0    0    0  501 -0.00000000000E+00  0.00000000000E+00  0.92220118215E+03  0.92220118215E+03  0.00000000000E+00 0.  1.
          2   -1    0    0  501    0  0.00000000000E+00 -0.00000000000E+00 -0.16249789527E+02  0.16249789527E+02  0.00000000000E+00 0. -1.
         23    2    1    2    0    0 -0.21643964846E+02 -0.42736371059E+02  0.49870882480E+03  0.50976964496E+03  0.94126193876E+02 0.  0.
          5    1    1    2  502    0  0.54097688777E+02  0.57321093002E+02  0.36409745049E+03  0.37256047977E+03  0.47000000000E+01 0.  1.
         -5    1    1    2    0  502 -0.32453723931E+02 -0.14584721944E+02  0.43145117331E+02  0.56120846935E+02  0.47000000000E+01 0.  1.
        -11    1    3    3    0    0 -0.54374025425E+02 -0.64082382699E+01  0.21402431918E+03  0.22091629491E+03  0.00000000000E+00 0. -1.
         11    1    3    3    0    0  0.32730060579E+02 -0.36328132789E+02  0.28468450562E+03  0.28885335005E+03  0.00000000000E+00 0.  1.
<mgrwt>
<rscale>  0 0.12616652E+03</rscale>
<asrwt>0</asrwt>
<pdfrwt beam="2">  1        2 0.24999683E-02 0.13386998E+03</pdfrwt>
<pdfrwt beam="1">  1       -2 0.14187706E+00 0.13386998E+03</pdfrwt>
<totfact> 0.14157831E+03</totfact>
</mgrwt>
</event>
<event>
 7    1  0.1422977E-005  0.1297228E+03  0.7546771E-02  0.1242258E+00
         -2   -1    0    0    0  501 -0.00000000000E+00  0.00000000000E+00  0.33324170912E+02  0.33324170912E+02  0.00000000000E+00 0.  1.
          2   -1    0    0  501    0  0.00000000000E+00 -0.00000000000E+00 -0.55503424389E+03  0.55503424389E+03  0.00000000000E+00 0. -1.
         23    2    1    2    0    0  0.20878198399E+02  0.27690902938E+02 -0.72497204344E+02  0.12079002099E+03  0.90175935037E+02 0.  0.
          5    1    1    2  502    0 -0.46963307171E+02 -0.42915305383E+02 -0.42152975664E+03  0.42632933442E+03  0.47000000000E+01 0. -1.
         -5    1    1    2    0  502  0.26085108773E+02  0.15224402445E+02 -0.27683111997E+02  0.41239059389E+02  0.47000000000E+01 0. -1.
        -11    1    3    3    0    0 -0.18317659098E+02  0.41146478050E+02 -0.10549035133E+02  0.46258528219E+02  0.00000000000E+00 0.  1.
         11    1    3    3    0    0  0.39195857497E+02 -0.13455575112E+02 -0.61948169211E+02  0.74531492774E+02  0.00000000000E+00 0. -1.
<mgrwt>
<rscale>  0 0.12050995E+03</rscale>
<asrwt>0</asrwt>
<pdfrwt beam="2">  1        2 0.85389888E-01 0.12972279E+03</pdfrwt>
<pdfrwt beam="1">  1       -2 0.51267953E-02 0.12972279E+03</pdfrwt>
<totfact> 0.99011697E+03</totfact>
</mgrwt>
</event>
<event>
 7    1  0.1422977E-005  0.1296850E+03  0.7546771E-02  0.1241581E+00
          1   -1    0    0  501    0  0.00000000000E+00  0.00000000000E+00  0.39464145794E+03  0.39464145794E+03  0.00000000000E+00 0. -1.
         -1   -1    0    0    0  501 -0.00000000000E+00 -0.00000000000E+00 -0.54609043354E+02  0.54609043354E+02  0.00000000000E+00 0.  1.
         23    2    1    2    0    0 -0.84182091593E+01 -0.33507563120E+02  0.14836332432E+02  0.99149540838E+02  0.91743619160E+02 0.  0.
          5    1    1    2  502    0 -0.45347235049E+02 -0.21599392840E+02  0.16041052449E+03  0.16815627215E+03  0.47000000000E+01 0. -1.
         -5    1    1    2    0  502  0.53765444209E+02  0.55106955961E+02  0.16478555766E+03  0.18194468830E+03  0.47000000000E+01 0. -1.
        -11    1    3    3    0    0  0.29358709451E+02 -0.48316949304E+02  0.19293772266E+01  0.56570167997E+02  0.00000000000E+00 0.  1.
         11    1    3    3    0    0 -0.37776918611E+02  0.14809386184E+02  0.12906955205E+02  0.42579372841E+02  0.00000000000E+00 0. -1.
<mgrwt>
<rscale>  0 0.12092346E+03</rscale>
<asrwt>0</asrwt>
<pdfrwt beam="1">  1        1 0.60714069E-01 0.12968497E+03</pdfrwt>
<pdfrwt beam="2">  1       -1 0.84013915E-02 0.12968497E+03</pdfrwt>
<totfact> 0.47268581E+03</totfact>
</mgrwt>
</event>
<event>
 7    1  0.1422977E-005  0.1372953E+03  0.7546771E-02  0.1226279E+00
          1   -1    0    0  501    0  0.00000000000E+00  0.00000000000E+00  0.41888934414E+03  0.41888934414E+03  0.00000000000E+00 0. -1.
         -1   -1    0    0    0  501 -0.00000000000E+00 -0.00000000000E+00 -0.39021189044E+02  0.39021189044E+02  0.00000000000E+00 0.  1.
         23    2    1    2    0    0  0.45848332659E+02  0.47894632883E+02  0.12609312695E+03  0.16937673123E+03  0.91613508572E+02 0.  0.
          5    1    1    2  502    0  0.22713192994E+02 -0.61089882629E+02  0.98313740465E+02  0.11804890707E+03  0.47000000000E+01 0. -1.
         -5    1    1    2    0  502 -0.68561525653E+02  0.13195249745E+02  0.15546128768E+03  0.17048489488E+03  0.47000000000E+01 0.  1.
        -11    1    3    3    0    0  0.64997193345E+02  0.14639180092E+02  0.47214424226E+02  0.81658695749E+02  0.00000000000E+00 0.  1.
         11    1    3    3    0    0 -0.19148860686E+02  0.33255452791E+02  0.78878702724E+02  0.87718035485E+02  0.00000000000E+00 0. -1.
<mgrwt>
<rscale>  0 0.13079654E+03</rscale>
<asrwt>0</asrwt>
<pdfrwt beam="1">  1        1 0.64444511E-01 0.13729527E+03</pdfrwt>
<pdfrwt beam="2">  1       -1 0.60032601E-02 0.13729527E+03</pdfrwt>
<totfact> 0.72820691E+03</totfact>
</mgrwt>
</event>
<event>
 7    1  0.1422977E-005  0.1386096E+03  0.7546771E-02  0.1227729E+00
         -4   -1    0    0    0  501 -0.00000000000E+00  0.00000000000E+00  0.10914794037E+03  0.10914794037E+03  0.00000000000E+00 0.  1.
          4   -1    0    0  501    0  0.00000000000E+00 -0.00000000000E+00 -0.21768272735E+03  0.21768272735E+03  0.00000000000E+00 0. -1.
         23    2    1    2    0    0  0.16147597242E+02 -0.54645791178E+02  0.48688838768E+02  0.11723133030E+03  0.90142522673E+02 0.  0.
          5    1    1    2  502    0 -0.32542968908E+02  0.74378363504E+02 -0.16364592460E+03  0.18273824017E+03  0.47000000000E+01 0. -1.
         -5    1    1    2    0  502  0.16395371666E+02 -0.19732572326E+02  0.64222988517E+01  0.26861097245E+02  0.47000000000E+01 0.  1.
        -11    1    3    3    0    0  0.28814944506E+02 -0.98214414267E+01 -0.18389728226E+02  0.35566049019E+02  0.00000000000E+00 0.  1.
         11    1    3    3    0    0 -0.12667347264E+02 -0.44824349752E+02  0.67078566994E+02  0.81665281285E+02  0.00000000000E+00 0. -1.
<mgrwt>
<rscale>  0 0.12981572E+03</rscale>
<asrwt>0</asrwt>
<pdfrwt beam="2">  1        4 0.33489650E-01 0.13860957E+03</pdfrwt>
<pdfrwt beam="1">  1       -4 0.16791991E-01 0.13860957E+03</pdfrwt>
<totfact> 0.44312466E+02</totfact>
</mgrwt>
</event>
<event>
 7    1  0.1422977E-005  0.1375671E+03  0.7546771E-02  0.1228105E+00
          1   -1    0    0  501    0  0.00000000000E+00  0.00000000000E+00  0.36339793327E+03  0.36339793327E+03  0.00000000000E+00 0. -1.
         -1   -1    0    0    0  501 -0.00000000000E+00 -0.00000000000E+00 -0.43478310674E+02  0.43478310674E+02  0.00000000000E+00 0.  1.
         23    2    1    2    0    0 -0.52147222641E+02  0.24096563040E+02  0.99349004779E+02  0.14692220533E+03  0.91738391578E+02 0.  0.
          5    1    1    2  502    0  0.13006016503E+02  0.38298977172E+00 -0.14679227822E+02  0.20171090102E+02  0.47000000000E+01 0. -1.
         -5    1    1    2    0  502  0.39141206138E+02 -0.24479552811E+02  0.23524984564E+03  0.23978294851E+03  0.47000000000E+01 0. -1.
        -11    1    3    3    0    0 -0.64871066204E+02 -0.10157876075E+02  0.85592492305E+02  0.10787730260E+03  0.00000000000E+00 0. -1.
         11    1    3    3    0    0  0.12723843563E+02  0.34254439114E+02  0.13756512474E+02  0.39044902733E+02  0.00000000000E+00 0.  1.
<mgrwt>
<rscale>  0 0.12956357E+03</rscale>
<asrwt>0</asrwt>
<pdfrwt beam="1">  1        1 0.55907372E-01 0.13756709E+03</pdfrwt>
<pdfrwt beam="2">  1       -1 0.66889711E-02 0.13756709E+03</pdfrwt>
<totfact> 0.74102403E+03</totfact>
</mgrwt>
</event>
<event>
 7    1  0.1422977E-005  0.1921596E+03  0.7546771E-02  0.1160476E+00
          2   -1    0    0  501    0  0.00000000000E+00  0.00000000000E+00  0.22952378630E+03  0.22952378630E+03  0.00000000000E+00 0. -1.
         -2   -1    0    0    0  501 -0.00000000000E+00 -0.00000000000E+00 -0.17681902710E+03  0.17681902710E+03  0.00000000000E+00 0.  1.
         23    2    1    2    0    0  0.81580486434E+02  0.12101549110E+03 -0.57978408667E+02  0.18458601600E+03  0.97007095506E+02 0.  0.
          5    1    1    2  502    0 -0.22610708156E+01 -0.10993352574E+03  0.79112026195E+02  0.13554075111E+03  0.47000000000E+01 0.  1.
         -5    1    1    2    0  502 -0.79319415618E+02 -0.11081965363E+02  0.31571141680E+02  0.86216046287E+02  0.47000000000E+01 0.  1.
        -11    1    3    3    0    0  0.96101036944E+02  0.65457483280E+02 -0.50153201703E+02  0.12663109831E+03  0.00000000000E+00 0.  1.
         11    1    3    3    0    0 -0.14520550510E+02  0.55558007821E+02 -0.78252069641E+01  0.57954917688E+02  0.00000000000E+00 0. -1.
<mgrwt>
<rscale>  0 0.18778350E+03</rscale>
<asrwt>0</asrwt>
<pdfrwt beam="1">  1        2 0.35311352E-01 0.19215960E+03</pdfrwt>
<pdfrwt beam="2">  1       -2 0.27202927E-01 0.19215960E+03</pdfrwt>
<totfact> 0.17694046E+03</totfact>
</mgrwt>
</event>
<event>
 7    1  0.1422977E-005  0.1402305E+03  0.7546771E-02  0.1228287E+00
          1   -1    0    0  501    0  0.00000000000E+00  0.00000000000E+00  0.32402209800E+03  0.32402209800E+03  0.00000000000E+00 0. -1.
         -1   -1    0    0    0  501 -0.00000000000E+00 -0.00000000000E+00 -0.58262103036E+02  0.58262103036E+02  0.00000000000E+00 0.  1.
         23    2    1    2    0    0  0.17572701794E+02  0.61100603848E+02  0.26892156411E+02  0.10529602456E+03  0.79510886503E+02 0.  0.
          5    1    1    2  502    0 -0.11176709360E+02 -0.96967173552E+02  0.20465572863E+03  0.22678978998E+03  0.47000000000E+01 0. -1.
         -5    1    1    2    0  502 -0.63959924333E+01  0.35866569703E+02  0.34212109925E+02  0.50198386498E+02  0.47000000000E+01 0. -1.
        -11    1    3    3    0    0 -0.31547168690E+02  0.18333511285E+02  0.66052597560E+01  0.37080600654E+02  0.00000000000E+00 0.  1.
         11    1    3    3    0    0  0.49119870484E+02  0.42767092563E+02  0.20286896655E+02  0.68215423905E+02  0.00000000000E+00 0. -1.
<mgrwt>
<rscale>  0 0.12944141E+03</rscale>
<asrwt>0</asrwt>
<pdfrwt beam="1">  1        1 0.49849553E-01 0.14023054E+03</pdfrwt>
<pdfrwt beam="2">  1       -1 0.89634006E-02 0.14023054E+03</pdfrwt>
<totfact> 0.55062394E+03</totfact>
</mgrwt>
</event>
<event>
 7    1  0.1422977E-005  0.2437481E+03  0.7546771E-02  0.1120038E+00
         -2   -1    0    0    0  501 -0.00000000000E+00  0.00000000000E+00  0.59977049751E+02  0.59977049751E+02  0.00000000000E+00 0.  1.
          2   -1    0    0  501    0  0.00000000000E+00 -0.00000000000E+00 -0.13758448619E+04  0.13758448619E+04  0.00000000000E+00 0. -1.
         23    2    1    2    0    0  0.17722946529E+03 -0.11124127393E+03 -0.23270744324E+03  0.32557441690E+03  0.89783308081E+02 0.  0.
          5    1    1    2  502    0 -0.17265440716E+03  0.83072342624E+02 -0.69293339393E+03  0.71895016298E+03  0.47000000000E+01 0.  1.
         -5    1    1    2    0  502 -0.45750581277E+01  0.28168931308E+02 -0.39022697502E+03  0.39129733181E+03  0.47000000000E+01 0.  1.
        -11    1    3    3    0    0  0.13929422645E+03 -0.11363247596E+03 -0.14843714433E+03  0.23312830573E+03  0.00000000000E+00 0.  1.
         11    1    3    3    0    0  0.37935238841E+02  0.23912020304E+01 -0.84270298906E+02  0.92446111172E+02  0.00000000000E+00 0. -1.
<mgrwt>
<rscale>  0 0.23963223E+03</rscale>
<asrwt>0</asrwt>
<pdfrwt beam="2">  1        2 0.21166841E+00 0.24374806E+03</pdfrwt>
<pdfrwt beam="1">  1       -2 0.92272396E-02 0.24374806E+03</pdfrwt>
<totfact> 0.12054335E+03</totfact>
</mgrwt>
</event>
<event>
 7    1  0.1422977E-005  0.1510592E+03  0.7546771E-02  0.1208895E+00
          2   -1    0    0  501    0  0.00000000000E+00  0.00000000000E+00  0.91797366548E+03  0.91797366548E+03  0.00000000000E+00 0. -1.
         -2   -1    0    0    0  501 -0.00000000000E+00 -0.00000000000E+00 -0.20382821175E+02  0.20382821175E+02  0.00000000000E+00 0.  1.
         23    2    1    2    0    0  0.40048204848E+02  0.74766947565E+02  0.40787267310E+03  0.42586965017E+03  0.88379218770E+02 0.  0.
          5    1    1    2  502    0  0.55365008118E+01  0.28171317311E+02  0.44010915721E+02  0.52757242753E+02  0.47000000000E+01 0.  1.
         -5    1    1    2    0  502 -0.45584705660E+02 -0.10293826488E+03  0.44570725549E+03  0.45972959374E+03  0.47000000000E+01 0.  1.
        -11    1    3    3    0    0  0.44364540785E+02 -0.30357716282E+01  0.15671011366E+03  0.16289717036E+03  0.00000000000E+00 0. -1.
         11    1    3    3    0    0 -0.43163359364E+01  0.77802719193E+02  0.25116255944E+03  0.26297247981E+03  0.00000000000E+00 0.  1.
<mgrwt>
<rscale>  0 0.14334720E+03</rscale>
<asrwt>0</asrwt>
<pdfrwt beam="1">  1        2 0.14122669E+00 0.15105916E+03</pdfrwt>
<pdfrwt beam="2">  1       -2 0.31358194E-02 0.15105916E+03</pdfrwt>
<totfact> 0.11334475E+04</totfact>
</mgrwt>
</event>
<event>
 7    1  0.1422977E-005  0.1505525E+03  0.7546771E-02  0.1209175E+00
         -1   -1    0    0    0  501 -0.00000000000E+00  0.00000000000E+00  0.14378626945E+02  0.14378626945E+02  0.00000000000E+00 0.  1.
          1   -1    0    0  501    0  0.00000000000E+00 -0.00000000000E+00 -0.17118400836E+04  0.17118400836E+04  0.00000000000E+00 0. -1.
         23    2    1    2    0    0 -0.83659068810E+02  0.67698231776E+01 -0.36256459120E+03  0.38285885832E+03  0.89906352955E+02 0.  0.
          5    1    1    2  502    0  0.91030018325E+02  0.36094173083E+02 -0.11048043754E+04  0.11091456404E+04  0.47000000000E+01 0.  1.
         -5    1    1    2    0  502 -0.73709495149E+01 -0.42863996261E+02 -0.23009248999E+03  0.23421421183E+03  0.47000000000E+01 0.  1.
        -11    1    3    3    0    0 -0.30897699335E+02  0.32872706923E+02 -0.26575769835E+03  0.26955970937E+03  0.00000000000E+00 0. -1.
         11    1    3    3    0    0 -0.52761369475E+02 -0.26102883746E+02 -0.96806892846E+02  0.11329914894E+03  0.00000000000E+00 0.  1.
<mgrwt>
<rscale>  0 0.14313242E+03</rscale>
<asrwt>0</asrwt>
<pdfrwt beam="2">  1        1 0.26336011E+00 0.15055249E+03</pdfrwt>
<pdfrwt beam="1">  1       -1 0.22120956E-02 0.15055249E+03</pdfrwt>
<totfact> 0.30553803E+03</totfact>
</mgrwt>
</event>
<event>
 7    1  0.1422977E-005  0.1464239E+03  0.7546771E-02  0.1214029E+00
         -2   -1    0    0    0  501 -0.00000000000E+00  0.00000000000E+00  0.87237170399E+02  0.87237170399E+02  0.00000000000E+00 0.  1.
          2   -1    0    0  501    0  0.00000000000E+00 -0.00000000000E+00 -0.23483218393E+03  0.23483218393E+03  0.00000000000E+00 0. -1.
         23    2    1    2    0    0 -0.30880953784E+02  0.69716041456E+02 -0.97344229459E+01  0.12095866520E+03  0.93393147260E+02 0.  0.
          5    1    1    2  502    0  0.63742425990E+02 -0.25475141037E+01 -0.95787428652E+02  0.11518206539E+03  0.47000000000E+01 0. -1.
         -5    1    1    2    0  502 -0.32861472206E+02 -0.67168527353E+02 -0.42073161932E+02  0.85928623736E+02  0.47000000000E+01 0. -1.
        -11    1    3    3    0    0 -0.64226388556E+02  0.52332837876E+02 -0.91303600210E+01  0.83349375410E+02  0.00000000000E+00 0.  1.
         11    1    3    3    0    0  0.33345434772E+02  0.17383203580E+02 -0.60406292489E+00  0.37609289795E+02  0.00000000000E+00 0. -1.
<mgrwt>
<rscale>  0 0.13948116E+03</rscale>
<asrwt>0</asrwt>
<pdfrwt beam="2">  1        2 0.36128028E-01 0.14642393E+03</pdfrwt>
<pdfrwt beam="1">  1       -2 0.13421103E-01 0.14642393E+03</pdfrwt>
<totfact> 0.56402338E+03</totfact>
</mgrwt>
</event>
<event>
 7    1  0.1422977E-005  0.3247545E+03  0.7546771E-02  0.1074737E+00
          1   -1    0    0  501    0  0.00000000000E+00  0.00000000000E+00  0.71128326376E+03  0.71128326376E+03  0.00000000000E+00 0. -1.
         -1   -1    0    0    0  501 -0.00000000000E+00 -0.00000000000E+00 -0.15649065509E+03  0.15649065509E+03  0.00000000000E+00 0.  1.
         23    2    1    2    0    0 -0.17612371849E+03 -0.24255647432E+03  0.14725549752E+03  0.34666743780E+03  0.92956567437E+02 0.  0.
          5    1    1    2  502    0  0.18466323172E+03  0.23343396035E+03  0.41084387063E+03  0.50735263775E+03  0.47000000000E+01 0. -1.
         -5    1    1    2    0  502 -0.85395132297E+01  0.91225139750E+01 -0.33067594840E+01  0.13753843307E+02  0.47000000000E+01 0. -1.
        -11    1    3    3    0    0 -0.25900053335E+02 -0.58986544409E+02 -0.53036712629E+01  0.64640189610E+02  0.00000000000E+00 0.  1.
         11    1    3    3    0    0 -0.15022366515E+03 -0.18356992992E+03  0.15255916878E+03  0.28202724819E+03  0.00000000000E+00 0. -1.
<mgrwt>
<rscale>  0 0.32199020E+03</rscale>
<asrwt>0</asrwt>
<pdfrwt beam="1">  1        1 0.10942819E+00 0.32475447E+03</pdfrwt>
<pdfrwt beam="2">  1       -1 0.24075486E-01 0.32475447E+03</pdfrwt>
<totfact> 0.40925072E+02</totfact>
</mgrwt>
</event>
<event>
 7    1  0.1422977E-005  0.1277407E+03  0.7546771E-02  0.1245107E+00
          1   -1    0    0  501    0  0.00000000000E+00  0.00000000000E+00  0.18978543452E+03  0.18978543452E+03  0.00000000000E+00 0. -1.
         -1   -1    0    0    0  501 -0.00000000000E+00 -0.00000000000E+00 -0.67225698932E+02  0.67225698932E+02  0.00000000000E+00 0.  1.
         23    2    1    2    0    0  0.88186124459E+01 -0.24801343260E+02  0.33259588979E+02  0.10115159244E+03  0.91829025051E+02 0.  0.
          5    1    1    2  502    0  0.41099061011E+02  0.55167127328E+02  0.44253824700E+02  0.81933117567E+02  0.47000000000E+01 0.  1.
         -5    1    1    2    0  502 -0.49917673457E+02 -0.30365784068E+02  0.45046321909E+02  0.73926423442E+02  0.47000000000E+01 0.  1.
        -11    1    3    3    0    0  0.87596753812E+01 -0.45568772459E+02  0.54409876039E+02  0.71509996132E+02  0.00000000000E+00 0. -1.
         11    1    3    3    0    0  0.58937064626E-01  0.20767429199E+02 -0.21150287061E+02  0.29641596311E+02  0.00000000000E+00 0.  1.
<mgrwt>
<rscale>  0 0.11878967E+03</rscale>
<asrwt>0</asrwt>
<pdfrwt beam="1">  1        1 0.29197759E-01 0.12774068E+03</pdfrwt>
<pdfrwt beam="2">  1       -1 0.10342415E-01 0.12774068E+03</pdfrwt>
<totfact> 0.85335473E+03</totfact>
</mgrwt>
</event>
<event>
 7    1  0.1422977E-005  0.1305792E+03  0.7546771E-02  0.1232983E+00
         -1   -1    0    0    0  501 -0.00000000000E+00  0.00000000000E+00  0.16829569099E+02  0.16829569099E+02  0.00000000000E+00 0.  1.
          1   -1    0    0  501    0  0.00000000000E+00 -0.00000000000E+00 -0.11285936066E+04  0.11285936066E+04  0.00000000000E+00 0. -1.
         23    2    1    2    0    0  0.64181961478E+02 -0.22836357125E+02 -0.26509941225E+03  0.28874825478E+03  0.91962127421E+02 0.  0.
          5    1    1    2  502    0 -0.76173537243E+02  0.10770140313E+02 -0.82561806494E+03  0.82920786468E+03  0.47000000000E+01 0. -1.
         -5    1    1    2    0  502  0.11991575765E+02  0.12066216812E+02 -0.21046560349E+02  0.27467056268E+02  0.47000000000E+01 0.  1.
        -11    1    3    3    0    0  0.79323080144E+02 -0.36463998288E+02 -0.16579465587E+03  0.18737567113E+03  0.00000000000E+00 0.  1.
         11    1    3    3    0    0 -0.15141118666E+02  0.13627641163E+02 -0.99304756373E+02  0.10137258365E+03  0.00000000000E+00 0. -1.
<mgrwt>
<rscale>  0 0.12634428E+03</rscale>
<asrwt>0</asrwt>
<pdfrwt beam="2">  1        1 0.17362981E+00 0.13057922E+03</pdfrwt>
<pdfrwt beam="1">  1       -1 0.25891641E-02 0.13057922E+03</pdfrwt>
<totfact> 0.58776712E+03</totfact>
</mgrwt>
</event>
<event>
 7    1  0.1422977E-005  0.3635315E+03  0.7546771E-02  0.1057194E+00
         -2   -1    0    0    0  501 -0.00000000000E+00  0.00000000000E+00  0.16303141337E+03  0.16303141337E+03  0.00000000000E+00 0.  1.
          2   -1    0    0  501    0  0.00000000000E+00 -0.00000000000E+00 -0.20265292921E+03  0.20265292921E+03  0.00000000000E+00 0. -1.
         23    2    1    2    0    0 -0.22312123210E+01  0.34822898042E+02 -0.61283650188E+01  0.10021117112E+03  0.93739583008E+02 0.  0.
          5    1    1    2  502    0 -0.44447134605E+02  0.10187079297E+03 -0.46070144316E+02  0.12040662122E+03  0.47000000000E+01 0. -1.
         -5    1    1    2    0  502  0.46678346926E+02 -0.13669369101E+03  0.12576993487E+02  0.14506655025E+03  0.47000000000E+01 0.  1.
        -11    1    3    3    0    0  0.32181411027E+02 -0.18034779120E+02 -0.39456575448E+01  0.37100737015E+02  0.00000000000E+00 0.  1.
         11    1    3    3    0    0 -0.34412623348E+02  0.52857677162E+02 -0.21827074740E+01  0.63110434103E+02  0.00000000000E+00 0. -1.
<mgrwt>
<rscale>  0 0.36353153E+03</rscale>
<asrwt>0</asrwt>
<pdfrwt beam="2">  1        2 0.31177374E-01 0.36353153E+03</pdfrwt>
<pdfrwt beam="1">  1       -2 0.25081756E-01 0.36353153E+03</pdfrwt>
<totfact> 0.23868774E+03</totfact>
</mgrwt>
</event>
<event>
 7    1  0.1422977E-005  0.1579006E+03  0.7546771E-02  0.1200983E+00
         -1   -1    0    0    0  501 -0.00000000000E+00  0.00000000000E+00  0.26871314868E+03  0.26871314868E+03  0.00000000000E+00 0.  1.
          1   -1    0    0  501    0  0.00000000000E+00 -0.00000000000E+00 -0.75660959872E+02  0.75660959872E+02  0.00000000000E+00 0. -1.
         23    2    1    2    0    0 -0.19136372553E+02  0.94554643449E+02  0.90565736161E+02  0.15612941678E+03  0.82870144600E+02 0.  0.
          5    1    1    2  502    0 -0.43699755341E+02 -0.82243750237E+02  0.67594708611E+02  0.11517307716E+03  0.47000000000E+01 0.  1.
         -5    1    1    2    0  502  0.62836127894E+02 -0.12310893213E+02  0.34891744040E+02  0.73071614615E+02  0.47000000000E+01 0.  1.
        -11    1    3    3    0    0  0.13016269242E+02  0.71620165044E+02  0.91126294872E+02  0.11663135480E+03  0.00000000000E+00 0.  1.
         11    1    3    3    0    0 -0.32152641794E+02  0.22934478405E+02 -0.56055871103E+00  0.39498061980E+02  0.00000000000E+00 0. -1.
<mgrwt>
<rscale>  0 0.14958594E+03</rscale>
<asrwt>0</asrwt>
<pdfrwt beam="2">  1        1 0.11640148E-01 0.15790057E+03</pdfrwt>
<pdfrwt beam="1">  1       -1 0.41340484E-01 0.15790057E+03</pdfrwt>
<totfact> 0.29573994E+03</totfact>
</mgrwt>
</event>
<event>
 7    1  0.1422977E-005  0.2376338E+03  0.7546771E-02  0.1148876E+00
          1   -1    0    0  501    0  0.00000000000E+00  0.00000000000E+00  0.62392331447E+03  0.62392331447E+03  0.00000000000E+00 0. -1.
         -1   -1    0    0    0  501 -0.00000000000E+00 -0.00000000000E+00 -0.67795639116E+02  0.67795639116E+02  0.00000000000E+00 0.  1.
         23    2    1    2    0    0  0.35721927269E+01  0.80251229961E+02  0.48099090381E+02  0.13085989303E+03  0.91420832623E+02 0.  0.
          5    1    1    2  502    0  0.92443288322E+01  0.77208128508E+02  0.13758951355E+03  0.15811235550E+03  0.47000000000E+01 0. -1.
         -5    1    1    2    0  502 -0.12816521559E+02 -0.15745935847E+03  0.37043907142E+03  0.40274670505E+03  0.47000000000E+01 0.  1.
        -11    1    3    3    0    0 -0.86486744869E+01  0.98716179921E+02  0.34783622521E+02  0.10502182699E+03  0.00000000000E+00 0. -1.
         11    1    3    3    0    0  0.12220867214E+02 -0.18464949959E+02  0.13315467859E+02  0.25838066042E+02  0.00000000000E+00 0.  1.
<mgrwt>
<rscale>  0 0.20102658E+03</rscale>
<asrwt>0</asrwt>
<pdfrwt beam="1">  1        1 0.95988198E-01 0.23763384E+03</pdfrwt>
<pdfrwt beam="2">  1       -1 0.10430099E-01 0.23763384E+03</pdfrwt>
<totfact> 0.18940623E+03</totfact>
</mgrwt>
</event>
<event>
 7    1  0.1422977E-005  0.2541624E+03  0.7546771E-02  0.1113054E+00
         -2   -1    0    0    0  501 -0.00000000000E+00  0.00000000000E+00  0.32473825452E+03  0.32473825452E+03  0.00000000000E+00 0.  1.
          2   -1    0    0  501    0  0.00000000000E+00 -0.00000000000E+00 -0.25378160914E+03  0.25378160914E+03  0.00000000000E+00 0. -1.
         23    2    1    2    0    0  0.13383234904E+03 -0.17624693668E+03  0.18240491553E+03  0.30099642704E+03  0.91395927383E+02 0.  0.
          5    1    1    2  502    0 -0.57472825503E+02  0.10830848890E+01 -0.29853049527E+01  0.57752063079E+02  0.47000000000E+01 0. -1.
         -5    1    1    2    0  502 -0.76359523536E+02  0.17516385179E+03 -0.10846296519E+03  0.21977137354E+03  0.47000000000E+01 0. -1.
        -11    1    3    3    0    0  0.40896710250E+02 -0.68766063356E+02  0.14968253851E+02  0.81396320568E+02  0.00000000000E+00 0. -1.
         11    1    3    3    0    0  0.92935638789E+02 -0.10748087333E+03  0.16743666168E+03  0.21960010647E+03  0.00000000000E+00 0.  1.
<mgrwt>
<rscale>  0 0.25039676E+03</rscale>
<asrwt>0</asrwt>
<pdfrwt beam="2">  1        2 0.39043325E-01 0.25416243E+03</pdfrwt>
<pdfrwt beam="1">  1       -2 0.49959731E-01 0.25416243E+03</pdfrwt>
<totfact> 0.50671902E+02</totfact>
</mgrwt>
</event>
<event>
 7    1  0.1587516E-005  0.1383960E+03  0.7546771E-02  0.1234124E+00
         -1   -1    0    0    0  501 -0.00000000000E+00  0.00000000000E+00  0.75548872681E+02  0.75548872681E+02  0.00000000000E+00 0.  1.
          1   -1    0    0  501    0  0.00000000000E+00 -0.00000000000E+00 -0.21008653286E+03  0.21008653286E+03  0.00000000000E+00 0. -1.
         23    2    1    2    0    0 -0.46329922948E+02  0.37172966950E+02 -0.18713978484E+01  0.93922605615E+02  0.72730065884E+02 0.  0.
          5    1    1    2  502    0  0.26218947803E+01 -0.65710086673E+02 -0.22411575784E+02  0.69635181854E+02  0.47000000000E+01 0.  1.
         -5    1    1    2    0  502  0.43708028168E+02  0.28537119723E+02 -0.11025468655E+03  0.12207761807E+03  0.47000000000E+01 0.  1.
        -11    1    3    3    0    0 -0.55364769163E+02  0.28183437175E+01 -0.12530697778E+02  0.56835016606E+02  0.00000000000E+00 0. -1.
         11    1    3    3    0    0  0.90348462148E+01  0.34354623232E+02  0.10659299929E+02  0.37087589010E+02  0.00000000000E+00 0.  1.
<mgrwt>
<rscale>  0 0.12560696E+03</rscale>
<asrwt>0</asrwt>
<pdfrwt beam="2">  1        1 0.32321005E-01 0.13839603E+03</pdfrwt>
<pdfrwt beam="1">  1       -1 0.11622904E-01 0.13839603E+03</pdfrwt>
<totfact> 0.63245991E+03</totfact>
</mgrwt>
</event>
<event>
 7    1  0.1422977E-005  0.2517141E+03  0.7546771E-02  0.1153698E+00
          2   -1    0    0  501    0  0.00000000000E+00  0.00000000000E+00  0.23406310851E+04  0.23406310851E+04  0.00000000000E+00 0. -1.
         -2   -1    0    0    0  501 -0.00000000000E+00 -0.00000000000E+00 -0.14707381370E+02  0.14707381370E+02  0.00000000000E+00 0.  1.
         23    2    1    2    0    0 -0.73010444488E+01  0.31012646824E+01  0.29364961125E+03  0.30753525982E+03  0.91021529068E+02 0.  0.
          5    1    1    2  502    0 -0.29713819675E+02 -0.99441698316E+02  0.15994114125E+04  0.16027821183E+04  0.47000000000E+01 0. -1.
         -5    1    1    2    0  502  0.37014864124E+02  0.96340433634E+02  0.43286268003E+03  0.44502108836E+03  0.47000000000E+01 0.  1.
        -11    1    3    3    0    0  0.39701344580E+02 -0.64560729099E+01  0.94750486726E+02  0.10293460241E+03  0.00000000000E+00 0.  1.
         11    1    3    3    0    0 -0.47002389029E+02  0.95573375923E+01  0.19889912453E+03  0.20460065741E+03  0.00000000000E+00 0. -1.
<mgrwt>
<rscale>  0 0.19537880E+03</rscale>
<asrwt>0</asrwt>
<pdfrwt beam="1">  1        2 0.36009679E+00 0.25171410E+03</pdfrwt>
<pdfrwt beam="2">  1       -2 0.22626759E-02 0.25171410E+03</pdfrwt>
<totfact> 0.31553052E+03</totfact>
</mgrwt>
</event>
<event>
 7    1  0.1422977E-005  0.1639191E+03  0.7546771E-02  0.1191468E+00
          1   -1    0    0  501    0  0.00000000000E+00  0.00000000000E+00  0.27110411151E+03  0.27110411151E+03  0.00000000000E+00 0. -1.
         -1   -1    0    0    0  501 -0.00000000000E+00 -0.00000000000E+00 -0.89801184692E+02  0.89801184692E+02  0.00000000000E+00 0.  1.
         23    2    1    2    0    0 -0.10162001289E+03  0.30290098751E+02  0.42946195800E+02  0.14640106708E+03  0.91349765219E+02 0.  0.
          5    1    1    2  502    0  0.89696330121E+02 -0.62559591535E+02  0.51508694634E+02  0.12097259918E+03  0.47000000000E+01 0. -1.
         -5    1    1    2    0  502  0.11923682772E+02  0.32269492785E+02  0.86848036389E+02  0.93531629944E+02  0.47000000000E+01 0. -1.
        -11    1    3    3    0    0 -0.32362950185E+01  0.28159485454E+02  0.38611808349E+02  0.47898872330E+02  0.00000000000E+00 0. -1.
         11    1    3    3    0    0 -0.98383717875E+02  0.21306132966E+01  0.43343874507E+01  0.98502194749E+02  0.00000000000E+00 0.  1.
<mgrwt>
<rscale>  0 0.15756997E+03</rscale>
<asrwt>0</asrwt>
<pdfrwt beam="1">  1        1 0.41708325E-01 0.16391912E+03</pdfrwt>
<pdfrwt beam="2">  1       -1 0.13815567E-01 0.16391912E+03</pdfrwt>
<totfact> 0.35572071E+03</totfact>
</mgrwt>
</event>
<event>
 7    1  0.1422977E-005  0.1853206E+03  0.7546771E-02  0.1168014E+00
          1   -1    0    0  501    0  0.00000000000E+00  0.00000000000E+00  0.71639647226E+03  0.71639647226E+03  0.00000000000E+00 0. -1.
         -1   -1    0    0    0  501 -0.00000000000E+00 -0.00000000000E+00 -0.49057599799E+02  0.49057599799E+02  0.00000000000E+00 0.  1.
         23    2    1    2    0    0  0.44279588090E+02  0.12945611940E+03  0.17764783129E+03  0.24186928112E+03  0.90677607023E+02 0.  0.
          5    1    1    2  502    0  0.36002645197E+02 -0.87152637639E+02  0.25495182502E+03  0.27187183707E+03  0.47000000000E+01 0.  1.
         -5    1    1    2    0  502 -0.80282233287E+02 -0.42303481757E+02  0.23473921614E+03  0.25171295387E+03  0.47000000000E+01 0.  1.
        -11    1    3    3    0    0  0.42465876315E+02  0.30453153084E+02  0.20514678579E+02  0.56139088175E+02  0.00000000000E+00 0.  1.
         11    1    3    3    0    0  0.18137117751E+01  0.99002966312E+02  0.15713315272E+03  0.18573019294E+03  0.00000000000E+00 0. -1.
<mgrwt>
<rscale>  0 0.17978211E+03</rscale>
<asrwt>0</asrwt>
<pdfrwt beam="1">  1        1 0.11021483E+00 0.18532058E+03</pdfrwt>
<pdfrwt beam="2">  1       -1 0.75473236E-02 0.18532058E+03</pdfrwt>
<totfact> 0.25399780E+03</totfact>
</mgrwt>
</event>
<event>
 7    1  0.1602524E-005  0.2585426E+03  0.7546771E-02  0.1110346E+00
          3   -1    0    0  501    0  0.00000000000E+00  0.00000000000E+00  0.44343783241E+02  0.44343783241E+02  0.00000000000E+00 0. -1.
         -3   -1    0    0    0  501 -0.00000000000E+00 -0.00000000000E+00 -0.14452404464E+04  0.14452404464E+04  0.00000000000E+00 0.  1.
         23    2    1    2    0    0  0.19424407665E+03 -0.11614170022E+03 -0.77466748250E+03  0.81208348319E+03  0.90278565534E+02 0.  0.
          5    1    1    2  502    0 -0.19166610220E+03  0.12773626696E+03 -0.49879410980E+03  0.54942706759E+03  0.47000000000E+01 0.  1.
         -5    1    1    2    0  502 -0.25779744474E+01 -0.11594566744E+02 -0.12743507088E+03  0.12807367888E+03  0.47000000000E+01 0.  1.
        -11    1    3    3    0    0  0.12515003070E+03 -0.77543332313E+02 -0.63212017547E+03  0.64903883921E+03  0.00000000000E+00 0.  1.
         11    1    3    3    0    0  0.69094045945E+02 -0.38598367903E+02 -0.14254730703E+03  0.16304464398E+03  0.00000000000E+00 0. -1.
<mgrwt>
<rscale>  0 0.25473865E+03</rscale>
<asrwt>0</asrwt>
<pdfrwt beam="1">  1        3 0.68221214E-02 0.25854260E+03</pdfrwt>
<pdfrwt beam="2">  1       -3 0.22234465E+00 0.25854260E+03</pdfrwt>
<totfact> 0.40464517E+01</totfact>
</mgrwt>
</event>
<event>
 7    1  0.1422977E-005  0.3945808E+03  0.7546771E-02  0.1045672E+00
         -1   -1    0    0    0  501 -0.00000000000E+00  0.00000000000E+00  0.13474516947E+03  0.13474516947E+03  0.00000000000E+00 0.  1.
          1   -1    0    0  501    0  0.00000000000E+00 -0.00000000000E+00 -0.28886750897E+03  0.28886750897E+03  0.00000000000E+00 0. -1.
         23    2    1    2    0    0 -0.11896634445E+03  0.38216885821E+02 -0.34537665237E+02  0.15851375569E+03  0.91215343830E+02 0.  0.
          5    1    1    2  502    0  0.14990491439E+03 -0.90739626552E+02 -0.92943420165E+02  0.19840799514E+03  0.47000000000E+01 0. -1.
         -5    1    1    2    0  502 -0.30938569944E+02  0.52522740731E+02 -0.26641254098E+02  0.66690927599E+02  0.47000000000E+01 0.  1.
        -11    1    3    3    0    0 -0.44815233637E+02  0.23543791016E+02  0.30238327983E+02  0.58966700269E+02  0.00000000000E+00 0.  1.
         11    1    3    3    0    0 -0.74151110808E+02  0.14673094804E+02 -0.64775993220E+02  0.99547055420E+02  0.00000000000E+00 0. -1.
<mgrwt>
<rscale>  0 0.39458080E+03</rscale>
<asrwt>0</asrwt>
<pdfrwt beam="2">  1        1 0.44441154E-01 0.39458080E+03</pdfrwt>
<pdfrwt beam="1">  1       -1 0.20730027E-01 0.39458080E+03</pdfrwt>
<totfact> 0.17561235E+03</totfact>
</mgrwt>
</event>
<event>
 7    1  0.1422977E-005  0.2469193E+03  0.7546771E-02  0.1117976E+00
          1   -1    0    0  501    0  0.00000000000E+00  0.00000000000E+00  0.61620274884E+03  0.61620274884E+03  0.00000000000E+00 0. -1.
         -1   -1    0    0    0  501 -0.00000000000E+00 -0.00000000000E+00 -0.95150018980E+02  0.95150018980E+02  0.00000000000E+00 0.  1.
         23    2    1    2    0    0 -0.10598434589E+03  0.18469264581E+03  0.31086796326E+03  0.38708933596E+03  0.88629613810E+02 0.  0.
          5    1    1    2  502    0  0.12502928227E+02 -0.89288135664E+01  0.90534423775E+02  0.91949001159E+02  0.47000000000E+01 0. -1.
         -5    1    1    2    0  502  0.93481417660E+02 -0.17576383224E+03  0.11965034283E+03  0.23231443070E+03  0.47000000000E+01 0. -1.
        -11    1    3    3    0    0 -0.53918404504E+02  0.61349412323E+02  0.18962711372E+03  0.20646885236E+03  0.00000000000E+00 0. -1.
         11    1    3    3    0    0 -0.52065941383E+02  0.12334323349E+03  0.12124084954E+03  0.18062048360E+03  0.00000000000E+00 0.  1.
<mgrwt>
<rscale>  0 0.24274733E+03</rscale>
<asrwt>0</asrwt>
<pdfrwt beam="1">  1        1 0.94800420E-01 0.24691929E+03</pdfrwt>
<pdfrwt beam="2">  1       -1 0.14638465E-01 0.24691929E+03</pdfrwt>
<totfact> 0.11331555E+03</totfact>
</mgrwt>
</event>
<event>
 7    1  0.1422977E-005  0.1355998E+03  0.7546771E-02  0.1231656E+00
          2   -1    0    0  501    0  0.00000000000E+00  0.00000000000E+00  0.14379426836E+04  0.14379426836E+04  0.00000000000E+00 0. -1.
         -2   -1    0    0    0  501 -0.00000000000E+00 -0.00000000000E+00 -0.11907713426E+02  0.11907713426E+02  0.00000000000E+00 0.  1.
         23    2    1    2    0    0  0.68607128691E+01 -0.52092791723E+02  0.35335019185E+03  0.36862889946E+03  0.90940525102E+02 0.  0.
          5    1    1    2  502    0  0.51168123237E+01  0.91739578523E+02  0.64849100868E+03  0.65498474056E+03  0.47000000000E+01 0.  1.
         -5    1    1    2    0  502 -0.11977525193E+02 -0.39646786800E+02  0.42419376964E+03  0.42623675699E+03  0.47000000000E+01 0.  1.
        -11    1    3    3    0    0 -0.31107362569E+02 -0.58515273174E+02  0.21098906279E+03  0.22115173483E+03  0.00000000000E+00 0.  1.
         11    1    3    3    0    0  0.37968075438E+02  0.64224814504E+01  0.14236112906E+03  0.14747716463E+03  0.00000000000E+00 0. -1.
<mgrwt>
<rscale>  0 0.12720980E+03</rscale>
<asrwt>0</asrwt>
<pdfrwt beam="1">  1        2 0.22122181E+00 0.13559975E+03</pdfrwt>
<pdfrwt beam="2">  1       -2 0.18319570E-02 0.13559975E+03</pdfrwt>
<totfact> 0.12580552E+04</totfact>
</mgrwt>
</event>
<event>
 7    1  0.1422977E-005  0.1660797E+03  0.7546771E-02  0.1190609E+00
         -2   -1    0    0    0  501 -0.00000000000E+00  0.00000000000E+00  0.14574222046E+02  0.14574222046E+02  0.00000000000E+00 0. -1.
          2   -1    0    0  501    0  0.00000000000E+00 -0.00000000000E+00 -0.20111242953E+04  0.20111242953E+04  0.00000000000E+00 0.  1.
         23    2    1    2    0    0 -0.84498732549E+02  0.69405520323E+02 -0.45476062814E+03  0.47498991620E+03  0.82770946183E+02 0.  0.
          5    1    1    2  502    0 -0.26786578715E+02  0.10333632227E+02 -0.26718562641E+03  0.26876486696E+03  0.47000000000E+01 0.  1.
         -5    1    1    2    0  502  0.11128531126E+03 -0.79739152550E+02 -0.12746038187E+04  0.12819437342E+04  0.47000000000E+01 0.  1.
        -11    1    3    3    0    0 -0.59580368390E+02 -0.34667571518E+01 -0.17973076652E+03  0.18938053526E+03  0.00000000000E+00 0. -1.
         11    1    3    3    0    0 -0.24918364159E+02  0.72872277475E+02 -0.27502986162E+03  0.28560938093E+03  0.00000000000E+00 0.  1.
<mgrwt>
<rscale>  0 0.15831819E+03</rscale>
<asrwt>0</asrwt>
<pdfrwt beam="2">  1        2 0.30940347E+00 0.16607972E+03</pdfrwt>
<pdfrwt beam="1">  1       -2 0.22421899E-02 0.16607972E+03</pdfrwt>
<totfact> 0.47703337E+03</totfact>
</mgrwt>
</event>
<event>
 7    1  0.1422977E-005  0.1338262E+03  0.7546771E-02  0.1234498E+00
          3   -1    0    0  501    0  0.00000000000E+00  0.00000000000E+00  0.24380676603E+02  0.24380676603E+02  0.00000000000E+00 0. -1.
         -3   -1    0    0    0  501 -0.00000000000E+00 -0.00000000000E+00 -0.59730393983E+03  0.59730393983E+03  0.00000000000E+00 0.  1.
         23    2    1    2    0    0 -0.25456715159E+02  0.40453524151E+02 -0.30964250192E+03  0.32634376119E+03  0.91308485416E+02 0.  0.
          5    1    1    2  502    0  0.56947256056E+02  0.18260571720E+02 -0.78073574680E+02  0.98458171399E+02  0.47000000000E+01 0. -1.
         -5    1    1    2    0  502 -0.31490540897E+02 -0.58714095872E+02 -0.18520718662E+03  0.19688268384E+03  0.47000000000E+01 0. -1.
        -11    1    3    3    0    0 -0.28057316618E+02 -0.24221922838E+02 -0.13835914339E+03  0.14323814827E+03  0.00000000000E+00 0.  1.
         11    1    3    3    0    0  0.26006014596E+01  0.64675446990E+02 -0.17128335854E+03  0.18310561292E+03  0.00000000000E+00 0. -1.
<mgrwt>
<rscale>  0 0.12536623E+03</rscale>
<asrwt>0</asrwt>
<pdfrwt beam="1">  1        3 0.37508735E-02 0.13382624E+03</pdfrwt>
<pdfrwt beam="2">  1       -3 0.91892910E-01 0.13382624E+03</pdfrwt>
<totfact> 0.90784815E+02</totfact>
</mgrwt>
</event>
<event>
 7    1  0.1422977E-005  0.1302998E+03  0.7546771E-02  0.1239421E+00
          1   -1    0    0  501    0  0.00000000000E+00  0.00000000000E+00  0.35403354527E+03  0.35403354527E+03  0.00000000000E+00 0. -1.
         -1   -1    0    0    0  501 -0.00000000000E+00 -0.00000000000E+00 -0.55115520767E+02  0.55115520767E+02  0.00000000000E+00 0.  1.
         23    2    1    2    0    0  0.35776372603E+02 -0.85360354167E+01  0.22353685061E+02  0.10342716436E+03  0.94046150128E+02 0.  0.
          5    1    1    2  502    0 -0.65281646924E+02 -0.18105119465E+02  0.24643448284E+03  0.25561989967E+03  0.47000000000E+01 0. -1.
         -5    1    1    2    0  502  0.29505274321E+02  0.26641154881E+02  0.30129856601E+02  0.50102002005E+02  0.47000000000E+01 0. -1.
        -11    1    3    3    0    0 -0.22312911958E+02 -0.20044319436E+02  0.31512360939E+02  0.43504823567E+02  0.00000000000E+00 0.  1.
         11    1    3    3    0    0  0.58089284561E+02  0.11508284019E+02 -0.91586758782E+01  0.59922340789E+02  0.00000000000E+00 0. -1.
<mgrwt>
<rscale>  0 0.12225583E+03</rscale>
<asrwt>0</asrwt>
<pdfrwt beam="1">  1        1 0.54466698E-01 0.13029984E+03</pdfrwt>
<pdfrwt beam="2">  1       -1 0.84793111E-02 0.13029984E+03</pdfrwt>
<totfact> 0.53412915E+03</totfact>
</mgrwt>
</event>
<event>
 7    1  0.1422977E-005  0.1400147E+03  0.7546771E-02  0.1224800E+00
         -1   -1    0    0    0  501 -0.00000000000E+00  0.00000000000E+00  0.25966646863E+02  0.25966646863E+02  0.00000000000E+00 0. -1.
          1   -1    0    0  501    0  0.00000000000E+00 -0.00000000000E+00 -0.60713444349E+03  0.60713444349E+03  0.00000000000E+00 0.  1.
         23    2    1    2    0    0  0.61643682038E+02 -0.13627644159E+02 -0.22594022881E+03  0.25127554905E+03  0.90026431309E+02 0.  0.
          5    1    1    2  502    0 -0.63671073450E+02  0.39959225680E+01 -0.64323317838E+02  0.90716879406E+02  0.47000000000E+01 0.  1.
         -5    1    1    2    0  502  0.20273914127E+01  0.96317215910E+01 -0.29090424997E+03  0.29110866189E+03  0.47000000000E+01 0.  1.
        -11    1    3    3    0    0  0.25962462129E+02  0.33173962878E+02 -0.48040917688E+02  0.63894373971E+02  0.00000000000E+00 0.  1.
         11    1    3    3    0    0  0.35681219909E+02 -0.46801607037E+02 -0.17789931113E+03  0.18738117508E+03  0.00000000000E+00 0. -1.
<mgrwt>
<rscale>  0 0.13180607E+03</rscale>
<asrwt>0</asrwt>
<pdfrwt beam="2">  1        1 0.93405304E-01 0.14001471E+03</pdfrwt>
<pdfrwt beam="1">  1       -1 0.39948685E-02 0.14001471E+03</pdfrwt>
<totfact> 0.81877547E+03</totfact>
</mgrwt>
</event>
<event>
 7    1  0.1422977E-005  0.1656675E+03  0.7546771E-02  0.1189634E+00
          2   -1    0    0  501    0  0.00000000000E+00  0.00000000000E+00  0.49952205335E+03  0.49952205335E+03  0.00000000000E+00 0. -1.
         -2   -1    0    0    0  501 -0.00000000000E+00 -0.00000000000E+00 -0.48132502401E+02  0.48132502401E+02  0.00000000000E+00 0.  1.
         23    2    1    2    0    0 -0.10851805756E+03 -0.66280988247E+01  0.16850257644E+03  0.21982723142E+03  0.90059940581E+02 0.  0.
          5    1    1    2  502    0  0.73973041509E+02  0.64280981668E+02  0.17516949169E+03  0.20077474018E+03  0.47000000000E+01 0. -1.
         -5    1    1    2    0  502  0.34545016053E+02 -0.57652882843E+02  0.10771748282E+03  0.12705258415E+03  0.47000000000E+01 0. -1.
        -11    1    3    3    0    0 -0.21715682498E+02 -0.36816999614E+02  0.25297040072E+02  0.49668929558E+02  0.00000000000E+00 0. -1.
         11    1    3    3    0    0 -0.86802375064E+02  0.30188900790E+02  0.14320553637E+03  0.17015830187E+03  0.00000000000E+00 0.  1.
<mgrwt>
<rscale>  0 0.15917278E+03</rscale>
<asrwt>0</asrwt>
<pdfrwt beam="1">  1        2 0.76849543E-01 0.16566748E+03</pdfrwt>
<pdfrwt beam="2">  1       -2 0.74050007E-02 0.16566748E+03</pdfrwt>
<totfact> 0.64560282E+03</totfact>
</mgrwt>
</event>
<event>
 7    1  0.1422977E-005  0.1383104E+03  0.7546771E-02  0.1226950E+00
          2   -1    0    0  501    0  0.00000000000E+00  0.00000000000E+00  0.11649043423E+04  0.11649043423E+04  0.00000000000E+00 0.  1.
         -2   -1    0    0    0  501 -0.00000000000E+00 -0.00000000000E+00 -0.27193577843E+02  0.27193577843E+02  0.00000000000E+00 0. -1.
         23    2    1    2    0    0 -0.48542291599E+02 -0.33881407748E+02  0.10927706378E+03  0.15440545620E+03  0.91625675277E+02 0.  0.
          5    1    1    2  502    0  0.44502652557E+02  0.14567079354E+02  0.10073021915E+04  0.10084009525E+04  0.47000000000E+01 0. -1.
         -5    1    1    2    0  502  0.40396390415E+01  0.19314328393E+02  0.21131509097E+02  0.29291511426E+02  0.47000000000E+01 0. -1.
        -11    1    3    3    0    0  0.21390638388E+02 -0.20687848784E+02  0.83440326830E+01  0.30905814653E+02  0.00000000000E+00 0. -1.
         11    1    3    3    0    0 -0.69932929986E+02 -0.13193558963E+02  0.10093303110E+03  0.12349964154E+03  0.00000000000E+00 0.  1.
<mgrwt>
<rscale>  0 0.13034146E+03</rscale>
<asrwt>0</asrwt>
<pdfrwt beam="1">  1        2 0.17921601E+00 0.13831042E+03</pdfrwt>
<pdfrwt beam="2">  1       -2 0.41836283E-02 0.13831042E+03</pdfrwt>
<totfact> 0.52654973E+03</totfact>
</mgrwt>
</event>
<event>
 7    1  0.1422977E-005  0.1531086E+03  0.7546771E-02  0.1204856E+00
         -2   -1    0    0    0  501 -0.00000000000E+00  0.00000000000E+00  0.36937964726E+02  0.36937964726E+02  0.00000000000E+00 0.  1.
          2   -1    0    0  501    0  0.00000000000E+00 -0.00000000000E+00 -0.59533608990E+03  0.59533608990E+03  0.00000000000E+00 0. -1.
         23    2    1    2    0    0 -0.74054960433E+02 -0.48308302142E+02 -0.15753610203E+03  0.20316729462E+03  0.92959652213E+02 0.  0.
          5    1    1    2  502    0  0.62548962554E+02  0.83796910296E+02 -0.35328000466E+03  0.36846050885E+03  0.47000000000E+01 0. -1.
         -5    1    1    2    0  502  0.11505997879E+02 -0.35488608154E+02 -0.47582018479E+02  0.60646251149E+02  0.47000000000E+01 0. -1.
        -11    1    3    3    0    0 -0.46827905969E+02 -0.58473596668E+01 -0.11368988332E+02  0.48541716989E+02  0.00000000000E+00 0.  1.
         11    1    3    3    0    0 -0.27227054464E+02 -0.42460942476E+02 -0.14616711370E+03  0.15462557763E+03  0.00000000000E+00 0. -1.
<mgrwt>
<rscale>  0 0.14648773E+03</rscale>
<asrwt>0</asrwt>
<pdfrwt beam="2">  1        2 0.91590164E-01 0.15310862E+03</pdfrwt>
<pdfrwt beam="1">  1       -2 0.56827641E-02 0.15310862E+03</pdfrwt>
<totfact> 0.79136605E+03</totfact>
</mgrwt>
</event>
<event>
 7    1  0.1422977E-005  0.1285899E+03  0.7546771E-02  0.1244002E+00
         -1   -1    0    0    0  501 -0.00000000000E+00  0.00000000000E+00  0.13426000693E+03  0.13426000693E+03  0.00000000000E+00 0.  1.
          1   -1    0    0  501    0  0.00000000000E+00 -0.00000000000E+00 -0.10263654239E+03  0.10263654239E+03  0.00000000000E+00 0. -1.
         23    2    1    2    0    0 -0.73967072718E+01  0.29252049311E+02  0.48267634826E+02  0.10723394049E+03  0.90878819060E+02 0.  0.
          5    1    1    2  502    0 -0.51384632080E+02 -0.29928582951E+02  0.16662759353E+02  0.61934142771E+02  0.47000000000E+01 0. -1.
         -5    1    1    2    0  502  0.58781339352E+02  0.67653363959E+00 -0.33306929633E+02  0.67728466064E+02  0.47000000000E+01 0. -1.
        -11    1    3    3    0    0  0.25502467490E+02 -0.21279185111E+02  0.28539527948E+02  0.43791371553E+02  0.00000000000E+00 0.  1.
         11    1    3    3    0    0 -0.32899174762E+02  0.50531234422E+02  0.19728106878E+02  0.63442568936E+02  0.00000000000E+00 0. -1.
<mgrwt>
<rscale>  0 0.11945312E+03</rscale>
<asrwt>0</asrwt>
<pdfrwt beam="2">  1        1 0.15790237E-01 0.12858991E+03</pdfrwt>
<pdfrwt beam="1">  1       -1 0.20655386E-01 0.12858991E+03</pdfrwt>
<totfact> 0.62972155E+03</totfact>
</mgrwt>
</event>
<event>
 7    1  0.1422977E-005  0.1389133E+03  0.7546771E-02  0.1225967E+00
         -2   -1    0    0    0  501 -0.00000000000E+00  0.00000000000E+00  0.14812346884E+03  0.14812346884E+03  0.00000000000E+00 0.  1.
          2   -1    0    0  501    0  0.00000000000E+00 -0.00000000000E+00 -0.11318613257E+03  0.11318613257E+03  0.00000000000E+00 0. -1.
         23    2    1    2    0    0  0.32316373091E+02  0.51250194491E+02  0.51595245287E+02  0.12140104401E+03  0.91679952800E+02 0.  0.
          5    1    1    2  502    0 -0.58951745857E+02  0.16532444560E+02 -0.25310304861E+02  0.66417855994E+02  0.47000000000E+01 0. -1.
         -5    1    1    2    0  502  0.26635372766E+02 -0.67782639051E+02  0.86523958410E+01  0.73490701404E+02  0.47000000000E+01 0. -1.
        -11    1    3    3    0    0  0.15450807681E+02 -0.32387831943E+01  0.61512460321E+02  0.63505904838E+02  0.00000000000E+00 0.  1.
         11    1    3    3    0    0  0.16865565409E+02  0.54488977686E+02 -0.99172150334E+01  0.57895139173E+02  0.00000000000E+00 0. -1.
<mgrwt>
<rscale>  0 0.13100836E+03</rscale>
<asrwt>0</asrwt>
<pdfrwt beam="2">  1        2 0.17413251E-01 0.13891335E+03</pdfrwt>
<pdfrwt beam="1">  1       -2 0.22788226E-01 0.13891335E+03</pdfrwt>
<totfact> 0.52146491E+03</totfact>
</mgrwt>
</event>
<event>
 7    1  0.1422977E-005  0.1471642E+03  0.7546771E-02  0.1214133E+00
         -2   -1    0    0    0  501 -0.00000000000E+00  0.00000000000E+00  0.20314893607E+02  0.20314893607E+02  0.00000000000E+00 0.  1.
          2   -1    0    0  501    0  0.00000000000E+00 -0.00000000000E+00 -0.14672888086E+04  0.14672888086E+04  0.00000000000E+00 0. -1.
         23    2    1    2    0    0  0.75566686962E+02 -0.17942004195E+02 -0.20375534277E+03  0.23570525012E+03  0.89490142110E+02 0.  0.
          5    1    1    2  502    0 -0.93222937116E+02 -0.25104378993E+02 -0.69504401877E+03  0.70173287217E+03  0.47000000000E+01 0. -1.
         -5    1    1    2    0  502  0.17656250154E+02  0.43046383187E+02 -0.54817455344E+03  0.55016557990E+03  0.47000000000E+01 0. -1.
        -11    1    3    3    0    0  0.87670880220E+00 -0.23734835528E+02 -0.63827759815E+01  0.24593715967E+02  0.00000000000E+00 0.  1.
         11    1    3    3    0    0  0.74689978159E+02  0.57928313329E+01 -0.19737256679E+03  0.21111153416E+03  0.00000000000E+00 0. -1.
<mgrwt>
<rscale>  0 0.13940406E+03</rscale>
<asrwt>0</asrwt>
<pdfrwt beam="2">  1        2 0.22573675E+00 0.14716425E+03</pdfrwt>
<pdfrwt beam="1">  1       -2 0.31253681E-02 0.14716425E+03</pdfrwt>
<totfact> 0.55813048E+03</totfact>
</mgrwt>
</event>
<event>
 7    1  0.1422977E-005  0.1605879E+03  0.7546771E-02  0.1206308E+00
         -1   -1    0    0    0  501 -0.00000000000E+00  0.00000000000E+00  0.32110488053E+02  0.32110488053E+02  0.00000000000E+00 0.  1.
          1   -1    0    0  501    0  0.00000000000E+00 -0.00000000000E+00 -0.21180050868E+04  0.21180050868E+04  0.00000000000E+00 0. -1.
         23    2    1    2    0    0 -0.72600025210E+01 -0.23534643201E+02 -0.71505193647E+02  0.12933524457E+03  0.10491913888E+03 0.  0.
          5    1    1    2  502    0  0.24315075223E+02  0.36754866918E+02 -0.15376117763E+03  0.16002103884E+03  0.47000000000E+01 0. -1.
         -5    1    1    2    0  502 -0.17055072702E+02 -0.13220223717E+02 -0.18606282275E+04  0.18607592914E+04  0.47000000000E+01 0.  1.
        -11    1    3    3    0    0 -0.25209786053E+02  0.24652518691E+02 -0.69431400711E+02  0.77871685453E+02  0.00000000000E+00 0. -1.
         11    1    3    3    0    0  0.17949783532E+02 -0.48187161892E+02 -0.20737929362E+01  0.51463559119E+02  0.00000000000E+00 0.  1.
<mgrwt>
<rscale>  0 0.14534837E+03</rscale>
<asrwt>0</asrwt>
<pdfrwt beam="2">  1        1 0.32584702E+00 0.16058788E+03</pdfrwt>
<pdfrwt beam="1">  1       -1 0.49400737E-02 0.16058788E+03</pdfrwt>
<totfact> 0.51721936E+02</totfact>
</mgrwt>
</event>
<event>
 7    1  0.1422977E-005  0.1327544E+03  0.7546771E-02  0.1235987E+00
         -1   -1    0    0    0  501 -0.00000000000E+00  0.00000000000E+00  0.11736765278E+03  0.11736765278E+03  0.00000000000E+00 0.  1.
          1   -1    0    0  501    0  0.00000000000E+00 -0.00000000000E+00 -0.12609467548E+03  0.12609467548E+03  0.00000000000E+00 0. -1.
         23    2    1    2    0    0 -0.25898781003E+02 -0.36435752870E+02  0.27145818313E+02  0.10594652994E+03  0.92138270060E+02 0.  0.
          5    1    1    2  502    0  0.61000331912E+02  0.27928766495E+02  0.20580481437E+02  0.70332799656E+02  0.47000000000E+01 0. -1.
         -5    1    1    2    0  502 -0.35101550909E+02  0.85069863745E+01 -0.56453322449E+02  0.67182998660E+02  0.47000000000E+01 0. -1.
        -11    1    3    3    0    0 -0.11686401817E+00 -0.24162371185E+02 -0.32100603722E+02  0.40178135818E+02  0.00000000000E+00 0. -1.
         11    1    3    3    0    0 -0.25781916985E+02 -0.12273381684E+02  0.59246422035E+02  0.65768394122E+02  0.00000000000E+00 0.  1.
<mgrwt>
<rscale>  0 0.12441482E+03</rscale>
<asrwt>0</asrwt>
<pdfrwt beam="2">  1        1 0.19399181E-01 0.13275441E+03</pdfrwt>
<pdfrwt beam="1">  1       -1 0.18056562E-01 0.13275441E+03</pdfrwt>
<totfact> 0.60121868E+03</totfact>
</mgrwt>
</event>
<event>
 7    1  0.2716722E-005  0.2418010E+03  0.7546771E-02  0.1121410E+00
         -2   -1    0    0    0  501 -0.00000000000E+00  0.00000000000E+00  0.91964939650E+03  0.91964939650E+03  0.00000000000E+00 0.  1.
          2   -1    0    0  501    0  0.00000000000E+00 -0.00000000000E+00 -0.62018361851E+02  0.62018361851E+02  0.00000000000E+00 0. -1.
         23    2    1    2    0    0  0.86890944149E+01  0.20680234094E+03  0.51647310897E+03  0.56350937233E+03  0.89194348691E+02 0.  0.
          5    1    1    2  502    0  0.12079521454E+01 -0.24234270534E+02  0.15583321206E+03  0.15778098427E+03  0.47000000000E+01 0. -1.
         -5    1    1    2    0  502 -0.98970465603E+01 -0.18256807040E+03  0.18532471362E+03  0.26037740174E+03  0.47000000000E+01 0. -1.
        -11    1    3    3    0    0 -0.20170270943E+02  0.21866639919E+02  0.29905410600E+02  0.42182026439E+02  0.00000000000E+00 0. -1.
         11    1    3    3    0    0  0.28859365358E+02  0.18493570102E+03  0.48656769837E+03  0.52132734589E+03  0.00000000000E+00 0.  1.
<mgrwt>
<rscale>  0 0.23758811E+03</rscale>
<asrwt>0</asrwt>
<pdfrwt beam="2">  1        2 0.95412871E-02 0.24180096E+03</pdfrwt>
<pdfrwt beam="1">  1       -2 0.14148451E+00 0.24180096E+03</pdfrwt>
<totfact> 0.25052014E+02</totfact>
</mgrwt>
</event>
<event>
 7    1  0.1422977E-005  0.1332414E+03  0.7546771E-02  0.1237442E+00
          1   -1    0    0  501    0  0.00000000000E+00  0.00000000000E+00  0.27483509428E+03  0.27483509428E+03  0.00000000000E+00 0. -1.
         -1   -1    0    0    0  501 -0.00000000000E+00 -0.00000000000E+00 -0.50127467581E+02  0.50127467581E+02  0.00000000000E+00 0.  1.
         23    2    1    2    0    0 -0.35107003713E+02  0.29933875095E+02  0.69497103981E+02  0.12040553215E+03  0.86828026131E+02 0.  0.
          5    1    1    2  502    0  0.19240384133E+02  0.34053298708E+02  0.12651072846E+03  0.13250235451E+03  0.47000000000E+01 0. -1.
         -5    1    1    2    0  502  0.15866619580E+02 -0.63987173803E+02  0.28699794251E+02  0.72054675201E+02  0.47000000000E+01 0. -1.
        -11    1    3    3    0    0 -0.11517842678E+02 -0.29412938653E+02  0.37322832320E+02  0.48895556778E+02  0.00000000000E+00 0.  1.
         11    1    3    3    0    0 -0.23589161035E+02  0.59346813748E+02  0.32174271661E+02  0.71509975369E+02  0.00000000000E+00 0. -1.
<mgrwt>
<rscale>  0 0.12349361E+03</rscale>
<asrwt>0</asrwt>
<pdfrwt beam="1">  1        1 0.42282321E-01 0.13324141E+03</pdfrwt>
<pdfrwt beam="2">  1       -1 0.77119183E-02 0.13324141E+03</pdfrwt>
<totfact> 0.84468478E+03</totfact>
</mgrwt>
</event>
<event>
 7    1  0.1422977E-005  0.1410847E+03  0.7546771E-02  0.1223510E+00
          1   -1    0    0  501    0  0.00000000000E+00  0.00000000000E+00  0.11730571368E+04  0.11730571368E+04  0.00000000000E+00 0. -1.
         -1   -1    0    0    0  501 -0.00000000000E+00 -0.00000000000E+00 -0.14181311235E+02  0.14181311235E+02  0.00000000000E+00 0.  1.
         23    2    1    2    0    0 -0.60912624734E+01  0.65142181197E+02  0.38107264753E+03  0.39674323906E+03  0.88928217070E+02 0.  0.
          5    1    1    2  502    0 -0.49390785368E+02 -0.54878837441E+01  0.44688360985E+03  0.44966278176E+03  0.47000000000E+01 0.  1.
         -5    1    1    2    0  502  0.55482047841E+02 -0.59654297453E+02  0.33091956820E+03  0.34083242724E+03  0.47000000000E+01 0.  1.
        -11    1    3    3    0    0 -0.13460551105E+02  0.86035952169E+02  0.27815811197E+03  0.29147093639E+03  0.00000000000E+00 0.  1.
         11    1    3    3    0    0  0.73692886318E+01 -0.20893770972E+02  0.10291453555E+03  0.10527230267E+03  0.00000000000E+00 0. -1.
<mgrwt>
<rscale>  0 0.13269520E+03</rscale>
<asrwt>0</asrwt>
<pdfrwt beam="1">  1        1 0.18047025E+00 0.14108470E+03</pdfrwt>
<pdfrwt beam="2">  1       -1 0.21817411E-02 0.14108470E+03</pdfrwt>
<totfact> 0.70384530E+03</totfact>
</mgrwt>
</event>
<event>
 7    1  0.1422977E-005  0.1697719E+03  0.7546771E-02  0.1184656E+00
          1   -1    0    0  501    0  0.00000000000E+00  0.00000000000E+00  0.85238849837E+02  0.85238849837E+02  0.00000000000E+00 0. -1.
         -1   -1    0    0    0  501 -0.00000000000E+00 -0.00000000000E+00 -0.32531368393E+03  0.32531368393E+03  0.00000000000E+00 0.  1.
         23    2    1    2    0    0  0.81322703798E+01 -0.11459479709E+03 -0.17621437378E+03  0.22916711491E+03  0.90928321710E+02 0.  0.
          5    1    1    2  502    0 -0.20481036713E+02 -0.15136276758E+02 -0.41738679929E+02  0.49120129694E+02  0.47000000000E+01 0.  1.
         -5    1    1    2    0  502  0.12348766333E+02  0.12973107385E+03 -0.22121780389E+02  0.13226528917E+03  0.47000000000E+01 0.  1.
        -11    1    3    3    0    0  0.37989502241E+02 -0.23328841289E+02 -0.88573550618E+02  0.99160027155E+02  0.00000000000E+00 0.  1.
         11    1    3    3    0    0 -0.29857231861E+02 -0.91265955798E+02 -0.87640823160E+02  0.13000708775E+03  0.00000000000E+00 0. -1.
<mgrwt>
<rscale>  0 0.16363209E+03</rscale>
<asrwt>0</asrwt>
<pdfrwt beam="1">  1        1 0.13113669E-01 0.16977194E+03</pdfrwt>
<pdfrwt beam="2">  1       -1 0.50048259E-01 0.16977194E+03</pdfrwt>
<totfact> 0.17966550E+03</totfact>
</mgrwt>
</event>
<event>
 7    1  0.1422977E-005  0.1552095E+03  0.7546771E-02  0.1202387E+00
         -2   -1    0    0    0  501 -0.00000000000E+00  0.00000000000E+00  0.11188967553E+03  0.11188967553E+03  0.00000000000E+00 0.  1.
          2   -1    0    0  501    0  0.00000000000E+00 -0.00000000000E+00 -0.27766633232E+03  0.27766633232E+03  0.00000000000E+00 0. -1.
         23    2    1    2    0    0 -0.32427478936E+02 -0.86101427401E+02  0.36185254733E+02  0.13484323622E+03  0.91696938361E+02 0.  0.
          5    1    1    2  502    0  0.59192610317E+02 -0.55206499659E+01 -0.76394395418E+02  0.96914582719E+02  0.47000000000E+01 0. -1.
         -5    1    1    2    0  502 -0.26765131381E+02  0.91622077367E+02 -0.12556751611E+03  0.15779818890E+03  0.47000000000E+01 0. -1.
        -11    1    3    3    0    0  0.20642497466E+02 -0.11128880760E+02  0.36028169654E+02  0.42988297213E+02  0.00000000000E+00 0. -1.
         11    1    3    3    0    0 -0.53069976402E+02 -0.74972546641E+02  0.15708507913E+00  0.91854939012E+02  0.00000000000E+00 0.  1.
<mgrwt>
<rscale>  0 0.14845293E+03</rscale>
<asrwt>0</asrwt>
<pdfrwt beam="2">  1        2 0.42717897E-01 0.15520948E+03</pdfrwt>
<pdfrwt beam="1">  1       -2 0.17213796E-01 0.15520948E+03</pdfrwt>
<totfact> 0.31449514E+03</totfact>
</mgrwt>
</event>
<event>
 7    1  0.1422977E-005  0.1377649E+03  0.7546771E-02  0.1227942E+00
         -1   -1    0    0    0  501 -0.00000000000E+00  0.00000000000E+00  0.54598782613E+02  0.54598782613E+02  0.00000000000E+00 0.  1.
          1   -1    0    0  501    0  0.00000000000E+00 -0.00000000000E+00 -0.30053281830E+03  0.30053281830E+03  0.00000000000E+00 0. -1.
         23    2    1    2    0    0 -0.38970996612E+02  0.42849782303E+02 -0.59831326539E+02  0.12358593628E+03  0.91317323604E+02 0.  0.
          5    1    1    2  502    0 -0.43859637454E+02 -0.36604092724E+01 -0.44121313871E+02  0.62496773768E+02  0.47000000000E+01 0. -1.
         -5    1    1    2    0  502  0.82830634066E+02 -0.39189373030E+02 -0.14198139528E+03  0.16904889087E+03  0.47000000000E+01 0. -1.
        -11    1    3    3    0    0 -0.24020214355E+02  0.21804349936E+02 -0.82864771999E+02  0.88988599338E+02  0.00000000000E+00 0. -1.
         11    1    3    3    0    0 -0.14950782257E+02  0.21045432367E+02  0.23033445460E+02  0.34597336940E+02  0.00000000000E+00 0.  1.
<mgrwt>
<rscale>  0 0.12967253E+03</rscale>
<asrwt>0</asrwt>
<pdfrwt beam="2">  1        1 0.46235817E-01 0.13776493E+03</pdfrwt>
<pdfrwt beam="1">  1       -1 0.83998129E-02 0.13776493E+03</pdfrwt>
<totfact> 0.66630914E+03</totfact>
</mgrwt>
</event>
<event>
 7    1  0.1422977E-005  0.1353824E+03  0.7546771E-02  0.1228737E+00
          2   -1    0    0  501    0  0.00000000000E+00  0.00000000000E+00  0.10879636442E+04  0.10879636442E+04  0.00000000000E+00 0. -1.
         -2   -1    0    0    0  501 -0.00000000000E+00 -0.00000000000E+00 -0.15054629537E+02  0.15054629537E+02  0.00000000000E+00 0.  1.
         23    2    1    2    0    0 -0.34485871326E+02  0.38933807603E+02  0.34897731840E+03  0.36653643497E+03  0.99290849055E+02 0.  0.
          5    1    1    2  502    0  0.77798456039E+02 -0.15444277445E+01  0.41134430179E+03  0.41866598815E+03  0.47000000000E+01 0. -1.
         -5    1    1    2    0  502 -0.43312584714E+02 -0.37389379858E+02  0.31258739451E+03  0.31781585065E+03  0.47000000000E+01 0. -1.
        -11    1    3    3    0    0  0.34459480500E+01  0.59959762926E+02  0.26831064725E+03  0.27495027033E+03  0.00000000000E+00 0. -1.
         11    1    3    3    0    0 -0.37931819376E+02 -0.21025955323E+02  0.80666671157E+02  0.91586164642E+02  0.00000000000E+00 0.  1.
<mgrwt>
<rscale>  0 0.12914029E+03</rscale>
<asrwt>0</asrwt>
<pdfrwt beam="1">  1        2 0.16737896E+00 0.13538241E+03</pdfrwt>
<pdfrwt beam="2">  1       -2 0.23160977E-02 0.13538241E+03</pdfrwt>
<totfact> 0.13891867E+04</totfact>
</mgrwt>
</event>
<event>
 7    1  0.1422977E-005  0.1580408E+03  0.7546771E-02  0.1198717E+00
         -2   -1    0    0    0  501 -0.00000000000E+00  0.00000000000E+00  0.18963190930E+03  0.18963190930E+03  0.00000000000E+00 0.  1.
          2   -1    0    0  501    0  0.00000000000E+00 -0.00000000000E+00 -0.14926741728E+03  0.14926741728E+03  0.00000000000E+00 0. -1.
         23    2    1    2    0    0 -0.43864358843E+01 -0.96601190306E+02  0.10349740340E+03  0.16871514462E+03  0.91662733564E+02 0.  0.
          5    1    1    2  502    0 -0.55455129164E+02  0.72424138439E+02 -0.50089255092E+02  0.10417077640E+03  0.47000000000E+01 0.  1.
         -5    1    1    2    0  502  0.59841565048E+02  0.24177051867E+02 -0.13043656287E+02  0.66013405561E+02  0.47000000000E+01 0.  1.
        -11    1    3    3    0    0  0.23929598850E+02 -0.66069818647E+02  0.10580097470E+03  0.12701060147E+03  0.00000000000E+00 0.  1.
         11    1    3    3    0    0 -0.28316034734E+02 -0.30531371659E+02 -0.23035713045E+01  0.41704543148E+02  0.00000000000E+00 0. -1.
<mgrwt>
<rscale>  0 0.15143844E+03</rscale>
<asrwt>0</asrwt>
<pdfrwt beam="2">  1        2 0.22964218E-01 0.15804079E+03</pdfrwt>
<pdfrwt beam="1">  1       -2 0.29174140E-01 0.15804079E+03</pdfrwt>
<totfact> 0.24854624E+03</totfact>
</mgrwt>
</event>
<event>
 7    1  0.1422977E-005  0.1754594E+03  0.7546771E-02  0.1178709E+00
         -2   -1    0    0    0  501 -0.00000000000E+00  0.00000000000E+00  0.11711924953E+03  0.11711924953E+03  0.00000000000E+00 0.  1.
          2   -1    0    0  501    0  0.00000000000E+00 -0.00000000000E+00 -0.86322977313E+03  0.86322977313E+03  0.00000000000E+00 0. -1.
         23    2    1    2    0    0  0.28951813724E+02  0.11807840565E+03  0.54191670377E+02  0.16103857756E+03  0.90641982131E+02 0.  0.
          5    1    1    2  502    0 -0.16356848936E+02 -0.14456685253E+03 -0.64979418681E+03  0.66589916396E+03  0.47000000000E+01 0. -1.
         -5    1    1    2    0  502 -0.12594964788E+02  0.26488446874E+02 -0.15050800717E+03  0.15341128113E+03  0.47000000000E+01 0.  1.
        -11    1    3    3    0    0 -0.11499570787E+02  0.72927207615E+00 -0.15012450310E+02  0.18924735939E+02  0.00000000000E+00 0. -1.
         11    1    3    3    0    0  0.40451384512E+02  0.11734913358E+03  0.69204120687E+02  0.14211384162E+03  0.00000000000E+00 0.  1.
<mgrwt>
<rscale>  0 0.16917674E+03</rscale>
<asrwt>0</asrwt>
<pdfrwt beam="2">  1        2 0.13280458E+00 0.17545941E+03</pdfrwt>
<pdfrwt beam="1">  1       -2 0.18018346E-01 0.17545941E+03</pdfrwt>
<totfact> 0.81274356E+02</totfact>
</mgrwt>
</event>
<event>
 7    1  0.1422977E-005  0.1323478E+03  0.7546771E-02  0.1236445E+00
          2   -1    0    0  501    0  0.00000000000E+00  0.00000000000E+00  0.15405351692E+03  0.15405351692E+03  0.00000000000E+00 0.  1.
         -2   -1    0    0    0  501 -0.00000000000E+00 -0.00000000000E+00 -0.91414328957E+02  0.91414328957E+02  0.00000000000E+00 0. -1.
         23    2    1    2    0    0 -0.42244240946E+02  0.10086694489E+02  0.94336696411E+01  0.10282573850E+03  0.92724436240E+02 0.  0.
          5    1    1    2  502    0  0.28584052479E+02  0.19399224352E+02 -0.34465692220E+02  0.49023993123E+02  0.47000000000E+01 0. -1.
         -5    1    1    2    0  502  0.13660188467E+02 -0.29485918841E+02  0.87671210545E+02  0.93618114258E+02  0.47000000000E+01 0. -1.
        -11    1    3    3    0    0 -0.60675776889E+02  0.17326994402E+02 -0.21010987777E+02  0.66507414951E+02  0.00000000000E+00 0. -1.
         11    1    3    3    0    0  0.18431535942E+02 -0.72402999128E+01  0.30444657418E+02  0.36318323548E+02  0.00000000000E+00 0.  1.
<mgrwt>
<rscale>  0 0.12412354E+03</rscale>
<asrwt>0</asrwt>
<pdfrwt beam="1">  1        2 0.23700541E-01 0.13234781E+03</pdfrwt>
<pdfrwt beam="2">  1       -2 0.14063743E-01 0.13234781E+03</pdfrwt>
<totfact> 0.82146991E+03</totfact>
</mgrwt>
</event>
<event>
 7    1  0.1422977E-005  0.4023483E+03  0.7546771E-02  0.1043878E+00
          1   -1    0    0  501    0  0.00000000000E+00  0.00000000000E+00  0.86175435895E+03  0.86175435895E+03  0.00000000000E+00 0.  1.
         -1   -1    0    0    0  501 -0.00000000000E+00 -0.00000000000E+00 -0.19351459442E+03  0.19351459442E+03  0.00000000000E+00 0. -1.
         23    2    1    2    0    0  0.51802998163E+02 -0.37891260791E+03  0.20708382864E+03  0.44326493871E+03  0.85684180326E+02 0.  0.
          5    1    1    2  502    0 -0.11771508910E+02  0.12287486801E+03  0.24551068412E+03  0.27483520086E+03  0.47000000000E+01 0. -1.
         -5    1    1    2    0  502 -0.40031489252E+02  0.25603773990E+03  0.21564525177E+03  0.33716881380E+03  0.47000000000E+01 0. -1.
        -11    1    3    3    0    0  0.25518630658E+02 -0.18446441136E+03  0.52527023088E+02  0.19348748725E+03  0.00000000000E+00 0. -1.
         11    1    3    3    0    0  0.26284367505E+02 -0.19444819655E+03  0.15455680555E+03  0.24977745146E+03  0.00000000000E+00 0.  1.
<mgrwt>
<rscale>  0 0.39971507E+03</rscale>
<asrwt>0</asrwt>
<pdfrwt beam="1">  1        1 0.13257759E+00 0.40234825E+03</pdfrwt>
<pdfrwt beam="2">  1       -1 0.29771477E-01 0.40234825E+03</pdfrwt>
<totfact> 0.21070428E+02</totfact>
</mgrwt>
</event>
<event>
 7    1  0.1422977E-005  0.2303638E+03  0.7546771E-02  0.1126384E+00
         -3   -1    0    0    0  501 -0.00000000000E+00  0.00000000000E+00  0.15941932246E+03  0.15941932246E+03  0.00000000000E+00 0.  1.
          3   -1    0    0  501    0  0.00000000000E+00 -0.00000000000E+00 -0.83219958332E+02  0.83219958332E+02  0.00000000000E+00 0. -1.
         23    2    1    2    0    0 -0.21039122237E+02  0.15093503320E+01  0.55159640988E+02  0.11416967258E+03  0.97709801661E+02 0.  0.
          5    1    1    2  502    0 -0.51271736244E+02  0.60269999660E+01  0.20130254888E+02  0.55609646896E+02  0.47000000000E+01 0. -1.
         -5    1    1    2    0  502  0.72310858481E+02 -0.75363502979E+01  0.90946825098E+00  0.72859961313E+02  0.47000000000E+01 0. -1.
        -11    1    3    3    0    0 -0.31319207446E+02 -0.22618951400E+02 -0.13299899994E+02  0.40858255682E+02  0.00000000000E+00 0.  1.
         11    1    3    3    0    0  0.10280085209E+02  0.24128301732E+02  0.68459540983E+02  0.73311416900E+02  0.00000000000E+00 0. -1.
<mgrwt>
<rscale>  0 0.23036379E+03</rscale>
<asrwt>0</asrwt>
<pdfrwt beam="2">  1        3 0.12803071E-01 0.23036379E+03</pdfrwt>
<pdfrwt beam="1">  1       -3 0.24526050E-01 0.23036379E+03</pdfrwt>
<totfact> 0.18870850E+03</totfact>
</mgrwt>
</event>
<event>
 7    1  0.1422977E-005  0.1476808E+03  0.7546771E-02  0.1223256E+00
          2   -1    0    0  501    0  0.00000000000E+00  0.00000000000E+00  0.34410874564E+03  0.34410874564E+03  0.00000000000E+00 0. -1.
         -2   -1    0    0    0  501 -0.00000000000E+00 -0.00000000000E+00 -0.46139541148E+02  0.46139541148E+02  0.00000000000E+00 0.  1.
         23    2    1    2    0    0 -0.49183682051E+01  0.32641295879E+02  0.73351281251E+02  0.12143080542E+03  0.90969145880E+02 0.  0.
          5    1    1    2  502    0  0.55675894510E+02 -0.71079734662E+01  0.19807881963E+03  0.20593114700E+03  0.47000000000E+01 0. -1.
         -5    1    1    2    0  502 -0.50757526305E+02 -0.25533322413E+02  0.26539103611E+02  0.62886334370E+02  0.47000000000E+01 0.  1.
        -11    1    3    3    0    0 -0.28368042327E+02  0.25293054767E+02  0.85831125755E+02  0.93869412448E+02  0.00000000000E+00 0.  1.
         11    1    3    3    0    0  0.23449674122E+02  0.73482411121E+01 -0.12479844504E+02  0.27561392975E+02  0.00000000000E+00 0. -1.
<mgrwt>
<rscale>  0 0.13287147E+03</rscale>
<asrwt>0</asrwt>
<pdfrwt beam="1">  1        2 0.52939805E-01 0.14768083E+03</pdfrwt>
<pdfrwt beam="2">  1       -2 0.70983912E-02 0.14768083E+03</pdfrwt>
<totfact> 0.10231884E+04</totfact>
</mgrwt>
</event>
<event>
 7    1  0.1422977E-005  0.1400075E+03  0.7546771E-02  0.1224527E+00
          2   -1    0    0  501    0  0.00000000000E+00  0.00000000000E+00  0.22837162595E+03  0.22837162595E+03  0.00000000000E+00 0. -1.
         -2   -1    0    0    0  501 -0.00000000000E+00 -0.00000000000E+00 -0.77784888606E+02  0.77784888606E+02  0.00000000000E+00 0.  1.
         23    2    1    2    0    0  0.17196152433E+02 -0.60665216105E+02  0.15641723580E+02  0.11170278547E+03  0.90867335502E+02 0.  0.
          5    1    1    2  502    0 -0.31153082545E+02 -0.24553417690E+02  0.86619950458E+02  0.95386008878E+02  0.47000000000E+01 0. -1.
         -5    1    1    2    0  502  0.13956930112E+02  0.85218633796E+02  0.48325063307E+02  0.99067720211E+02  0.47000000000E+01 0. -1.
        -11    1    3    3    0    0  0.86269507243E+01  0.22623659855E+02  0.13977826362E+02  0.27957716177E+02  0.00000000000E+00 0. -1.
         11    1    3    3    0    0  0.85692017091E+01 -0.83288875960E+02  0.16638972173E+01  0.83745069291E+02  0.00000000000E+00 0.  1.
<mgrwt>
<rscale>  0 0.13199406E+03</rscale>
<asrwt>0</asrwt>
<pdfrwt beam="1">  1        2 0.35134096E-01 0.14000749E+03</pdfrwt>
<pdfrwt beam="2">  1       -2 0.11966906E-01 0.14000749E+03</pdfrwt>
<totfact> 0.69678514E+03</totfact>
</mgrwt>
</event>
<event>
 7    1  0.1422977E-005  0.1557508E+03  0.7546771E-02  0.1202530E+00
         -2   -1    0    0    0  501 -0.00000000000E+00  0.00000000000E+00  0.48553718005E+02  0.48553718005E+02  0.00000000000E+00 0.  1.
          2   -1    0    0  501    0  0.00000000000E+00 -0.00000000000E+00 -0.41749451827E+03  0.41749451827E+03  0.00000000000E+00 0. -1.
         23    2    1    2    0    0  0.92007210900E+02  0.12948577354E+02 -0.18455644009E+03  0.22468564643E+03  0.88258527177E+02 0.  0.
          5    1    1    2  502    0  0.93848730517E+01  0.39581742050E+02 -0.40294641785E+02  0.57450311597E+02  0.47000000000E+01 0. -1.
         -5    1    1    2    0  502 -0.10139208395E+03 -0.52530319405E+02 -0.14408971838E+03  0.18391227824E+03  0.47000000000E+01 0. -1.
        -11    1    3    3    0    0  0.30657712428E+02 -0.24342862812E+02 -0.12630415232E+03  0.13223164975E+03  0.00000000000E+00 0. -1.
         11    1    3    3    0    0  0.61349498472E+02  0.37291440166E+02 -0.58252287774E+02  0.92453996686E+02  0.00000000000E+00 0.  1.
<mgrwt>
<rscale>  0 0.14833813E+03</rscale>
<asrwt>0</asrwt>
<pdfrwt beam="2">  1        2 0.64229924E-01 0.15575079E+03</pdfrwt>
<pdfrwt beam="1">  1       -2 0.74698030E-02 0.15575079E+03</pdfrwt>
<totfact> 0.77193794E+03</totfact>
</mgrwt>
</event>
<event>
 7    1  0.1422977E-005  0.1642213E+03  0.7546771E-02  0.1191030E+00
          2   -1    0    0  501    0  0.00000000000E+00  0.00000000000E+00  0.18876570273E+04  0.18876570273E+04  0.00000000000E+00 0. -1.
         -2   -1    0    0    0  501 -0.00000000000E+00 -0.00000000000E+00 -0.13304134665E+02  0.13304134665E+02  0.00000000000E+00 0.  1.
         23    2    1    2    0    0 -0.99998832656E+02  0.36667682689E+02  0.60954004582E+03  0.62553175352E+03  0.91687631163E+02 0.  0.
          5    1    1    2  502    0  0.10921053736E+03 -0.68930924693E+02  0.93682479142E+03  0.94569614235E+03  0.47000000000E+01 0. -1.
         -5    1    1    2    0  502 -0.92117046998E+01  0.32263242004E+02  0.32798805537E+03  0.32973326607E+03  0.47000000000E+01 0. -1.
        -11    1    3    3    0    0 -0.19222824600E+02 -0.29675366493E+02  0.18166254935E+03  0.18507140838E+03  0.00000000000E+00 0. -1.
         11    1    3    3    0    0 -0.80776008056E+02  0.66343049182E+02  0.42787749647E+03  0.44046034514E+03  0.00000000000E+00 0.  1.
<mgrwt>
<rscale>  0 0.15795032E+03</rscale>
<asrwt>0</asrwt>
<pdfrwt beam="1">  1        2 0.29040856E+00 0.16422131E+03</pdfrwt>
<pdfrwt beam="2">  1       -2 0.20467914E-02 0.16422131E+03</pdfrwt>
<totfact> 0.63097470E+03</totfact>
</mgrwt>
</event>
<event>
 7    1  0.1422977E-005  0.1290580E+03  0.7546771E-02  0.1239739E+00
          2   -1    0    0  501    0  0.00000000000E+00  0.00000000000E+00  0.50548233886E+03  0.50548233886E+03  0.00000000000E+00 0. -1.
         -2   -1    0    0    0  501 -0.00000000000E+00 -0.00000000000E+00 -0.26959863776E+02  0.26959863776E+02  0.00000000000E+00 0.  1.
         23    2    1    2    0    0  0.13234915228E+02 -0.29272892711E+02  0.18660107360E+03  0.21326500897E+03  0.98132248274E+02 0.  0.
          5    1    1    2  502    0 -0.49103049234E+02  0.48258495735E+02  0.25479171204E+03  0.26397139689E+03  0.47000000000E+01 0.  1.
         -5    1    1    2    0  502  0.35868134006E+02 -0.18985603025E+02  0.37129689442E+02  0.55205796773E+02  0.47000000000E+01 0.  1.
        -11    1    3    3    0    0  0.52300123615E+02 -0.20300916406E+02  0.68467943999E+02  0.88517170609E+02  0.00000000000E+00 0.  1.
         11    1    3    3    0    0 -0.39065208388E+02 -0.89719763042E+01  0.11813312960E+03  0.12474783836E+03  0.00000000000E+00 0. -1.
<mgrwt>
<rscale>  0 0.12205867E+03</rscale>
<asrwt>0</asrwt>
<pdfrwt beam="1">  1        2 0.77766507E-01 0.12905803E+03</pdfrwt>
<pdfrwt beam="2">  1       -2 0.41476717E-02 0.12905803E+03</pdfrwt>
<totfact> 0.15065151E+04</totfact>
</mgrwt>
</event>
<event>
 7    1  0.1422977E-005  0.1119494E+03  0.7546771E-02  0.1268482E+00
          2   -1    0    0  501    0  0.00000000000E+00  0.00000000000E+00  0.15449129715E+04  0.15449129715E+04  0.00000000000E+00 0. -1.
         -2   -1    0    0    0  501 -0.00000000000E+00 -0.00000000000E+00 -0.19622398471E+02  0.19622398471E+02  0.00000000000E+00 0.  1.
         23    2    1    2    0    0 -0.53082629742E+01  0.12939512317E+02  0.97258714037E+02  0.13212214380E+03  0.88325504763E+02 0.  0.
          5    1    1    2  502    0  0.54818243847E+02 -0.18107821941E+02  0.57285014269E+03  0.57577105611E+03  0.47000000000E+01 0. -1.
         -5    1    1    2    0  502 -0.49509980873E+02  0.51683096237E+01  0.85518171633E+03  0.85664217009E+03  0.47000000000E+01 0.  1.
        -11    1    3    3    0    0  0.27602867676E+02  0.37537118022E+02  0.64526880855E+02  0.79590652003E+02  0.00000000000E+00 0.  1.
         11    1    3    3    0    0 -0.32911130650E+02 -0.24597605705E+02  0.32731833182E+02  0.52531491798E+02  0.00000000000E+00 0. -1.
<mgrwt>
<rscale>  0 0.10583569E+03</rscale>
<asrwt>0</asrwt>
<pdfrwt beam="1">  1        2 0.23767882E+00 0.11194936E+03</pdfrwt>
<pdfrwt beam="2">  1       -2 0.30188317E-02 0.11194936E+03</pdfrwt>
<totfact> 0.53118496E+03</totfact>
</mgrwt>
</event>
<event>
 7    1  0.1422977E-005  0.1278489E+03  0.7546771E-02  0.1246378E+00
         -1   -1    0    0    0  501 -0.00000000000E+00  0.00000000000E+00  0.47848993149E+02  0.47848993149E+02  0.00000000000E+00 0.  1.
          1   -1    0    0  501    0  0.00000000000E+00 -0.00000000000E+00 -0.36193080664E+03  0.36193080664E+03  0.00000000000E+00 0. -1.
         23    2    1    2    0    0  0.70205237869E+00  0.26834021800E+02 -0.28932285547E+02  0.97280839440E+02  0.88915279742E+02 0.  0.
          5    1    1    2  502    0 -0.20522979806E+02  0.22484305046E+02 -0.24178825072E+03  0.24374245601E+03  0.47000000000E+01 0. -1.
         -5    1    1    2    0  502  0.19820927427E+02 -0.49318326847E+02 -0.43361277224E+02  0.68756504343E+02  0.47000000000E+01 0. -1.
        -11    1    3    3    0    0  0.37952657982E+02 -0.75917403724E+01  0.36355238987E+00  0.38706213198E+02  0.00000000000E+00 0.  1.
         11    1    3    3    0    0 -0.37250605603E+02  0.34425762173E+02 -0.29295837937E+02  0.58574626242E+02  0.00000000000E+00 0. -1.
<mgrwt>
<rscale>  0 0.11803262E+03</rscale>
<asrwt>0</asrwt>
<pdfrwt beam="2">  1        1 0.55681664E-01 0.12784892E+03</pdfrwt>
<pdfrwt beam="1">  1       -1 0.73613834E-02 0.12784892E+03</pdfrwt>
<totfact> 0.64214189E+03</totfact>
</mgrwt>
</event>
<event>
 7    1  0.1422977E-005  0.1503166E+03  0.7546771E-02  0.1208901E+00
         -2   -1    0    0    0  501 -0.00000000000E+00  0.00000000000E+00  0.15193986719E+02  0.15193986719E+02  0.00000000000E+00 0.  1.
          2   -1    0    0  501    0  0.00000000000E+00 -0.00000000000E+00 -0.18748604986E+04  0.18748604986E+04  0.00000000000E+00 0. -1.
         23    2    1    2    0    0  0.83449451105E+02 -0.27241341581E+01 -0.32362293899E+03  0.34667347613E+03  0.92083986729E+02 0.  0.
          5    1    1    2  502    0 -0.41931897999E+02  0.49444572109E+01 -0.14086817789E+04  0.14093222399E+04  0.47000000000E+01 0. -1.
         -5    1    1    2    0  502 -0.41517553106E+02 -0.22203230528E+01 -0.12736179397E+03  0.13405876925E+03  0.47000000000E+01 0. -1.
        -11    1    3    3    0    0  0.28707260599E+02 -0.42661587338E+02 -0.92616714862E+02  0.10593381763E+03  0.00000000000E+00 0.  1.
         11    1    3    3    0    0  0.54742190506E+02  0.39937453180E+02 -0.23100622413E+03  0.24073965850E+03  0.00000000000E+00 0. -1.
<mgrwt>
<rscale>  0 0.14334208E+03</rscale>
<asrwt>0</asrwt>
<pdfrwt beam="2">  1        2 0.28843984E+00 0.15031660E+03</pdfrwt>
<pdfrwt beam="1">  1       -2 0.23375383E-02 0.15031660E+03</pdfrwt>
<totfact> 0.52682303E+03</totfact>
</mgrwt>
</event>
<event>
 7    1  0.1422977E-005  0.1313716E+03  0.7546771E-02  0.1238305E+00
         -1   -1    0    0    0  501 -0.00000000000E+00  0.00000000000E+00  0.12585325786E+03  0.12585325786E+03  0.00000000000E+00 0.  1.
          1   -1    0    0  501    0  0.00000000000E+00 -0.00000000000E+00 -0.14191462616E+03  0.14191462616E+03  0.00000000000E+00 0. -1.
         23    2    1    2    0    0 -0.36807472718E+02  0.16510865176E+02  0.58671339643E+02  0.11662732030E+03  0.92369946570E+02 0.  0.
          5    1    1    2  502    0  0.46064119814E+02  0.46106009553E+02 -0.52723001239E+02  0.83961134526E+02  0.47000000000E+01 0.  1.
         -5    1    1    2    0  502 -0.92566470963E+01 -0.62616874729E+02 -0.22009706708E+02  0.67179429185E+02  0.47000000000E+01 0.  1.
        -11    1    3    3    0    0 -0.22581709398E+02  0.10173701901E+02  0.83623365390E+02  0.87214133309E+02  0.00000000000E+00 0.  1.
         11    1    3    3    0    0 -0.14225763320E+02  0.63371632744E+01 -0.24952025747E+02  0.29413186996E+02  0.00000000000E+00 0. -1.
<mgrwt>
<rscale>  0 0.12295202E+03</rscale>
<asrwt>0</asrwt>
<pdfrwt beam="2">  1        1 0.21833019E-01 0.13137158E+03</pdfrwt>
<pdfrwt beam="1">  1       -1 0.19362040E-01 0.13137158E+03</pdfrwt>
<totfact> 0.46271784E+03</totfact>
</mgrwt>
</event>
<event>
 7    1  0.1422977E-005  0.1331606E+03  0.7546771E-02  0.1234921E+00
          1   -1    0    0  501    0  0.00000000000E+00  0.00000000000E+00  0.59112234526E+03  0.59112234526E+03  0.00000000000E+00 0. -1.
         -1   -1    0    0    0  501 -0.00000000000E+00 -0.00000000000E+00 -0.23743060432E+02  0.23743060432E+02  0.00000000000E+00 0.  1.
         23    2    1    2    0    0  0.97891282286E+01 -0.44846993988E+02  0.25559031464E+03  0.27583133013E+03  0.93002332462E+02 0.  0.
          5    1    1    2  502    0 -0.23658971205E+01 -0.29330083002E+02  0.15725399107E+02  0.33693165704E+02  0.47000000000E+01 0. -1.
         -5    1    1    2    0  502 -0.74232311081E+01  0.74177076990E+02  0.29606357108E+03  0.30534090986E+03  0.47000000000E+01 0. -1.
        -11    1    3    3    0    0  0.51425349112E+02 -0.29078297717E+02  0.15211687385E+03  0.16318595908E+03  0.00000000000E+00 0. -1.
         11    1    3    3    0    0 -0.41636220884E+02 -0.15768696271E+02  0.10347344078E+03  0.11264537105E+03  0.00000000000E+00 0.  1.
<mgrwt>
<rscale>  0 0.12509522E+03</rscale>
<asrwt>0</asrwt>
<pdfrwt beam="1">  1        1 0.90941888E-01 0.13316059E+03</pdfrwt>
<pdfrwt beam="2">  1       -1 0.36527790E-02 0.13316059E+03</pdfrwt>
<totfact> 0.96514061E+03</totfact>
</mgrwt>
</event>
<event>
 7    1  0.1422977E-005  0.1663032E+03  0.7546771E-02  0.1189377E+00
          1   -1    0    0  501    0  0.00000000000E+00  0.00000000000E+00  0.16246484110E+03  0.16246484110E+03  0.00000000000E+00 0. -1.
         -1   -1    0    0    0  501 -0.00000000000E+00 -0.00000000000E+00 -0.17780558623E+03  0.17780558623E+03  0.00000000000E+00 0.  1.
         23    2    1    2    0    0 -0.41175351103E+02  0.10167202739E+03 -0.80328322120E+02  0.16172028644E+03  0.87568264921E+02 0.  0.
          5    1    1    2  502    0  0.26854215929E+00  0.25137857124E+02  0.32437353164E+02  0.41306849988E+02  0.47000000000E+01 0. -1.
         -5    1    1    2    0  502  0.40906808944E+02 -0.12680988451E+03  0.32550223824E+02  0.13724329090E+03  0.47000000000E+01 0. -1.
        -11    1    3    3    0    0 -0.52236852096E+02  0.50130934905E+02 -0.81472146351E+02  0.10899316484E+03  0.00000000000E+00 0.  1.
         11    1    3    3    0    0  0.11061500993E+02  0.51541092480E+02  0.11438242313E+01  0.52727121599E+02  0.00000000000E+00 0. -1.
<mgrwt>
<rscale>  0 0.15939917E+03</rscale>
<asrwt>0</asrwt>
<pdfrwt beam="1">  1        1 0.24994591E-01 0.16630324E+03</pdfrwt>
<pdfrwt beam="2">  1       -1 0.27354706E-01 0.16630324E+03</pdfrwt>
<totfact> 0.22446227E+03</totfact>
</mgrwt>
</event>
<event>
 7    1  0.1422977E-005  0.1380464E+03  0.7546771E-02  0.1228041E+00
          1   -1    0    0  501    0  0.00000000000E+00  0.00000000000E+00  0.34400998651E+03  0.34400998651E+03  0.00000000000E+00 0. -1.
         -1   -1    0    0    0  501 -0.00000000000E+00 -0.00000000000E+00 -0.44185846180E+02  0.44185846180E+02  0.00000000000E+00 0.  1.
         23    2    1    2    0    0  0.30395478906E+02 -0.50075390082E+02  0.11172629825E+03  0.15487713020E+03  0.89848371766E+02 0.  0.
          5    1    1    2  502    0 -0.38566114048E+02 -0.76080286901E+01  0.16628469130E+03  0.17093248905E+03  0.47000000000E+01 0. -1.
         -5    1    1    2    0  502  0.81706351418E+01  0.57683418772E+02  0.21813150783E+02  0.62386213437E+02  0.47000000000E+01 0. -1.
        -11    1    3    3    0    0  0.14129717952E+02 -0.74812510465E+02  0.68062919633E+02  0.10212307124E+03  0.00000000000E+00 0.  1.
         11    1    3    3    0    0  0.16265760954E+02  0.24737120382E+02  0.43663378616E+02  0.52754058957E+02  0.00000000000E+00 0. -1.
<mgrwt>
<rscale>  0 0.12960620E+03</rscale>
<asrwt>0</asrwt>
<pdfrwt beam="1">  1        1 0.52924612E-01 0.13804644E+03</pdfrwt>
<pdfrwt beam="2">  1       -1 0.67978227E-02 0.13804644E+03</pdfrwt>
<totfact> 0.77476998E+03</totfact>
</mgrwt>
</event>
<event>
 7    1  0.1422977E-005  0.1900725E+03  0.7546771E-02  0.1163390E+00
         -1   -1    0    0    0  501 -0.00000000000E+00  0.00000000000E+00  0.27755420296E+03  0.27755420296E+03  0.00000000000E+00 0.  1.
          1   -1    0    0  501    0  0.00000000000E+00 -0.00000000000E+00 -0.19277248128E+03  0.19277248128E+03  0.00000000000E+00 0. -1.
         23    2    1    2    0    0  0.11931030819E+03  0.79166026854E+02  0.18888382351E+03  0.25361308509E+03  0.90223548462E+02 0.  0.
          5    1    1    2  502    0  0.17811321792E+01 -0.68199139022E+02 -0.38550695370E+02  0.78501854173E+02  0.47000000000E+01 0. -1.
         -5    1    1    2    0  502 -0.12109144037E+03 -0.10966887833E+02 -0.65551406461E+02  0.13821174498E+03  0.47000000000E+01 0. -1.
        -11    1    3    3    0    0  0.52748765541E+02  0.71512509596E+02  0.15467768677E+03  0.17838626090E+03  0.00000000000E+00 0.  1.
         11    1    3    3    0    0  0.66561542653E+02  0.76535172584E+01  0.34206136739E+02  0.75226824188E+02  0.00000000000E+00 0. -1.
<mgrwt>
<rscale>  0 0.18463573E+03</rscale>
<asrwt>0</asrwt>
<pdfrwt beam="2">  1        1 0.29657305E-01 0.19007245E+03</pdfrwt>
<pdfrwt beam="1">  1       -1 0.42700647E-01 0.19007245E+03</pdfrwt>
<totfact> 0.84257105E+02</totfact>
</mgrwt>
</event>
<event>
 7    1  0.1422977E-005  0.1600261E+03  0.7546771E-02  0.1196353E+00
         -2   -1    0    0    0  501 -0.00000000000E+00  0.00000000000E+00  0.14599354420E+02  0.14599354420E+02  0.00000000000E+00 0.  1.
          2   -1    0    0  501    0  0.00000000000E+00 -0.00000000000E+00 -0.14926223633E+04  0.14926223633E+04  0.00000000000E+00 0. -1.
         23    2    1    2    0    0  0.87500283572E+02  0.48259507545E+02 -0.65919007024E+03  0.67289819466E+03  0.90967862304E+02 0.  0.
          5    1    1    2  502    0 -0.10069371089E+03 -0.21879338617E+02 -0.35909552711E+03  0.37361693814E+03  0.47000000000E+01 0.  1.
         -5    1    1    2    0  502  0.13193427323E+02 -0.26380168928E+02 -0.45973741155E+03  0.46070658495E+03  0.47000000000E+01 0.  1.
        -11    1    3    3    0    0 -0.13619671298E+02 -0.29360577160E+01 -0.24648759246E+02  0.28313904950E+02  0.00000000000E+00 0.  1.
         11    1    3    3    0    0  0.10111995487E+03  0.51195565261E+02 -0.63454131100E+03  0.64458428971E+03  0.00000000000E+00 0. -1.
<mgrwt>
<rscale>  0 0.15340236E+03</rscale>
<asrwt>0</asrwt>
<pdfrwt beam="2">  1        2 0.22963407E+00 0.16002612E+03</pdfrwt>
<pdfrwt beam="1">  1       -2 0.22460559E-02 0.16002612E+03</pdfrwt>
<totfact> 0.88158011E+03</totfact>
</mgrwt>
</event>
<event>
 7    1  0.1422977E-005  0.1314237E+03  0.7546771E-02  0.1238578E+00
         -2   -1    0    0    0  501 -0.00000000000E+00  0.00000000000E+00  0.22701338977E+03  0.22701338977E+03  0.00000000000E+00 0. -1.
          2   -1    0    0  501    0  0.00000000000E+00 -0.00000000000E+00 -0.59840494298E+02  0.59840494298E+02  0.00000000000E+00 0.  1.
         23    2    1    2    0    0 -0.27347319753E+02 -0.29796276609E+02  0.88877195168E+02  0.13387541081E+03  0.91584801146E+02 0.  0.
          5    1    1    2  502    0  0.48172964061E+02  0.11957390287E+02 -0.17797988379E+02  0.52938379643E+02  0.47000000000E+01 0.  1.
         -5    1    1    2    0  502 -0.20825644307E+02  0.17838886322E+02  0.96093688682E+02  0.10004009361E+03  0.47000000000E+01 0.  1.
        -11    1    3    3    0    0 -0.29486532851E+02  0.90626002803E+01  0.89795981561E+02  0.94946851701E+02  0.00000000000E+00 0. -1.
         11    1    3    3    0    0  0.21392130977E+01 -0.38858876889E+02 -0.91878639345E+00  0.38928559108E+02  0.00000000000E+00 0.  1.
<mgrwt>
<rscale>  0 0.12278141E+03</rscale>
<asrwt>0</asrwt>
<pdfrwt beam="2">  1        2 0.92062300E-02 0.13142373E+03</pdfrwt>
<pdfrwt beam="1">  1       -2 0.34925137E-01 0.13142373E+03</pdfrwt>
<totfact> 0.51979322E+03</totfact>
</mgrwt>
</event>
<event>
 7    1  0.1422977E-005  0.1525913E+03  0.7546771E-02  0.1205891E+00
         -1   -1    0    0    0  501 -0.00000000000E+00  0.00000000000E+00  0.21079310953E+03  0.21079310953E+03  0.00000000000E+00 0.  1.
          1   -1    0    0  501    0  0.00000000000E+00 -0.00000000000E+00 -0.97264620512E+02  0.97264620512E+02  0.00000000000E+00 0. -1.
         23    2    1    2    0    0  0.47856850336E+02  0.73272298698E+02  0.85558722740E+02  0.15292424721E+03  0.91686544629E+02 0.  0.
          5    1    1    2  502    0 -0.69383679010E+01 -0.42159857635E+02  0.74257513603E+02  0.85801298775E+02  0.47000000000E+01 0. -1.
         -5    1    1    2    0  502 -0.40918482435E+02 -0.31112441063E+02 -0.46287747329E+02  0.69332184059E+02  0.47000000000E+01 0. -1.
        -11    1    3    3    0    0  0.71375350502E+02  0.43862338935E+02  0.37279871650E+02  0.91695879223E+02  0.00000000000E+00 0.  1.
         11    1    3    3    0    0 -0.23518500167E+02  0.29409959763E+02  0.48278851089E+02  0.61228367983E+02  0.00000000000E+00 0. -1.
<mgrwt>
<rscale>  0 0.14567469E+03</rscale>
<asrwt>0</asrwt>
<pdfrwt beam="2">  1        1 0.14963788E-01 0.15259125E+03</pdfrwt>
<pdfrwt beam="1">  1       -1 0.32429709E-01 0.15259125E+03</pdfrwt>
<totfact> 0.32370947E+03</totfact>
</mgrwt>
</event>
<event>
 7    1  0.1422977E-005  0.2164508E+03  0.7546771E-02  0.1139929E+00
          2   -1    0    0  501    0  0.00000000000E+00  0.00000000000E+00  0.14679199602E+04  0.14679199602E+04  0.00000000000E+00 0. -1.
         -2   -1    0    0    0  501 -0.00000000000E+00 -0.00000000000E+00 -0.42528739804E+02  0.42528739804E+02  0.00000000000E+00 0.  1.
         23    2    1    2    0    0 -0.17445825327E+03 -0.28131418906E+02  0.27422880833E+03  0.33911363533E+03  0.92571915195E+02 0.  0.
          5    1    1    2  502    0  0.91085508645E+02 -0.47675227970E+02  0.50066237423E+03  0.51113051193E+03  0.47000000000E+01 0. -1.
         -5    1    1    2    0  502  0.83372744624E+02  0.75806646876E+02  0.65050003781E+03  0.66020455273E+03  0.47000000000E+01 0. -1.
        -11    1    3    3    0    0 -0.15337461638E+02  0.20198298754E+01 -0.50509383488E+01  0.16273580442E+02  0.00000000000E+00 0.  1.
         11    1    3    3    0    0 -0.15912079163E+03 -0.30151248781E+02  0.27927974668E+03  0.32284005489E+03  0.00000000000E+00 0. -1.
<mgrwt>
<rscale>  0 0.21208020E+03</rscale>
<asrwt>0</asrwt>
<pdfrwt beam="1">  1        2 0.22583380E+00 0.21645077E+03</pdfrwt>
<pdfrwt beam="2">  1       -2 0.65428842E-02 0.21645077E+03</pdfrwt>
<totfact> 0.18410938E+03</totfact>
</mgrwt>
</event>
<event>
 7    1  0.1422977E-005  0.1434666E+03  0.7546771E-02  0.1218298E+00
         -4   -1    0    0    0  501 -0.00000000000E+00  0.00000000000E+00  0.25896314057E+02  0.25896314057E+02  0.00000000000E+00 0.  1.
          4   -1    0    0  501    0  0.00000000000E+00 -0.00000000000E+00 -0.69299554913E+03  0.69299554913E+03  0.00000000000E+00 0. -1.
         23    2    1    2    0    0 -0.61776900194E+02  0.33768995946E+02 -0.21849895409E+03  0.24790896733E+03  0.93596648770E+02 0.  0.
          5    1    1    2  502    0  0.44758672810E+02  0.39852748245E+02 -0.12582551584E+03  0.13944795004E+03  0.47000000000E+01 0.  1.
         -5    1    1    2    0  502  0.17018227384E+02 -0.73621744192E+02 -0.32277476514E+03  0.33153494581E+03  0.47000000000E+01 0.  1.
        -11    1    3    3    0    0  0.19463956773E+02 -0.37371829705E+01 -0.12808400109E+02  0.23598035155E+02  0.00000000000E+00 0. -1.
         11    1    3    3    0    0 -0.81240856967E+02  0.37506178917E+02 -0.20569055398E+03  0.22431093218E+03  0.00000000000E+00 0.  1.
<mgrwt>
<rscale>  0 0.13637063E+03</rscale>
<asrwt>0</asrwt>
<pdfrwt beam="2">  1        4 0.10661470E+00 0.14346664E+03</pdfrwt>
<pdfrwt beam="1">  1       -4 0.39840484E-02 0.14346664E+03</pdfrwt>
<totfact> 0.42576690E+02</totfact>
</mgrwt>
</event>
<event>
 7    1  0.1422977E-005  0.1319742E+03  0.7546771E-02  0.1238016E+00
          2   -1    0    0  501    0  0.00000000000E+00  0.00000000000E+00  0.98748123033E+02  0.98748123033E+02  0.00000000000E+00 0. -1.
         -2   -1    0    0    0  501 -0.00000000000E+00 -0.00000000000E+00 -0.17587861954E+03  0.17587861954E+03  0.00000000000E+00 0.  1.
         23    2    1    2    0    0 -0.33333731496E+02 -0.26116427937E+02 -0.99151789028E+02  0.14082790804E+03  0.90599210547E+02 0.  0.
          5    1    1    2  502    0  0.25303498659E+02 -0.48522060977E+02 -0.16380239689E+01  0.54949345477E+02  0.47000000000E+01 0.  1.
         -5    1    1    2    0  502  0.80302328373E+01  0.74638488914E+02  0.23659316494E+02  0.78849489052E+02  0.47000000000E+01 0.  1.
        -11    1    3    3    0    0 -0.22253873229E+02  0.57222619362E+01 -0.10423297931E+03  0.10673562260E+03  0.00000000000E+00 0.  1.
         11    1    3    3    0    0 -0.11079858267E+02 -0.31838689873E+02  0.50811902813E+01  0.34092285443E+02  0.00000000000E+00 0. -1.
<mgrwt>
<rscale>  0 0.12313301E+03</rscale>
<asrwt>0</asrwt>
<pdfrwt beam="1">  1        2 0.15192019E-01 0.13197421E+03</pdfrwt>
<pdfrwt beam="2">  1       -2 0.27058249E-01 0.13197421E+03</pdfrwt>
<totfact> 0.45120790E+03</totfact>
</mgrwt>
</event>
<event>
 7    1  0.1422977E-005  0.1377043E+03  0.7546771E-02  0.1228868E+00
          2   -1    0    0  501    0  0.00000000000E+00  0.00000000000E+00  0.34032930109E+03  0.34032930109E+03  0.00000000000E+00 0. -1.
         -2   -1    0    0    0  501 -0.00000000000E+00 -0.00000000000E+00 -0.44807543581E+02  0.44807543581E+02  0.00000000000E+00 0.  1.
         23    2    1    2    0    0  0.45289526713E+02  0.35856612763E+02  0.15906403464E+03  0.19127302851E+03  0.89146881114E+02 0.  0.
          5    1    1    2  502    0 -0.15455291498E+02 -0.49298937849E+01  0.14812857935E+03  0.14908834934E+03  0.47000000000E+01 0. -1.
         -5    1    1    2    0  502 -0.29834235214E+02 -0.30926718978E+02 -0.11670856484E+02  0.44775466816E+02  0.47000000000E+01 0. -1.
        -11    1    3    3    0    0  0.51277059509E+02  0.57696221662E+01  0.15097193691E+03  0.15954670509E+03  0.00000000000E+00 0. -1.
         11    1    3    3    0    0 -0.59875327964E+01  0.30086990597E+02  0.80920977308E+01  0.31726323421E+02  0.00000000000E+00 0.  1.
<mgrwt>
<rscale>  0 0.12905311E+03</rscale>
<asrwt>0</asrwt>
<pdfrwt beam="1">  1        2 0.52358352E-01 0.13770428E+03</pdfrwt>
<pdfrwt beam="2">  1       -2 0.68934685E-02 0.13770428E+03</pdfrwt>
<totfact> 0.10773036E+04</totfact>
</mgrwt>
</event>
<event>
 7    1  0.1422977E-005  0.1658410E+03  0.7546771E-02  0.1189132E+00
          1   -1    0    0  501    0  0.00000000000E+00  0.00000000000E+00  0.24724607079E+03  0.24724607079E+03  0.00000000000E+00 0. -1.
         -1   -1    0    0    0  501 -0.00000000000E+00 -0.00000000000E+00 -0.96210639595E+02  0.96210639595E+02  0.00000000000E+00 0.  1.
         23    2    1    2    0    0  0.10872496937E+03 -0.75321074017E+01  0.77539197687E+02  0.16205954535E+03  0.91504740061E+02 0.  0.
          5    1    1    2  502    0 -0.10660022976E+03  0.13646771187E+02  0.10674143783E+00  0.10757297403E+03  0.47000000000E+01 0.  1.
         -5    1    1    2    0  502 -0.21247396127E+01 -0.61146637854E+01  0.73389492073E+02  0.73824191011E+02  0.47000000000E+01 0.  1.
        -11    1    3    3    0    0  0.14430896252E+02  0.22558700251E+02  0.54066892067E+02  0.60335516418E+02  0.00000000000E+00 0. -1.
         11    1    3    3    0    0  0.94294073118E+02 -0.30090807652E+02  0.23472305620E+02  0.10172402893E+03  0.00000000000E+00 0.  1.
<mgrwt>
<rscale>  0 0.15961535E+03</rscale>
<asrwt>0</asrwt>
<pdfrwt beam="1">  1        1 0.38037857E-01 0.16584099E+03</pdfrwt>
<pdfrwt beam="2">  1       -1 0.14801637E-01 0.16584099E+03</pdfrwt>
<totfact> 0.35817237E+03</totfact>
</mgrwt>
</event>
<event>
 7    1  0.1422977E-005  0.1650371E+03  0.7546771E-02  0.1202998E+00
          2   -1    0    0  501    0  0.00000000000E+00  0.00000000000E+00  0.17269509874E+04  0.17269509874E+04  0.00000000000E+00 0.  1.
         -2   -1    0    0    0  501 -0.00000000000E+00 -0.00000000000E+00 -0.21016501657E+02  0.21016501657E+02  0.00000000000E+00 0. -1.
         23    2    1    2    0    0  0.42886815907E+02  0.42304034861E+02  0.15417165675E+03  0.18745310815E+03  0.87982144022E+02 0.  0.
          5    1    1    2  502    0 -0.32152421890E+02 -0.46119690902E+01  0.61333448897E+02  0.69562421219E+02  0.47000000000E+01 0. -1.
         -5    1    1    2    0  502 -0.10734394017E+02 -0.37692065771E+02  0.14904293801E+04  0.14909519597E+04  0.47000000000E+01 0.  1.
        -11    1    3    3    0    0 -0.13585979719E+02 -0.17183784938E+02  0.17417504297E+02  0.27986260301E+02  0.00000000000E+00 0.  1.
         11    1    3    3    0    0  0.56472795627E+02  0.59487819799E+02  0.13675415246E+03  0.15946684785E+03  0.00000000000E+00 0. -1.
<mgrwt>
<rscale>  0 0.14796371E+03</rscale>
<asrwt>0</asrwt>
<pdfrwt beam="1">  1        2 0.26568466E+00 0.16503713E+03</pdfrwt>
<pdfrwt beam="2">  1       -2 0.32333093E-02 0.16503713E+03</pdfrwt>
<totfact> 0.38993278E+03</totfact>
</mgrwt>
</event>
<event>
 7    1  0.1422977E-005  0.1834724E+03  0.7546771E-02  0.1169503E+00
          1   -1    0    0  501    0  0.00000000000E+00  0.00000000000E+00  0.60435692533E+03  0.60435692533E+03  0.00000000000E+00 0. -1.
         -1   -1    0    0    0  501 -0.00000000000E+00 -0.00000000000E+00 -0.59406799055E+02  0.59406799055E+02  0.00000000000E+00 0.  1.
         23    2    1    2    0    0 -0.54874835981E+02  0.12257651884E+03  0.12598913482E+03  0.20639032796E+03  0.93206516879E+02 0.  0.
          5    1    1    2  502    0 -0.25627106271E+02 -0.42491514230E+02  0.24186199853E+03  0.24694451540E+03  0.47000000000E+01 0.  1.
         -5    1    1    2    0  502  0.80501942252E+02 -0.80085004611E+02  0.17709899292E+03  0.21042888101E+03  0.47000000000E+01 0.  1.
        -11    1    3    3    0    0 -0.28724328272E+02  0.60997759671E+02  0.12197458205E+03  0.13936862052E+03  0.00000000000E+00 0. -1.
         11    1    3    3    0    0 -0.26150507709E+02  0.61578759170E+02  0.40145527687E+01  0.67021707440E+02  0.00000000000E+00 0.  1.
<mgrwt>
<rscale>  0 0.17825433E+03</rscale>
<asrwt>0</asrwt>
<pdfrwt beam="1">  1        1 0.92977984E-01 0.18347237E+03</pdfrwt>
<pdfrwt beam="2">  1       -1 0.91395080E-02 0.18347237E+03</pdfrwt>
<totfact> 0.24140277E+03</totfact>
</mgrwt>
</event>
<event>
 7    1  0.1422977E-005  0.1961644E+03  0.7546771E-02  0.1157482E+00
          3   -1    0    0  501    0  0.00000000000E+00  0.00000000000E+00  0.43994821830E+03  0.43994821830E+03  0.00000000000E+00 0. -1.
         -3   -1    0    0    0  501 -0.00000000000E+00 -0.00000000000E+00 -0.97339649698E+02  0.97339649698E+02  0.00000000000E+00 0.  1.
         23    2    1    2    0    0  0.82229305933E+02  0.12686453011E+03  0.47473039333E+02  0.18290747446E+03  0.91351995022E+02 0.  0.
          5    1    1    2  502    0 -0.11030870872E+03 -0.92195607675E+02  0.26098976843E+03  0.29800300421E+03  0.47000000000E+01 0. -1.
         -5    1    1    2    0  502  0.28079402789E+02 -0.34668922439E+02  0.34145760846E+02  0.56377389331E+02  0.47000000000E+01 0. -1.
        -11    1    3    3    0    0  0.17070736003E+02  0.10606590750E+03  0.37494616007E+02  0.11378590858E+03  0.00000000000E+00 0. -1.
         11    1    3    3    0    0  0.65158569930E+02  0.20798622615E+02  0.99784233265E+01  0.69121565883E+02  0.00000000000E+00 0.  1.
<mgrwt>
<rscale>  0 0.19108960E+03</rscale>
<asrwt>0</asrwt>
<pdfrwt beam="1">  1        3 0.67684340E-01 0.19616443E+03</pdfrwt>
<pdfrwt beam="2">  1       -3 0.14975331E-01 0.19616443E+03</pdfrwt>
<totfact> 0.19411985E+02</totfact>
</mgrwt>
</event>
<event>
 7    1  0.1422977E-005  0.2580200E+03  0.7546771E-02  0.1110803E+00
          2   -1    0    0  501    0  0.00000000000E+00  0.00000000000E+00  0.11722482465E+04  0.11722482465E+04  0.00000000000E+00 0.  1.
         -2   -1    0    0    0  501 -0.00000000000E+00 -0.00000000000E+00 -0.53507283914E+02  0.53507283914E+02  0.00000000000E+00 0. -1.
         23    2    1    2    0    0 -0.18190808077E+03 -0.13364825738E+03  0.57085392221E+03  0.62015292706E+03  0.88108148791E+02 0.  0.
          5    1    1    2  502    0  0.38046753895E+01 -0.20915692579E+02  0.37787591595E+02  0.43611166339E+02  0.47000000000E+01 0. -1.
         -5    1    1    2    0  502  0.17810340538E+03  0.15456394996E+03  0.51009944880E+03  0.56199143704E+03  0.47000000000E+01 0. -1.
        -11    1    3    3    0    0 -0.18085205997E+02 -0.46977335364E+02  0.19061967805E+03  0.19715427049E+03  0.00000000000E+00 0.  1.
         11    1    3    3    0    0 -0.16382287478E+03 -0.86670922018E+02  0.38023424417E+03  0.42299865657E+03  0.00000000000E+00 0. -1.
<mgrwt>
<rscale>  0 0.25400019E+03</rscale>
<asrwt>0</asrwt>
<pdfrwt beam="1">  1        2 0.18034587E+00 0.25801997E+03</pdfrwt>
<pdfrwt beam="2">  1       -2 0.82318907E-02 0.25801997E+03</pdfrwt>
<totfact> 0.18734948E+03</totfact>
</mgrwt>
</event>
<event>
 7    1  0.1422977E-005  0.1271834E+03  0.7546771E-02  0.1246394E+00
         -2   -1    0    0    0  501 -0.00000000000E+00  0.00000000000E+00  0.24044330027E+02  0.24044330027E+02  0.00000000000E+00 0.  1.
          2   -1    0    0  501    0  0.00000000000E+00 -0.00000000000E+00 -0.52415575795E+03  0.52415575795E+03  0.00000000000E+00 0. -1.
         23    2    1    2    0    0 -0.20360045542E+02 -0.11645770177E+02 -0.16955914325E+03  0.19402436677E+03  0.91350951955E+02 0.  0.
          5    1    1    2  502    0 -0.79958287285E+01  0.65260990264E+02 -0.18644767953E+03  0.19775681361E+03  0.47000000000E+01 0. -1.
         -5    1    1    2    0  502  0.28355874270E+02 -0.53615220087E+02 -0.14410460514E+03  0.15641890759E+03  0.47000000000E+01 0. -1.
        -11    1    3    3    0    0  0.16508133130E+02  0.10616506350E+02 -0.57223136185E+00  0.19635582886E+02  0.00000000000E+00 0.  1.
         11    1    3    3    0    0 -0.36868178672E+02 -0.22262276528E+02 -0.16898691189E+03  0.17438878388E+03  0.00000000000E+00 0. -1.
<mgrwt>
<rscale>  0 0.11802312E+03</rscale>
<asrwt>0</asrwt>
<pdfrwt beam="2">  1        2 0.80639342E-01 0.12718344E+03</pdfrwt>
<pdfrwt beam="1">  1       -2 0.36991280E-02 0.12718344E+03</pdfrwt>
<totfact> 0.17131148E+04</totfact>
</mgrwt>
</event>
<event>
 7    1  0.1422977E-005  0.1657819E+03  0.7546771E-02  0.1189415E+00
          2   -1    0    0  501    0  0.00000000000E+00  0.00000000000E+00  0.46366111500E+03  0.46366111500E+03  0.00000000000E+00 0. -1.
         -2   -1    0    0    0  501 -0.00000000000E+00 -0.00000000000E+00 -0.72611194797E+02  0.72611194797E+02  0.00000000000E+00 0.  1.
         23    2    1    2    0    0 -0.10847356284E+03  0.96339682177E+01  0.38531342806E+02  0.14671747001E+03  0.90454543552E+02 0.  0.
          5    1    1    2  502    0  0.89518450874E+02 -0.18349357895E+02  0.97761215266E+02  0.13390144582E+03  0.47000000000E+01 0.  1.
         -5    1    1    2    0  502  0.18955111967E+02  0.87153896777E+01  0.25475736213E+03  0.25565339397E+03  0.47000000000E+01 0.  1.
        -11    1    3    3    0    0 -0.63265124645E+02 -0.94729059013E+01  0.64794282156E+02  0.91052242930E+02  0.00000000000E+00 0. -1.
         11    1    3    3    0    0 -0.45208438196E+02  0.19106874119E+02 -0.26262939350E+02  0.55665227081E+02  0.00000000000E+00 0.  1.
<mgrwt>
<rscale>  0 0.15936525E+03</rscale>
<asrwt>0</asrwt>
<pdfrwt beam="1">  1        2 0.71332477E-01 0.16578186E+03</pdfrwt>
<pdfrwt beam="2">  1       -2 0.11170953E-01 0.16578186E+03</pdfrwt>
<totfact> 0.36785677E+03</totfact>
</mgrwt>
</event>
<event>
 7    1  0.1422977E-005  0.1492327E+03  0.7546771E-02  0.1211222E+00
         -1   -1    0    0    0  501 -0.00000000000E+00  0.00000000000E+00  0.34098658828E+03  0.34098658828E+03  0.00000000000E+00 0.  1.
          1   -1    0    0  501    0  0.00000000000E+00 -0.00000000000E+00 -0.58502252367E+02  0.58502252367E+02  0.00000000000E+00 0. -1.
         23    2    1    2    0    0 -0.45692223439E+02  0.67407335390E+02  0.18582698183E+03  0.22168824695E+03  0.89344745313E+02 0.  0.
          5    1    1    2  502    0  0.65296660482E+02 -0.77687713097E+01  0.43483773035E+01  0.66068192521E+02  0.47000000000E+01 0. -1.
         -5    1    1    2    0  502 -0.19604437043E+02 -0.59638564080E+02  0.92308976785E+02  0.11173240118E+03  0.47000000000E+01 0. -1.
        -11    1    3    3    0    0 -0.31501464797E+01  0.65627607797E+02  0.60460104375E+02  0.89287908190E+02  0.00000000000E+00 0. -1.
         11    1    3    3    0    0 -0.42542076960E+02  0.17797275928E+01  0.12536687745E+03  0.13240033876E+03  0.00000000000E+00 0.  1.
<mgrwt>
<rscale>  0 0.14157750E+03</rscale>
<asrwt>0</asrwt>
<pdfrwt beam="2">  1        1 0.90003467E-02 0.14923273E+03</pdfrwt>
<pdfrwt beam="1">  1       -1 0.52459474E-01 0.14923273E+03</pdfrwt>
<totfact> 0.26988781E+03</totfact>
</mgrwt>
</event>
<event>
 7    1  0.1422977E-005  0.1390087E+03  0.7546771E-02  0.1226042E+00
          2   -1    0    0  501    0  0.00000000000E+00  0.00000000000E+00  0.13498454922E+04  0.13498454922E+04  0.00000000000E+00 0. -1.
         -2   -1    0    0    0  501 -0.00000000000E+00 -0.00000000000E+00 -0.15316215246E+02  0.15316215246E+02  0.00000000000E+00 0.  1.
         23    2    1    2    0    0 -0.58686930294E+02  0.15993822508E+02  0.26638845786E+03  0.28801352003E+03  0.91044050283E+02 0.  0.
          5    1    1    2  502    0 -0.14800318480E+02  0.19673343070E+02  0.52067635220E+02  0.57785971413E+02  0.47000000000E+01 0. -1.
         -5    1    1    2    0  502  0.73487248774E+02 -0.35667165578E+02  0.10160731839E+04  0.10193622160E+04  0.47000000000E+01 0. -1.
        -11    1    3    3    0    0 -0.74228634569E+02 -0.12627000448E+02  0.20719416888E+03  0.22045125299E+03  0.00000000000E+00 0.  1.
         11    1    3    3    0    0  0.15541704275E+02  0.28620822956E+02  0.59194288987E+02  0.67562267036E+02  0.00000000000E+00 0. -1.
<mgrwt>
<rscale>  0 0.13095714E+03</rscale>
<asrwt>0</asrwt>
<pdfrwt beam="1">  1        2 0.20766844E+00 0.13900866E+03</pdfrwt>
<pdfrwt beam="2">  1       -2 0.23563419E-02 0.13900866E+03</pdfrwt>
<totfact> 0.97256026E+03</totfact>
</mgrwt>
</event>
<event>
 7    1  0.1422977E-005  0.1255571E+03  0.7546771E-02  0.1249742E+00
         -1   -1    0    0    0  501 -0.00000000000E+00  0.00000000000E+00  0.36911644318E+03  0.36911644318E+03  0.00000000000E+00 0.  1.
          1   -1    0    0  501    0  0.00000000000E+00 -0.00000000000E+00 -0.34068759335E+02  0.34068759335E+02  0.00000000000E+00 0. -1.
         23    2    1    2    0    0 -0.87446764549E+01 -0.76573518599E+01  0.19259819979E+03  0.21329985367E+03  0.90926655109E+02 0.  0.
          5    1    1    2  502    0 -0.31256963342E+02 -0.43282566012E+02  0.96328794274E+02  0.11023477167E+03  0.47000000000E+01 0.  1.
         -5    1    1    2    0  502  0.40001639797E+02  0.50939917872E+02  0.46120689782E+02  0.79650577181E+02  0.47000000000E+01 0.  1.
        -11    1    3    3    0    0  0.34881983967E+02 -0.22856943950E+02  0.61558438898E+02  0.74354785265E+02  0.00000000000E+00 0. -1.
         11    1    3    3    0    0 -0.43626660422E+02  0.15199592091E+02  0.13103976089E+03  0.13894506840E+03  0.00000000000E+00 0.  1.
<mgrwt>
<rscale>  0 0.11606032E+03</rscale>
<asrwt>0</asrwt>
<pdfrwt beam="2">  1        1 0.52413479E-02 0.12555712E+03</pdfrwt>
<pdfrwt beam="1">  1       -1 0.56787142E-01 0.12555712E+03</pdfrwt>
<totfact> 0.47840819E+03</totfact>
</mgrwt>
</event>
<event>
 7    1  0.1422977E-005  0.1289281E+03  0.7546771E-02  0.1238618E+00
         -1   -1    0    0    0  501 -0.00000000000E+00  0.00000000000E+00  0.61996868578E+02  0.61996868578E+02  0.00000000000E+00 0.  1.
          1   -1    0    0  501    0  0.00000000000E+00 -0.00000000000E+00 -0.22269420511E+03  0.22269420511E+03  0.00000000000E+00 0. -1.
         23    2    1    2    0    0 -0.52731273498E+02  0.99279680711E+00 -0.68076358833E+02  0.12594253260E+03  0.91899717274E+02 0.  0.
          5    1    1    2  502    0  0.10506104998E+02  0.51200414024E+02 -0.70539918650E+02  0.87919456104E+02  0.47000000000E+01 0. -1.
         -5    1    1    2    0  502  0.42225168500E+02 -0.52193210831E+02 -0.22081059052E+02  0.70829084990E+02  0.47000000000E+01 0.  1.
        -11    1    3    3    0    0  0.23299255166E+02 -0.15709216551E+02 -0.18974009484E+02  0.33906456787E+02  0.00000000000E+00 0. -1.
         11    1    3    3    0    0 -0.76030528664E+02  0.16702013358E+02 -0.49102349349E+02  0.92036075811E+02  0.00000000000E+00 0.  1.
<mgrwt>
<rscale>  0 0.12275644E+03</rscale>
<asrwt>0</asrwt>
<pdfrwt beam="2">  1        1 0.34260646E-01 0.12892810E+03</pdfrwt>
<pdfrwt beam="1">  1       -1 0.95379800E-02 0.12892810E+03</pdfrwt>
<totfact> 0.79236577E+03</totfact>
</mgrwt>
</event>
<event>
 7    1  0.1422977E-005  0.1369927E+03  0.7546771E-02  0.1229183E+00
         -2   -1    0    0    0  501 -0.00000000000E+00  0.00000000000E+00  0.27153070984E+02  0.27153070984E+02  0.00000000000E+00 0.  1.
          2   -1    0    0  501    0  0.00000000000E+00 -0.00000000000E+00 -0.54955680778E+03  0.54955680778E+03  0.00000000000E+00 0. -1.
         23    2    1    2    0    0  0.11046772387E+02 -0.54951471281E+02 -0.21998245827E+03  0.24470743835E+03  0.91366038892E+02 0.  0.
          5    1    1    2  502    0  0.64217455630E+01  0.57887156859E+02 -0.30748632935E+03  0.31298896863E+03  0.47000000000E+01 0. -1.
         -5    1    1    2    0  502 -0.17468517950E+02 -0.29356855774E+01  0.50650508286E+01  0.19013471779E+02  0.47000000000E+01 0. -1.
        -11    1    3    3    0    0 -0.30328629465E+02 -0.28886762273E+02 -0.16880313579E+03  0.17392173370E+03  0.00000000000E+00 0. -1.
         11    1    3    3    0    0  0.41375401852E+02 -0.26064709008E+02 -0.51179322480E+02  0.70785704656E+02  0.00000000000E+00 0.  1.
<mgrwt>
<rscale>  0 0.12884287E+03</rscale>
<asrwt>0</asrwt>
<pdfrwt beam="2">  1        2 0.84547196E-01 0.13699267E+03</pdfrwt>
<pdfrwt beam="1">  1       -2 0.41773958E-02 0.13699267E+03</pdfrwt>
<totfact> 0.13651415E+04</totfact>
</mgrwt>
</event>
<event>
 7    1  0.1422977E-005  0.1252774E+03  0.7546771E-02  0.1249691E+00
         -4   -1    0    0    0  501 -0.00000000000E+00  0.00000000000E+00  0.79221854734E+02  0.79221854734E+02  0.00000000000E+00 0.  1.
          4   -1    0    0  501    0  0.00000000000E+00 -0.00000000000E+00 -0.17710506064E+03  0.17710506064E+03  0.00000000000E+00 0. -1.
         23    2    1    2    0    0  0.11752917789E+02  0.10345670493E+02  0.74191460038E+01  0.92671771056E+02  0.91037626554E+02 0.  0.
          5    1    1    2  502    0 -0.40513103355E+01  0.40903313271E+02 -0.10363910932E+03  0.11159143844E+03  0.47000000000E+01 0. -1.
         -5    1    1    2    0  502 -0.77016074532E+01 -0.51248983764E+02 -0.16632425911E+01  0.52063705882E+02  0.47000000000E+01 0.  1.
        -11    1    3    3    0    0  0.44736409860E+02  0.18153274818E+02  0.25130622279E+02  0.54428264072E+02  0.00000000000E+00 0. -1.
         11    1    3    3    0    0 -0.32983492071E+02 -0.78076043254E+01 -0.17711476276E+02  0.38243506983E+02  0.00000000000E+00 0.  1.
<mgrwt>
<rscale>  0 0.11608933E+03</rscale>
<asrwt>0</asrwt>
<pdfrwt beam="2">  1        4 0.27246932E-01 0.12527738E+03</pdfrwt>
<pdfrwt beam="1">  1       -4 0.12187978E-01 0.12527738E+03</pdfrwt>
<totfact> 0.11187115E+03</totfact>
</mgrwt>
</event>
<event>
 7    1  0.1422977E-005  0.1309617E+03  0.7546771E-02  0.1237011E+00
         -2   -1    0    0    0  501 -0.00000000000E+00  0.00000000000E+00  0.12666460387E+02  0.12666460387E+02  0.00000000000E+00 0.  1.
          2   -1    0    0  501    0  0.00000000000E+00 -0.00000000000E+00 -0.13523958354E+04  0.13523958354E+04  0.00000000000E+00 0. -1.
         23    2    1    2    0    0  0.10416375540E+02 -0.37646416341E+02 -0.31203607227E+03  0.32905820102E+03  0.96886715920E+02 0.  0.
          5    1    1    2  502    0  0.41381030245E+02  0.17098009122E+02 -0.15200105581E+03  0.15852804972E+03  0.47000000000E+01 0. -1.
         -5    1    1    2    0  502 -0.51797405785E+02  0.20548407218E+02 -0.87569224697E+03  0.87747604508E+03  0.47000000000E+01 0. -1.
        -11    1    3    3    0    0 -0.35730261726E+02  0.34046142119E+01 -0.63290188385E+02  0.72759129646E+02  0.00000000000E+00 0.  1.
         11    1    3    3    0    0  0.46146637266E+02 -0.41051030552E+02 -0.24874588388E+03  0.25629907138E+03  0.00000000000E+00 0. -1.
<mgrwt>
<rscale>  0 0.12376565E+03</rscale>
<asrwt>0</asrwt>
<pdfrwt beam="2">  1        2 0.20806072E+00 0.13096167E+03</pdfrwt>
<pdfrwt beam="1">  1       -2 0.19486879E-02 0.13096167E+03</pdfrwt>
<totfact> 0.12742912E+04</totfact>
</mgrwt>
</event>
<event>
 7    1  0.1422977E-005  0.1817780E+03  0.7546771E-02  0.1171331E+00
         -2   -1    0    0    0  501 -0.00000000000E+00  0.00000000000E+00  0.18571809706E+03  0.18571809706E+03  0.00000000000E+00 0.  1.
          2   -1    0    0  501    0  0.00000000000E+00 -0.00000000000E+00 -0.18101985948E+03  0.18101985948E+03  0.00000000000E+00 0. -1.
         23    2    1    2    0    0 -0.80905392120E+02 -0.10422899093E+03  0.67001561507E+02  0.17457927299E+03  0.92624771469E+02 0.  0.
          5    1    1    2  502    0  0.56447005443E+02  0.54191594270E+02 -0.98260174915E+02  0.12569862882E+03  0.47000000000E+01 0.  1.
         -5    1    1    2    0  502  0.24458386677E+02  0.50037396656E+02  0.35956850989E+02  0.66460054739E+02  0.47000000000E+01 0.  1.
        -11    1    3    3    0    0 -0.11244333846E+02 -0.74371827258E+02  0.28285381207E+01  0.75270208989E+02  0.00000000000E+00 0. -1.
         11    1    3    3    0    0 -0.69661058273E+02 -0.29857163667E+02  0.64173023386E+02  0.99309064000E+02  0.00000000000E+00 0.  1.
<mgrwt>
<rscale>  0 0.17640227E+03</rscale>
<asrwt>0</asrwt>
<pdfrwt beam="2">  1        2 0.27849209E-01 0.18177804E+03</pdfrwt>
<pdfrwt beam="1">  1       -2 0.28572015E-01 0.18177804E+03</pdfrwt>
<totfact> 0.20951925E+03</totfact>
</mgrwt>
</event>
<event>
 7    1  0.1422977E-005  0.1322835E+03  0.7546771E-02  0.1237013E+00
         -1   -1    0    0    0  501 -0.00000000000E+00  0.00000000000E+00  0.41721648165E+03  0.41721648165E+03  0.00000000000E+00 0.  1.
          1   -1    0    0  501    0  0.00000000000E+00 -0.00000000000E+00 -0.32774321733E+02  0.32774321733E+02  0.00000000000E+00 0. -1.
         23    2    1    2    0    0  0.29332750641E+02 -0.31834581192E+02  0.15700345181E+03  0.18688002638E+03  0.91652657133E+02 0.  0.
          5    1    1    2  502    0  0.48435044367E+02  0.71837038983E+01  0.67697130680E+02  0.83681244176E+02  0.47000000000E+01 0. -1.
         -5    1    1    2    0  502 -0.77767795008E+02  0.24650877294E+02  0.15974157742E+03  0.17942953282E+03  0.47000000000E+01 0. -1.
        -11    1    3    3    0    0 -0.20670118776E+02  0.50838227333E+01  0.10099180567E+03  0.10321067714E+03  0.00000000000E+00 0.  1.
         11    1    3    3    0    0  0.50002869418E+02 -0.36918403925E+02  0.56011646139E+02  0.83669349236E+02  0.00000000000E+00 0. -1.
<mgrwt>
<rscale>  0 0.12376474E+03</rscale>
<asrwt>0</asrwt>
<pdfrwt beam="2">  1        1 0.50422036E-02 0.13228346E+03</pdfrwt>
<pdfrwt beam="1">  1       -1 0.64187147E-01 0.13228346E+03</pdfrwt>
<totfact> 0.40104646E+03</totfact>
</mgrwt>
</event>
<event>
 7    1  0.1422977E-005  0.1464302E+03  0.7546771E-02  0.1214663E+00
         -2   -1    0    0    0  501 -0.00000000000E+00  0.00000000000E+00  0.16557798579E+02  0.16557798579E+02  0.00000000000E+00 0.  1.
          2   -1    0    0  501    0  0.00000000000E+00 -0.00000000000E+00 -0.11725700980E+04  0.11725700980E+04  0.00000000000E+00 0. -1.
         23    2    1    2    0    0  0.84640895945E+01 -0.75800081124E+02 -0.34307572620E+03  0.36310873132E+03  0.91267210637E+02 0.  0.
          5    1    1    2  502    0 -0.30053440986E+02  0.10525514609E+03 -0.59928425730E+03  0.60921717486E+03  0.47000000000E+01 0.  1.
         -5    1    1    2    0  502  0.21589351392E+02 -0.29455064970E+02 -0.21365231593E+03  0.21680199041E+03  0.47000000000E+01 0.  1.
        -11    1    3    3    0    0 -0.34332081946E+02 -0.24066693006E+02 -0.20897146832E+03  0.21313604138E+03  0.00000000000E+00 0. -1.
         11    1    3    3    0    0  0.42796171540E+02 -0.51733388118E+02 -0.13410425788E+03  0.14997268994E+03  0.00000000000E+00 0.  1.
<mgrwt>
<rscale>  0 0.13901316E+03</rscale>
<asrwt>0</asrwt>
<pdfrwt beam="2">  1        2 0.18039544E+00 0.14643015E+03</pdfrwt>
<pdfrwt beam="1">  1       -2 0.25473530E-02 0.14643015E+03</pdfrwt>
<totfact> 0.10871503E+04</totfact>
</mgrwt>
</event>
<event>
 7    1  0.1422977E-005  0.1311074E+03  0.7546771E-02  0.1254693E+00
         -2   -1    0    0    0  501 -0.00000000000E+00  0.00000000000E+00  0.44142553129E+02  0.44142553129E+02  0.00000000000E+00 0.  1.
          2   -1    0    0  501    0  0.00000000000E+00 -0.00000000000E+00 -0.24070143537E+03  0.24070143537E+03  0.00000000000E+00 0. -1.
         23    2    1    2    0    0 -0.10782094627E+02  0.38044531258E+02 -0.51403397692E+02  0.89244226354E+02  0.61307281134E+02 0.  0.
          5    1    1    2  502    0  0.50614047114E+02  0.12373546552E+01 -0.13702952021E+02  0.52660931495E+02  0.47000000000E+01 0.  1.
         -5    1    1    2    0  502 -0.39831952487E+02 -0.39281885913E+02 -0.13145253252E+03  0.14293883065E+03  0.47000000000E+01 0.  1.
        -11    1    3    3    0    0 -0.90380090592E+01 -0.16256169483E+02 -0.14140446257E+02  0.23364521702E+02  0.00000000000E+00 0.  1.
         11    1    3    3    0    0 -0.17440855681E+01  0.54300700740E+02 -0.37262951435E+02  0.65879704652E+02  0.00000000000E+00 0. -1.
<mgrwt>
<rscale>  0 0.11323536E+03</rscale>
<asrwt>0</asrwt>
<pdfrwt beam="2">  1        2 0.37030989E-01 0.13110741E+03</pdfrwt>
<pdfrwt beam="1">  1       -2 0.67911622E-02 0.13110741E+03</pdfrwt>
<totfact> 0.15853684E+04</totfact>
</mgrwt>
</event>
<event>
 7    1  0.1422977E-005  0.1542472E+03  0.7546771E-02  0.1204108E+00
          1   -1    0    0  501    0  0.00000000000E+00  0.00000000000E+00  0.72064249507E+03  0.72064249507E+03  0.00000000000E+00 0. -1.
         -1   -1    0    0    0  501 -0.00000000000E+00 -0.00000000000E+00 -0.39888496583E+02  0.39888496583E+02  0.00000000000E+00 0.  1.
         23    2    1    2    0    0 -0.44296638950E+02 -0.78772076383E+02  0.10717440614E+03  0.16657330329E+03  0.89961546226E+02 0.  0.
          5    1    1    2  502    0  0.26725759864E+02  0.10777012666E+02  0.45590686101E+03  0.45684085430E+03  0.47000000000E+01 0. -1.
         -5    1    1    2    0  502  0.17570879086E+02  0.67995063717E+02  0.11767273135E+03  0.13711683407E+03  0.47000000000E+01 0. -1.
        -11    1    3    3    0    0 -0.15223319387E+02 -0.22121594165E+02  0.98758522090E+02  0.10234432113E+03  0.00000000000E+00 0. -1.
         11    1    3    3    0    0 -0.29073319562E+02 -0.56650482218E+02  0.84158840480E+01  0.64228982167E+02  0.00000000000E+00 0.  1.
<mgrwt>
<rscale>  0 0.14708013E+03</rscale>
<asrwt>0</asrwt>
<pdfrwt beam="1">  1        1 0.11086807E+00 0.15424716E+03</pdfrwt>
<pdfrwt beam="2">  1       -1 0.61366923E-02 0.15424716E+03</pdfrwt>
<totfact> 0.34207442E+03</totfact>
</mgrwt>
</event>
<event>
 7    1  0.1422977E-005  0.2027682E+03  0.7546771E-02  0.1151181E+00
          2   -1    0    0  501    0  0.00000000000E+00  0.00000000000E+00  0.43282215997E+03  0.43282215997E+03  0.00000000000E+00 0.  1.
         -2   -1    0    0    0  501 -0.00000000000E+00 -0.00000000000E+00 -0.96090977990E+02  0.96090977990E+02  0.00000000000E+00 0. -1.
         23    2    1    2    0    0 -0.27223644792E+02  0.15731488538E+03  0.80591527795E+02  0.20222909238E+03  0.94406098613E+02 0.  0.
          5    1    1    2  502    0  0.60466384368E+02 -0.78519517358E+02  0.20283943776E+03  0.22580395425E+03  0.47000000000E+01 0.  1.
         -5    1    1    2    0  502 -0.33242739576E+02 -0.78795368018E+02  0.53300216422E+02  0.10088009133E+03  0.47000000000E+01 0.  1.
        -11    1    3    3    0    0 -0.61631375489E+02  0.10442931648E+03  0.63408768760E+02  0.13683778915E+03  0.00000000000E+00 0.  1.
         11    1    3    3    0    0  0.34407730697E+02  0.52885568899E+02  0.17182759035E+02  0.65391303226E+02  0.00000000000E+00 0. -1.
<mgrwt>
<rscale>  0 0.19829978E+03</rscale>
<asrwt>0</asrwt>
<pdfrwt beam="1">  1        2 0.66588023E-01 0.20276820E+03</pdfrwt>
<pdfrwt beam="2">  1       -2 0.14783228E-01 0.20276820E+03</pdfrwt>
<totfact> 0.25376015E+03</totfact>
</mgrwt>
</event>
<event>
 7    1  0.1422977E-005  0.1304332E+03  0.7546771E-02  0.1240699E+00
          2   -1    0    0  501    0  0.00000000000E+00  0.00000000000E+00  0.84642608738E+02  0.84642608738E+02  0.00000000000E+00 0. -1.
         -2   -1    0    0    0  501 -0.00000000000E+00 -0.00000000000E+00 -0.16273391832E+03  0.16273391832E+03  0.00000000000E+00 0.  1.
         23    2    1    2    0    0 -0.30207675438E+02  0.21800719337E+02 -0.58386032140E+01  0.98268270998E+02  0.90745736971E+02 0.  0.
          5    1    1    2  502    0  0.11951971383E+01 -0.61815420276E+02 -0.77422369386E+02  0.99191168767E+02  0.47000000000E+01 0.  1.
         -5    1    1    2    0  502  0.29012478300E+02  0.40014700939E+02  0.51696630168E+01  0.49917087295E+02  0.47000000000E+01 0.  1.
        -11    1    3    3    0    0 -0.40788464452E+02  0.15612883391E+02 -0.41690795614E+02  0.60378666754E+02  0.00000000000E+00 0.  1.
         11    1    3    3    0    0  0.10580789014E+02  0.61878359464E+01  0.35852192400E+02  0.37889604243E+02  0.00000000000E+00 0. -1.
<mgrwt>
<rscale>  0 0.12146536E+03</rscale>
<asrwt>0</asrwt>
<pdfrwt beam="1">  1        2 0.13021940E-01 0.13043320E+03</pdfrwt>
<pdfrwt beam="2">  1       -2 0.25035987E-01 0.13043320E+03</pdfrwt>
<totfact> 0.61962013E+03</totfact>
</mgrwt>
</event>
<event>
 7    1  0.1422977E-005  0.1252643E+03  0.7546771E-02  0.1249403E+00
          2   -1    0    0  501    0  0.00000000000E+00  0.00000000000E+00  0.28983570775E+03  0.28983570775E+03  0.00000000000E+00 0. -1.
         -2   -1    0    0    0  501 -0.00000000000E+00 -0.00000000000E+00 -0.41153887208E+02  0.41153887208E+02  0.00000000000E+00 0.  1.
         23    2    1    2    0    0  0.80631549179E+01  0.14376193521E+01  0.11341456488E+03  0.14663020812E+03  0.92576850183E+02 0.  0.
          5    1    1    2  502    0 -0.84848088305E+01  0.54450596896E+02  0.25100355381E+02  0.60736951878E+02  0.47000000000E+01 0.  1.
         -5    1    1    2    0  502  0.42165391255E+00 -0.55888216248E+02  0.11016690028E+03  0.12362243496E+03  0.47000000000E+01 0.  1.
        -11    1    3    3    0    0 -0.14389984902E+02 -0.41670358030E+02  0.48605818038E+02  0.65620240407E+02  0.00000000000E+00 0.  1.
         11    1    3    3    0    0  0.22453139820E+02  0.43107977383E+02  0.64808746840E+02  0.81009967713E+02  0.00000000000E+00 0. -1.
<mgrwt>
<rscale>  0 0.11625708E+03</rscale>
<asrwt>0</asrwt>
<pdfrwt beam="1">  1        2 0.44590108E-01 0.12526433E+03</pdfrwt>
<pdfrwt beam="2">  1       -2 0.63313674E-02 0.12526433E+03</pdfrwt>
<totfact> 0.14426068E+04</totfact>
</mgrwt>
</event>
<event>
 7    1  0.1422977E-005  0.1970069E+03  0.7546771E-02  0.1156661E+00
         -4   -1    0    0    0  501 -0.00000000000E+00  0.00000000000E+00  0.10625151850E+03  0.10625151850E+03  0.00000000000E+00 0.  1.
          4   -1    0    0  501    0  0.00000000000E+00 -0.00000000000E+00 -0.35752341065E+03  0.35752341065E+03  0.00000000000E+00 0. -1.
         23    2    1    2    0    0 -0.14737593288E+03 -0.38296447012E+02 -0.55971769671E+02  0.18636937094E+03  0.91730147589E+02 0.  0.
          5    1    1    2  502    0  0.20936702745E+02 -0.37594227158E+02 -0.76839181167E+02  0.88193090431E+02  0.47000000000E+01 0.  1.
         -5    1    1    2    0  502  0.12643923014E+03  0.75890674170E+02 -0.11846094132E+03  0.18921246778E+03  0.47000000000E+01 0.  1.
        -11    1    3    3    0    0 -0.61765551761E+02 -0.57713361018E+02 -0.50379202414E+02  0.98406704345E+02  0.00000000000E+00 0.  1.
         11    1    3    3    0    0 -0.85610381124E+02  0.19416914006E+02 -0.55925672570E+01  0.87962666594E+02  0.00000000000E+00 0. -1.
<mgrwt>
<rscale>  0 0.19200968E+03</rscale>
<asrwt>0</asrwt>
<pdfrwt beam="2">  1        4 0.55003602E-01 0.19700687E+03</pdfrwt>
<pdfrwt beam="1">  1       -4 0.16346387E-01 0.19700687E+03</pdfrwt>
<totfact> 0.18296390E+02</totfact>
</mgrwt>
</event>
<event>
 7    1  0.1422977E-005  0.1573598E+03  0.7546771E-02  0.1199493E+00
          4   -1    0    0  501    0  0.00000000000E+00  0.00000000000E+00  0.35990998211E+02  0.35990998211E+02  0.00000000000E+00 0. -1.
         -4   -1    0    0    0  501 -0.00000000000E+00 -0.00000000000E+00 -0.67660499713E+03  0.67660499713E+03  0.00000000000E+00 0.  1.
         23    2    1    2    0    0  0.73862468404E+02  0.60516018034E+02 -0.42786159708E+03  0.44797230646E+03  0.92172601232E+02 0.  0.
          5    1    1    2  502    0 -0.10486547352E+03 -0.53147396392E+02 -0.19525971782E+03  0.22796899062E+03  0.47000000000E+01 0. -1.
         -5    1    1    2    0  502  0.31003005113E+02 -0.73686216418E+01 -0.17492684016E+02  0.36654698267E+02  0.47000000000E+01 0. -1.
        -11    1    3    3    0    0  0.54852244926E+02 -0.12013749934E+02 -0.21810080013E+03  0.22521336101E+03  0.00000000000E+00 0. -1.
         11    1    3    3    0    0  0.19010223479E+02  0.72529767968E+02 -0.20976079695E+03  0.22275894544E+03  0.00000000000E+00 0.  1.
<mgrwt>
<rscale>  0 0.15080006E+03</rscale>
<asrwt>0</asrwt>
<pdfrwt beam="1">  1        4 0.55370773E-02 0.15735982E+03</pdfrwt>
<pdfrwt beam="2">  1       -4 0.10409306E+00 0.15735982E+03</pdfrwt>
<totfact> 0.26988104E+02</totfact>
</mgrwt>
</event>
<event>
 7    1  0.1422977E-005  0.1291875E+03  0.7546771E-02  0.1241090E+00
         -2   -1    0    0    0  501 -0.00000000000E+00  0.00000000000E+00  0.34852093507E+02  0.34852093507E+02  0.00000000000E+00 0.  1.
          2   -1    0    0  501    0  0.00000000000E+00 -0.00000000000E+00 -0.46795139633E+03  0.46795139633E+03  0.00000000000E+00 0. -1.
         23    2    1    2    0    0 -0.31062068893E+02 -0.99554631258E+01 -0.84528922764E+02  0.13106336431E+03  0.94702182181E+02 0.  0.
          5    1    1    2  502    0 -0.34057263811E+02  0.30287412093E+02 -0.61815115781E+02  0.76944285614E+02  0.47000000000E+01 0. -1.
         -5    1    1    2    0  502  0.65119332704E+02 -0.20331948968E+02 -0.28675526427E+03  0.29479583991E+03  0.47000000000E+01 0. -1.
        -11    1    3    3    0    0  0.19639384096E+02 -0.28870229951E+02 -0.55973208177E+01  0.35362771179E+02  0.00000000000E+00 0.  1.
         11    1    3    3    0    0 -0.50701452989E+02  0.18914766825E+02 -0.78931601946E+02  0.95700593128E+02  0.00000000000E+00 0. -1.
<mgrwt>
<rscale>  0 0.12122476E+03</rscale>
<asrwt>0</asrwt>
<pdfrwt beam="2">  1        2 0.71992524E-01 0.12918750E+03</pdfrwt>
<pdfrwt beam="1">  1       -2 0.53618604E-02 0.12918750E+03</pdfrwt>
<totfact> 0.11163902E+04</totfact>
</mgrwt>
</event>
<event>
 7    1  0.1422977E-005  0.2123162E+03  0.7546771E-02  0.1143350E+00
         -1   -1    0    0    0  501 -0.00000000000E+00  0.00000000000E+00  0.19186166542E+03  0.19186166542E+03  0.00000000000E+00 0.  1.
          1   -1    0    0  501    0  0.00000000000E+00 -0.00000000000E+00 -0.21804625099E+03  0.21804625099E+03  0.00000000000E+00 0. -1.
         23    2    1    2    0    0  0.17080931741E+03  0.16743137067E+02 -0.33136360355E+02  0.19747790716E+03  0.91887702583E+02 0.  0.
          5    1    1    2  502    0 -0.17984568370E+03 -0.21007848552E+02  0.33024376513E+02  0.18411545044E+03  0.47000000000E+01 0.  1.
         -5    1    1    2    0  502  0.90363662946E+01  0.42647114858E+01 -0.26072601730E+02  0.28314558814E+02  0.47000000000E+01 0.  1.
        -11    1    3    3    0    0  0.10051626039E+03  0.25734342138E+02 -0.62099444326E+02  0.12092194157E+03  0.00000000000E+00 0. -1.
         11    1    3    3    0    0  0.70293057023E+02 -0.89912050717E+01  0.28963083972E+02  0.76555965590E+02  0.00000000000E+00 0.  1.
<mgrwt>
<rscale>  0 0.20776223E+03</rscale>
<asrwt>0</asrwt>
<pdfrwt beam="2">  1        1 0.33545577E-01 0.21231623E+03</pdfrwt>
<pdfrwt beam="1">  1       -1 0.29517179E-01 0.21231623E+03</pdfrwt>
<totfact> 0.13733762E+03</totfact>
</mgrwt>
</event>
<event>
 7    1  0.1422977E-005  0.2059281E+03  0.7546771E-02  0.1148667E+00
          2   -1    0    0  501    0  0.00000000000E+00  0.00000000000E+00  0.12450278927E+03  0.12450278927E+03  0.00000000000E+00 0. -1.
         -2   -1    0    0    0  501 -0.00000000000E+00 -0.00000000000E+00 -0.33619637483E+03  0.33619637483E+03  0.00000000000E+00 0.  1.
         23    2    1    2    0    0  0.15045312661E+03 -0.64381282081E+02 -0.16373708721E+03  0.24926070728E+03  0.92411977979E+02 0.  0.
          5    1    1    2  502    0  0.15617684649E+01 -0.22429674715E+02  0.12532626991E+02  0.26166508515E+02  0.47000000000E+01 0.  1.
         -5    1    1    2    0  502 -0.15201489508E+03  0.86810956796E+02 -0.60489125335E+02  0.18527194831E+03  0.47000000000E+01 0.  1.
        -11    1    3    3    0    0  0.13637135009E+03 -0.75174438543E+02 -0.10477310958E+03  0.18768523071E+03  0.00000000000E+00 0. -1.
         11    1    3    3    0    0  0.14081776525E+02  0.10793156462E+02 -0.58963977632E+02  0.61575476569E+02  0.00000000000E+00 0.  1.
<mgrwt>
<rscale>  0 0.20127553E+03</rscale>
<asrwt>0</asrwt>
<pdfrwt beam="1">  1        2 0.19154276E-01 0.20592813E+03</pdfrwt>
<pdfrwt beam="2">  1       -2 0.51722518E-01 0.20592813E+03</pdfrwt>
<totfact> 0.10406470E+03</totfact>
</mgrwt>
</event>
<event>
 7    1  0.1422977E-005  0.1882166E+03  0.7546771E-02  0.1166760E+00
          2   -1    0    0  501    0  0.00000000000E+00  0.00000000000E+00  0.13722440561E+04  0.13722440561E+04  0.00000000000E+00 0. -1.
         -2   -1    0    0    0  501 -0.00000000000E+00 -0.00000000000E+00 -0.28195434681E+02  0.28195434681E+02  0.00000000000E+00 0.  1.
         23    2    1    2    0    0 -0.13709635889E+03 -0.31729227726E+02  0.31035864176E+03  0.34975378147E+03  0.78759543073E+02 0.  0.
          5    1    1    2  502    0  0.80722325384E+02  0.67034426767E+02  0.40232504021E+03  0.41580913430E+03  0.47000000000E+01 0.  1.
         -5    1    1    2    0  502  0.56374033502E+02 -0.35305199041E+02  0.63136493943E+03  0.63487657500E+03  0.47000000000E+01 0.  1.
        -11    1    3    3    0    0 -0.76608443234E+00  0.14548946242E+02  0.13668698410E+02  0.19977288063E+02  0.00000000000E+00 0. -1.
         11    1    3    3    0    0 -0.13633027445E+03 -0.46278173968E+02  0.29668994335E+03  0.32977649341E+03  0.00000000000E+00 0.  1.
<mgrwt>
<rscale>  0 0.18108230E+03</rscale>
<asrwt>0</asrwt>
<pdfrwt beam="1">  1        2 0.21111442E+00 0.18821659E+03</pdfrwt>
<pdfrwt beam="2">  1       -2 0.43377602E-02 0.18821659E+03</pdfrwt>
<totfact> 0.38692163E+03</totfact>
</mgrwt>
</event>
<event>
 7    1  0.1422977E-005  0.1396404E+03  0.7546771E-02  0.1225245E+00
         -2   -1    0    0    0  501 -0.00000000000E+00  0.00000000000E+00  0.25031863850E+02  0.25031863850E+02  0.00000000000E+00 0.  1.
          2   -1    0    0  501    0  0.00000000000E+00 -0.00000000000E+00 -0.76713272105E+03  0.76713272105E+03  0.00000000000E+00 0. -1.
         23    2    1    2    0    0 -0.50434930609E+02 -0.36478901576E+02 -0.16355661554E+03  0.19700672398E+03  0.90479225915E+02 0.  0.
          5    1    1    2  502    0  0.46368843691E+02 -0.80739332097E+01 -0.69142247644E+02  0.83773495044E+02  0.47000000000E+01 0.  1.
         -5    1    1    2    0  502  0.40660869179E+01  0.44552834786E+02 -0.50940199402E+03  0.51138436587E+03  0.47000000000E+01 0.  1.
        -11    1    3    3    0    0 -0.54713826577E+02 -0.16975912959E+02 -0.16717198711E+03  0.17671518813E+03  0.00000000000E+00 0. -1.
         11    1    3    3    0    0  0.42788959678E+01 -0.19502988617E+02  0.36153715752E+01  0.20291535855E+02  0.00000000000E+00 0.  1.
<mgrwt>
<rscale>  0 0.13150149E+03</rscale>
<asrwt>0</asrwt>
<pdfrwt beam="2">  1        2 0.11802041E+00 0.13964039E+03</pdfrwt>
<pdfrwt beam="1">  1       -2 0.38510564E-02 0.13964039E+03</pdfrwt>
<totfact> 0.10459028E+04</totfact>
</mgrwt>
</event>
<event>
 7    1  0.1422977E-005  0.1295819E+03  0.7546771E-02  0.1241205E+00
         -2   -1    0    0    0  501 -0.00000000000E+00  0.00000000000E+00  0.12958400712E+02  0.12958400712E+02  0.00000000000E+00 0.  1.
          2   -1    0    0  501    0  0.00000000000E+00 -0.00000000000E+00 -0.10570336769E+04  0.10570336769E+04  0.00000000000E+00 0. -1.
         23    2    1    2    0    0  0.14717099264E+02  0.30829246680E+02 -0.34147161198E+03  0.35553886778E+03  0.92940783572E+02 0.  0.
          5    1    1    2  502    0  0.22633170524E+02 -0.40437835329E+01 -0.61469648285E+03  0.61514426651E+03  0.47000000000E+01 0. -1.
         -5    1    1    2    0  502 -0.37350269788E+02 -0.26785463147E+02 -0.87907181340E+02  0.99308943305E+02  0.47000000000E+01 0. -1.
        -11    1    3    3    0    0  0.47566301492E+02  0.11360125970E+02 -0.27109071362E+03  0.27546647801E+03  0.00000000000E+00 0. -1.
         11    1    3    3    0    0 -0.32849202228E+02  0.19469120710E+02 -0.70380898364E+02  0.80072389765E+02  0.00000000000E+00 0.  1.
<mgrwt>
<rscale>  0 0.12115447E+03</rscale>
<asrwt>0</asrwt>
<pdfrwt beam="2">  1        2 0.16262053E+00 0.12958194E+03</pdfrwt>
<pdfrwt beam="1">  1       -2 0.19936006E-02 0.12958194E+03</pdfrwt>
<totfact> 0.17949723E+04</totfact>
</mgrwt>
</event>
<event>
 7    1  0.1422977E-005  0.1992840E+03  0.7546771E-02  0.1154771E+00
         -2   -1    0    0    0  501 -0.00000000000E+00  0.00000000000E+00  0.27000169599E+02  0.27000169599E+02  0.00000000000E+00 0. -1.
          2   -1    0    0  501    0  0.00000000000E+00 -0.00000000000E+00 -0.13298752495E+04  0.13298752495E+04  0.00000000000E+00 0.  1.
         23    2    1    2    0    0 -0.99465404167E+02  0.11910997320E+03 -0.59710564789E+03  0.62351015799E+03  0.90272975102E+02 0.  0.
          5    1    1    2  502    0  0.48052016593E+02 -0.52027179600E+02 -0.56247479871E+03  0.56693545744E+03  0.47000000000E+01 0.  1.
         -5    1    1    2    0  502  0.51413387574E+02 -0.67082793599E+02 -0.14329463334E+03  0.16642980371E+03  0.47000000000E+01 0.  1.
        -11    1    3    3    0    0 -0.29681894981E+02 -0.56812064842E+01 -0.18149008000E+03  0.18398896743E+03  0.00000000000E+00 0.  1.
         11    1    3    3    0    0 -0.69783509186E+02  0.12479117968E+03 -0.41561556789E+03  0.43952119056E+03  0.00000000000E+00 0. -1.
<mgrwt>
<rscale>  0 0.19414959E+03</rscale>
<asrwt>0</asrwt>
<pdfrwt beam="2">  1        2 0.20459625E+00 0.19928401E+03</pdfrwt>
<pdfrwt beam="1">  1       -2 0.41538711E-02 0.19928401E+03</pdfrwt>
<totfact> 0.43579717E+03</totfact>
</mgrwt>
</event>
<event>
 7    1  0.1422977E-005  0.1436671E+03  0.7546771E-02  0.1219410E+00
          1   -1    0    0  501    0  0.00000000000E+00  0.00000000000E+00  0.82605662208E+03  0.82605662208E+03  0.00000000000E+00 0. -1.
         -1   -1    0    0    0  501 -0.00000000000E+00 -0.00000000000E+00 -0.21447725560E+02  0.21447725560E+02  0.00000000000E+00 0.  1.
         23    2    1    2    0    0  0.63118005456E+02 -0.21222728200E+02  0.25259349770E+03  0.27709990785E+03  0.92447807130E+02 0.  0.
          5    1    1    2  502    0 -0.17004560194E+02  0.59355745684E+02  0.12832778055E+03  0.14248638137E+03  0.47000000000E+01 0. -1.
         -5    1    1    2    0  502 -0.46113445262E+02 -0.38133017484E+02  0.42368761827E+03  0.42791805843E+03  0.47000000000E+01 0.  1.
        -11    1    3    3    0    0  0.13560895431E+02  0.31650300397E+02  0.41561391575E+02  0.53972110111E+02  0.00000000000E+00 0.  1.
         11    1    3    3    0    0  0.49557110026E+02 -0.52873028597E+02  0.21103210613E+03  0.22312779774E+03  0.00000000000E+00 0. -1.
<mgrwt>
<rscale>  0 0.13557541E+03</rscale>
<asrwt>0</asrwt>
<pdfrwt beam="1">  1        1 0.12708561E+00 0.14366706E+03</pdfrwt>
<pdfrwt beam="2">  1       -1 0.32996507E-02 0.14366706E+03</pdfrwt>
<totfact> 0.69617468E+03</totfact>
</mgrwt>
</event>
<event>
 7    1  0.1422977E-005  0.3101813E+03  0.7546771E-02  0.1081680E+00
         -2   -1    0    0    0  501 -0.00000000000E+00  0.00000000000E+00  0.44986376860E+02  0.44986376860E+02  0.00000000000E+00 0.  1.
          2   -1    0    0  501    0  0.00000000000E+00 -0.00000000000E+00 -0.20672469166E+04  0.20672469166E+04  0.00000000000E+00 0. -1.
         23    2    1    2    0    0  0.25425597937E+03 -0.12625157364E+03 -0.10573969484E+04  0.10987372744E+04  0.92464743823E+02 0.  0.
          5    1    1    2  502    0 -0.73178794170E+01  0.51157977622E+02 -0.17327432326E+03  0.18087777955E+03  0.47000000000E+01 0. -1.
         -5    1    1    2    0  502 -0.24693809995E+03  0.75093596015E+02 -0.79158926807E+03  0.83261823947E+03  0.47000000000E+01 0. -1.
        -11    1    3    3    0    0  0.14282722814E+03 -0.73624443207E+02 -0.42321083764E+03  0.45268928508E+03  0.00000000000E+00 0.  1.
         11    1    3    3    0    0  0.11142875123E+03 -0.52627130430E+02 -0.63418611074E+03  0.64604798933E+03  0.00000000000E+00 0. -1.
<mgrwt>
<rscale>  0 0.30723303E+03</rscale>
<asrwt>0</asrwt>
<pdfrwt beam="2">  1        2 0.31803800E+00 0.31018129E+03</pdfrwt>
<pdfrwt beam="1">  1       -2 0.69209807E-02 0.31018129E+03</pdfrwt>
<totfact> 0.80830359E+02</totfact>
</mgrwt>
</event>
<event>
 7    1  0.1422977E-005  0.2043219E+03  0.7546771E-02  0.1150194E+00
         -4   -1    0    0    0  501 -0.00000000000E+00  0.00000000000E+00  0.14712262187E+03  0.14712262187E+03  0.00000000000E+00 0.  1.
          4   -1    0    0  501    0  0.00000000000E+00 -0.00000000000E+00 -0.27288299033E+03  0.27288299033E+03  0.00000000000E+00 0. -1.
         23    2    1    2    0    0 -0.56256031022E+02 -0.15151673623E+03 -0.11535722308E+02  0.18592287682E+03  0.91171162393E+02 0.  0.
          5    1    1    2  502    0  0.75837818962E+01  0.12952191887E+03 -0.12405728027E+03  0.17957098875E+03  0.47000000000E+01 0.  1.
         -5    1    1    2    0  502  0.48672249126E+02  0.21994817362E+02  0.98326341158E+01  0.54511746618E+02  0.47000000000E+01 0.  1.
        -11    1    3    3    0    0 -0.36074449853E+02 -0.15290990176E+03 -0.28316677559E+02  0.15963908737E+03  0.00000000000E+00 0. -1.
         11    1    3    3    0    0 -0.20181581169E+02  0.13931655319E+01  0.16780955250E+02  0.26283789449E+02  0.00000000000E+00 0.  1.
<mgrwt>
<rscale>  0 0.19946196E+03</rscale>
<asrwt>0</asrwt>
<pdfrwt beam="2">  1        4 0.41981999E-01 0.20432195E+03</pdfrwt>
<pdfrwt beam="1">  1       -4 0.22634249E-01 0.20432195E+03</pdfrwt>
<totfact> 0.17735115E+02</totfact>
</mgrwt>
</event>
<event>
 7    1  0.1422977E-005  0.1494440E+03  0.7546771E-02  0.1210593E+00
         -1   -1    0    0    0  501 -0.00000000000E+00  0.00000000000E+00  0.29891960092E+02  0.29891960092E+02  0.00000000000E+00 0.  1.
          1   -1    0    0  501    0  0.00000000000E+00 -0.00000000000E+00 -0.67127824151E+03  0.67127824151E+03  0.00000000000E+00 0. -1.
         23    2    1    2    0    0  0.53092426512E+02  0.62401671422E+02 -0.19101987551E+03  0.22665633083E+03  0.90397594639E+02 0.  0.
          5    1    1    2  502    0 -0.67720540139E+02  0.15134014767E+02 -0.18573227672E+03  0.19832720080E+03  0.47000000000E+01 0. -1.
         -5    1    1    2    0  502  0.14628113627E+02 -0.77535686189E+02 -0.26463412919E+03  0.27618666998E+03  0.47000000000E+01 0. -1.
        -11    1    3    3    0    0  0.55089695123E+02 -0.40444954214E+00 -0.60668169019E+02  0.81949159973E+02  0.00000000000E+00 0.  1.
         11    1    3    3    0    0 -0.19972686112E+01  0.62806120964E+02 -0.13035170649E+03  0.14470717086E+03  0.00000000000E+00 0. -1.
<mgrwt>
<rscale>  0 0.14205309E+03</rscale>
<asrwt>0</asrwt>
<pdfrwt beam="2">  1        1 0.10327356E+00 0.14944402E+03</pdfrwt>
<pdfrwt beam="1">  1       -1 0.45987637E-02 0.14944402E+03</pdfrwt>
<totfact> 0.58074507E+03</totfact>
</mgrwt>
</event>
<event>
 7    1  0.1422977E-005  0.1348486E+03  0.7546771E-02  0.1232584E+00
         -3   -1    0    0    0  501 -0.00000000000E+00  0.00000000000E+00  0.17813613735E+03  0.17813613735E+03  0.00000000000E+00 0.  1.
          3   -1    0    0  501    0  0.00000000000E+00 -0.00000000000E+00 -0.17952023332E+03  0.17952023332E+03  0.00000000000E+00 0. -1.
         23    2    1    2    0    0 -0.87620039043E+01 -0.49833911159E+02  0.13163460244E+03  0.16824113621E+03  0.91745408277E+02 0.  0.
          5    1    1    2  502    0  0.24389355138E+02  0.88578182552E+02 -0.10064535126E+03  0.13635436112E+03  0.47000000000E+01 0.  1.
         -5    1    1    2    0  502 -0.15627351234E+02 -0.38744271392E+02 -0.32373347158E+02  0.53060873330E+02  0.47000000000E+01 0.  1.
        -11    1    3    3    0    0 -0.44415073605E+02 -0.47353481927E+02  0.10583898228E+03  0.12416497567E+03  0.00000000000E+00 0.  1.
         11    1    3    3    0    0  0.35653069701E+02 -0.24804292323E+01  0.25795620165E+02  0.44076160540E+02  0.00000000000E+00 0. -1.
<mgrwt>
<rscale>  0 0.12660400E+03</rscale>
<asrwt>0</asrwt>
<pdfrwt beam="2">  1        3 0.27618497E-01 0.13484864E+03</pdfrwt>
<pdfrwt beam="1">  1       -3 0.27405560E-01 0.13484864E+03</pdfrwt>
<totfact> 0.36924482E+02</totfact>
</mgrwt>
</event>
<event>
 7    1  0.1422977E-005  0.1257856E+03  0.7546771E-02  0.1249590E+00
          2   -1    0    0  501    0  0.00000000000E+00  0.00000000000E+00  0.65738337648E+03  0.65738337648E+03  0.00000000000E+00 0. -1.
         -2   -1    0    0    0  501 -0.00000000000E+00 -0.00000000000E+00 -0.19704857277E+02  0.19704857277E+02  0.00000000000E+00 0.  1.
         23    2    1    2    0    0 -0.81931314396E+01 -0.11410633733E+02  0.17293630979E+03  0.19562449466E+03  0.90358429057E+02 0.  0.
          5    1    1    2  502    0  0.56073426425E+02  0.30460742803E+02  0.15931226944E+03  0.17168160996E+03  0.47000000000E+01 0.  1.
         -5    1    1    2    0  502 -0.47880294985E+02 -0.19050109070E+02  0.30542993996E+03  0.30978212913E+03  0.47000000000E+01 0.  1.
        -11    1    3    3    0    0  0.27061349334E+02  0.38854607046E+01  0.14638139604E+03  0.14891247946E+03  0.00000000000E+00 0. -1.
         11    1    3    3    0    0 -0.35254480773E+02 -0.15296094437E+02  0.26554913752E+02  0.46712015200E+02  0.00000000000E+00 0.  1.
<mgrwt>
<rscale>  0 0.11614800E+03</rscale>
<asrwt>0</asrwt>
<pdfrwt beam="1">  1        2 0.10113589E+00 0.12578557E+03</pdfrwt>
<pdfrwt beam="2">  1       -2 0.30315170E-02 0.12578557E+03</pdfrwt>
<totfact> 0.17764424E+04</totfact>
</mgrwt>
</event>
<event>
 7    1  0.1422977E-005  0.1208270E+03  0.7546771E-02  0.1255612E+00
         -1   -1    0    0    0  501 -0.00000000000E+00  0.00000000000E+00  0.16378705755E+02  0.16378705755E+02  0.00000000000E+00 0.  1.
          1   -1    0    0  501    0  0.00000000000E+00 -0.00000000000E+00 -0.69545766069E+03  0.69545766069E+03  0.00000000000E+00 0. -1.
         23    2    1    2    0    0 -0.28462552249E+01 -0.33497729451E+00 -0.25736587623E+03  0.27315529823E+03  0.91479010288E+02 0.  0.
          5    1    1    2  502    0  0.50642867366E+01  0.54999936289E+02 -0.30105130976E+03  0.30611210545E+03  0.47000000000E+01 0. -1.
         -5    1    1    2    0  502 -0.22180315117E+01 -0.54664958995E+02 -0.12066176894E+03  0.13256896277E+03  0.47000000000E+01 0.  1.
        -11    1    3    3    0    0  0.83446818511E+01 -0.41119901409E+02 -0.74893493071E+02  0.85845881157E+02  0.00000000000E+00 0.  1.
         11    1    3    3    0    0 -0.11190937076E+02  0.40784924115E+02 -0.18247238316E+03  0.18730941707E+03  0.00000000000E+00 0. -1.
<mgrwt>
<rscale>  0 0.11272145E+03</rscale>
<asrwt>0</asrwt>
<pdfrwt beam="2">  1        1 0.10699347E+00 0.12082698E+03</pdfrwt>
<pdfrwt beam="1">  1       -1 0.25198013E-02 0.12082698E+03</pdfrwt>
<totfact> 0.13129548E+04</totfact>
</mgrwt>
</event>
<event>
 7    1  0.1422977E-005  0.1338613E+03  0.7546771E-02  0.1231625E+00
          1   -1    0    0  501    0  0.00000000000E+00  0.00000000000E+00  0.79586914213E+02  0.79586914213E+02  0.00000000000E+00 0. -1.
         -1   -1    0    0    0  501 -0.00000000000E+00 -0.00000000000E+00 -0.18613154186E+03  0.18613154186E+03  0.00000000000E+00 0.  1.
         23    2    1    2    0    0 -0.46423910363E+02  0.11793221250E+02 -0.41139177308E+02  0.11673279166E+03  0.98182754178E+02 0.  0.
          5    1    1    2  502    0  0.30793971171E+02 -0.29970155752E+02 -0.98664762162E+02  0.10771863436E+03  0.47000000000E+01 0. -1.
         -5    1    1    2    0  502  0.15629939192E+02  0.18176934502E+02  0.33259311819E+02  0.41267030057E+02  0.47000000000E+01 0. -1.
        -11    1    3    3    0    0  0.68392224359E+01  0.45295154714E+02 -0.11790339175E+02  0.47301565534E+02  0.00000000000E+00 0. -1.
         11    1    3    3    0    0 -0.53263132799E+02 -0.33501933464E+02 -0.29348838133E+02  0.69431226125E+02  0.00000000000E+00 0.  1.
<mgrwt>
<rscale>  0 0.12723017E+03</rscale>
<asrwt>0</asrwt>
<pdfrwt beam="1">  1        1 0.12244141E-01 0.13386133E+03</pdfrwt>
<pdfrwt beam="2">  1       -1 0.28635622E-01 0.13386133E+03</pdfrwt>
<totfact> 0.51475382E+03</totfact>
</mgrwt>
</event>
<event>
 7    1  0.1422977E-005  0.3158656E+03  0.7546771E-02  0.1120526E+00
         -2   -1    0    0    0  501 -0.00000000000E+00  0.00000000000E+00  0.56551930034E+02  0.56551930034E+02  0.00000000000E+00 0.  1.
          2   -1    0    0  501    0  0.00000000000E+00 -0.00000000000E+00 -0.77706469209E+03  0.77706469209E+03  0.00000000000E+00 0. -1.
         23    2    1    2    0    0  0.40342882769E+02 -0.18526644534E+02 -0.17352358985E+03  0.20197731572E+03  0.93346746500E+02 0.  0.
          5    1    1    2  502    0  0.33104520320E+02 -0.11655762460E+03 -0.40331013411E+03  0.42114456353E+03  0.47000000000E+01 0. -1.
         -5    1    1    2    0  502 -0.73447403089E+02  0.13508426914E+03 -0.14367903810E+03  0.21049474287E+03  0.47000000000E+01 0.  1.
        -11    1    3    3    0    0  0.67433897971E+02 -0.74345370833E+01 -0.85094163532E+02  0.10882839521E+03  0.00000000000E+00 0.  1.
         11    1    3    3    0    0 -0.27091015202E+02 -0.11092107451E+02 -0.88429426317E+02  0.93148920504E+02  0.00000000000E+00 0. -1.
<mgrwt>
<rscale>  0 0.23890238E+03</rscale>
<asrwt>0</asrwt>
<pdfrwt beam="2">  1        2 0.11954840E+00 0.31586557E+03</pdfrwt>
<pdfrwt beam="1">  1       -2 0.87002977E-02 0.31586557E+03</pdfrwt>
<totfact> 0.30509469E+03</totfact>
</mgrwt>
</event>
<event>
 7    1  0.1422977E-005  0.1294593E+03  0.7546771E-02  0.1243132E+00
         -2   -1    0    0    0  501 -0.00000000000E+00  0.00000000000E+00  0.94089098617E+01  0.94089098617E+01  0.00000000000E+00 0.  1.
          2   -1    0    0  501    0  0.00000000000E+00 -0.00000000000E+00 -0.19486627664E+04  0.19486627664E+04  0.00000000000E+00 0. -1.
         23    2    1    2    0    0 -0.33677486716E+02 -0.38030200595E+00 -0.32788031680E+03  0.34150605666E+03  0.89367593937E+02 0.  0.
          5    1    1    2  502    0  0.26196559632E+02  0.54271895050E+02 -0.12080914178E+04  0.12096026877E+04  0.47000000000E+01 0. -1.
         -5    1    1    2    0  502  0.74809270840E+01 -0.53891593044E+02 -0.40328212192E+03  0.40696293189E+03  0.47000000000E+01 0. -1.
        -11    1    3    3    0    0  0.14240208877E+02 -0.29772066742E+02 -0.18582243372E+03  0.18873032713E+03  0.00000000000E+00 0. -1.
         11    1    3    3    0    0 -0.47917695593E+02  0.29391764736E+02 -0.14205788308E+03  0.15277572952E+03  0.00000000000E+00 0.  1.
<mgrwt>
<rscale>  0 0.11997883E+03</rscale>
<asrwt>0</asrwt>
<pdfrwt beam="2">  1        2 0.29979444E+00 0.12945933E+03</pdfrwt>
<pdfrwt beam="1">  1       -2 0.14475238E-02 0.12945933E+03</pdfrwt>
<totfact> 0.96414423E+03</totfact>
</mgrwt>
</event>
<event>
 7    1  0.1422977E-005  0.1262709E+03  0.7546771E-02  0.1245600E+00
          1   -1    0    0  501    0  0.00000000000E+00  0.00000000000E+00  0.75036883295E+02  0.75036883295E+02  0.00000000000E+00 0. -1.
         -1   -1    0    0    0  501 -0.00000000000E+00 -0.00000000000E+00 -0.17957038001E+03  0.17957038001E+03  0.00000000000E+00 0.  1.
         23    2    1    2    0    0  0.76149110155E+01 -0.16193672714E+02 -0.78909878028E+02  0.12576273008E+03  0.96277066439E+02 0.  0.
          5    1    1    2  502    0  0.21295766671E+02  0.56208672643E+02  0.17870223504E+02  0.62883697779E+02  0.47000000000E+01 0.  1.
         -5    1    1    2    0  502 -0.28910677687E+02 -0.40014999929E+02 -0.43493842192E+02  0.65960835443E+02  0.47000000000E+01 0.  1.
        -11    1    3    3    0    0 -0.42532939128E+02 -0.17851743097E+02 -0.49243401997E+02  0.67473315338E+02  0.00000000000E+00 0. -1.
         11    1    3    3    0    0  0.50147850143E+02  0.16580703836E+01 -0.29666476032E+02  0.58289414747E+02  0.00000000000E+00 0.  1.
<mgrwt>
<rscale>  0 0.11849553E+03</rscale>
<asrwt>0</asrwt>
<pdfrwt beam="1">  1        1 0.11544136E-01 0.12627091E+03</pdfrwt>
<pdfrwt beam="2">  1       -1 0.27626212E-01 0.12627091E+03</pdfrwt>
<totfact> 0.58789750E+03</totfact>
</mgrwt>
</event>
<event>
 7    1  0.1422977E-005  0.1311741E+03  0.7546771E-02  0.1239445E+00
         -2   -1    0    0    0  501 -0.00000000000E+00  0.00000000000E+00  0.80893307344E+02  0.80893307344E+02  0.00000000000E+00 0.  1.
          2   -1    0    0  501    0  0.00000000000E+00 -0.00000000000E+00 -0.20505787916E+03  0.20505787916E+03  0.00000000000E+00 0. -1.
         23    2    1    2    0    0  0.27001095582E+02 -0.29205643409E+02  0.86149850591E+01  0.99304292396E+02  0.90581983590E+02 0.  0.
          5    1    1    2  502    0 -0.30733178991E+02  0.75857938714E+02 -0.10002501164E+03  0.12932922373E+03  0.47000000000E+01 0. -1.
         -5    1    1    2    0  502  0.37320834093E+01 -0.46652295306E+02 -0.32754545233E+02  0.57317670375E+02  0.47000000000E+01 0. -1.
        -11    1    3    3    0    0  0.23964142481E+02 -0.40044996148E+02  0.42794609172E+02  0.63318720893E+02  0.00000000000E+00 0.  1.
         11    1    3    3    0    0  0.30369531012E+01  0.10839352739E+02 -0.34179624113E+02  0.35985571503E+02  0.00000000000E+00 0. -1.
<mgrwt>
<rscale>  0 0.12224132E+03</rscale>
<asrwt>0</asrwt>
<pdfrwt beam="2">  1        2 0.31547365E-01 0.13117413E+03</pdfrwt>
<pdfrwt beam="1">  1       -2 0.12445124E-01 0.13117413E+03</pdfrwt>
<totfact> 0.73149512E+03</totfact>
</mgrwt>
</event>
<event>
 7    1  0.1422977E-005  0.1478661E+03  0.7546771E-02  0.1213590E+00
          2   -1    0    0  501    0  0.00000000000E+00  0.00000000000E+00  0.13790273116E+04  0.13790273116E+04  0.00000000000E+00 0. -1.
         -2   -1    0    0    0  501 -0.00000000000E+00 -0.00000000000E+00 -0.45757999489E+02  0.45757999489E+02  0.00000000000E+00 0.  1.
         23    2    1    2    0    0 -0.78473798697E+00  0.73752831042E+02  0.42506161874E+02  0.12558021593E+03  0.92322916633E+02 0.  0.
          5    1    1    2  502    0 -0.54531538109E+02 -0.52769806974E+02  0.97165117725E+03  0.97462117842E+03  0.47000000000E+01 0. -1.
         -5    1    1    2    0  502  0.55316276095E+02 -0.20983024068E+02  0.31911197297E+03  0.32458391672E+03  0.47000000000E+01 0.  1.
        -11    1    3    3    0    0  0.40512500219E+02  0.40761503582E+02 -0.44638051422E+00  0.57471402487E+02  0.00000000000E+00 0.  1.
         11    1    3    3    0    0 -0.41297238206E+02  0.32991327460E+02  0.42952542389E+02  0.68108813444E+02  0.00000000000E+00 0. -1.
<mgrwt>
<rscale>  0 0.13980609E+03</rscale>
<asrwt>0</asrwt>
<pdfrwt beam="1">  1        2 0.21215802E+00 0.14786605E+03</pdfrwt>
<pdfrwt beam="2">  1       -2 0.70396933E-02 0.14786605E+03</pdfrwt>
<totfact> 0.18361964E+03</totfact>
</mgrwt>
</event>
<event>
 7    1  0.1422977E-005  0.1395314E+03  0.7546771E-02  0.1225750E+00
         -2   -1    0    0    0  501 -0.00000000000E+00  0.00000000000E+00  0.25038989836E+02  0.25038989836E+02  0.00000000000E+00 0.  1.
          2   -1    0    0  501    0  0.00000000000E+00 -0.00000000000E+00 -0.66812430708E+03  0.66812430708E+03  0.00000000000E+00 0. -1.
         23    2    1    2    0    0 -0.16814465949E+01 -0.61975991156E+02 -0.18921797084E+03  0.21833219390E+03  0.89563696099E+02 0.  0.
          5    1    1    2  502    0  0.54715750144E+02  0.16135725010E+02 -0.30362663100E+03  0.30897474976E+03  0.47000000000E+01 0. -1.
         -5    1    1    2    0  502 -0.53034303549E+02  0.45840266147E+02 -0.15024071539E+03  0.16585635326E+03  0.47000000000E+01 0. -1.
        -11    1    3    3    0    0  0.17142581606E+02 -0.36962534144E+02 -0.18159833338E+03  0.18611300793E+03  0.00000000000E+00 0. -1.
         11    1    3    3    0    0 -0.18824028201E+02 -0.25013457013E+02 -0.76196374676E+01  0.32219185970E+02  0.00000000000E+00 0.  1.
<mgrwt>
<rscale>  0 0.13115647E+03</rscale>
<asrwt>0</asrwt>
<pdfrwt beam="2">  1        2 0.10278837E+00 0.13953139E+03</pdfrwt>
<pdfrwt beam="1">  1       -2 0.38521519E-02 0.13953139E+03</pdfrwt>
<totfact> 0.12335612E+04</totfact>
</mgrwt>
</event>
<event>
 7    1  0.1422977E-005  0.1342016E+03  0.7546771E-02  0.1234147E+00
         -1   -1    0    0    0  501 -0.00000000000E+00  0.00000000000E+00  0.36322163587E+03  0.36322163587E+03  0.00000000000E+00 0.  1.
          1   -1    0    0  501    0  0.00000000000E+00 -0.00000000000E+00 -0.39103201818E+02  0.39103201818E+02  0.00000000000E+00 0. -1.
         23    2    1    2    0    0 -0.80946290826E+00  0.48830098494E+02  0.16101064323E+03  0.19110406535E+03  0.90616239226E+02 0.  0.
          5    1    1    2  502    0 -0.39277935521E+02  0.42489481863E+01  0.55981231420E+01  0.40177590298E+02  0.47000000000E+01 0.  1.
         -5    1    1    2    0  502  0.40087398429E+02 -0.53079046680E+02  0.15750966768E+03  0.17104318204E+03  0.47000000000E+01 0.  1.
        -11    1    3    3    0    0  0.30383165059E+02  0.60835268028E+02  0.12253299209E+03  0.14013707827E+03  0.00000000000E+00 0.  1.
         11    1    3    3    0    0 -0.31192627968E+02 -0.12005169534E+02  0.38477651140E+02  0.50966987083E+02  0.00000000000E+00 0. -1.
<mgrwt>
<rscale>  0 0.12559220E+03</rscale>
<asrwt>0</asrwt>
<pdfrwt beam="2">  1        1 0.60158774E-02 0.13420158E+03</pdfrwt>
<pdfrwt beam="1">  1       -1 0.55880250E-01 0.13420158E+03</pdfrwt>
<totfact> 0.41062400E+03</totfact>
</mgrwt>
</event>
<event>
 7    1  0.1422977E-005  0.1456341E+03  0.7546771E-02  0.1215948E+00
         -2   -1    0    0    0  501 -0.00000000000E+00  0.00000000000E+00  0.12350502532E+02  0.12350502532E+02  0.00000000000E+00 0.  1.
          2   -1    0    0  501    0  0.00000000000E+00 -0.00000000000E+00 -0.16730685905E+04  0.16730685905E+04  0.00000000000E+00 0. -1.
         23    2    1    2    0    0  0.70542014375E+02  0.24669207837E+02 -0.41953574534E+03  0.43572196629E+03  0.90877085552E+02 0.  0.
          5    1    1    2  502    0 -0.10539924084E+03 -0.11007377992E+02 -0.82110441733E+03  0.82792796576E+03  0.47000000000E+01 0. -1.
         -5    1    1    2    0  502  0.34857226462E+02 -0.13661829845E+02 -0.42007792529E+03  0.42176916097E+03  0.47000000000E+01 0. -1.
        -11    1    3    3    0    0  0.83096030821E+02  0.12203771145E+02 -0.40247356649E+03  0.41114334981E+03  0.00000000000E+00 0. -1.
         11    1    3    3    0    0 -0.12554016446E+02  0.12465436692E+02 -0.17062178850E+02  0.24578616478E+02  0.00000000000E+00 0.  1.
<mgrwt>
<rscale>  0 0.13807107E+03</rscale>
<asrwt>0</asrwt>
<pdfrwt beam="2">  1        2 0.25739518E+00 0.14563413E+03</pdfrwt>
<pdfrwt beam="1">  1       -2 0.19000772E-02 0.14563413E+03</pdfrwt>
<totfact> 0.90364332E+03</totfact>
</mgrwt>
</event>
<event>
 7    1  0.1422977E-005  0.1618522E+03  0.7546771E-02  0.1193996E+00
         -1   -1    0    0    0  501 -0.00000000000E+00  0.00000000000E+00  0.27020065962E+03  0.27020065962E+03  0.00000000000E+00 0.  1.
          1   -1    0    0  501    0  0.00000000000E+00 -0.00000000000E+00 -0.82927603939E+02  0.82927603939E+02  0.00000000000E+00 0. -1.
         23    2    1    2    0    0 -0.76685295017E+02  0.68476645637E+02  0.85872291198E+02  0.16213543604E+03  0.91346394312E+02 0.  0.
          5    1    1    2  502    0  0.57344108957E+02  0.79650436253E+01 -0.51980732322E+01  0.58317224877E+02  0.47000000000E+01 0. -1.
         -5    1    1    2    0  502  0.19341186060E+02 -0.76441689262E+02  0.10659883772E+03  0.13267560265E+03  0.47000000000E+01 0. -1.
        -11    1    3    3    0    0 -0.59758364558E+02  0.58900232347E+02  0.10530293853E+03  0.13464400606E+03  0.00000000000E+00 0.  1.
         11    1    3    3    0    0 -0.16926930459E+02  0.95764132898E+01 -0.19430647333E+02  0.27491429974E+02  0.00000000000E+00 0. -1.
<mgrwt>
<rscale>  0 0.15539481E+03</rscale>
<asrwt>0</asrwt>
<pdfrwt beam="2">  1        1 0.12758093E-01 0.16185223E+03</pdfrwt>
<pdfrwt beam="1">  1       -1 0.41569332E-01 0.16185223E+03</pdfrwt>
<totfact> 0.25984082E+03</totfact>
</mgrwt>
</event>
<event>
 7    1  0.1422977E-005  0.1281922E+03  0.7546771E-02  0.1244907E+00
         -2   -1    0    0    0  501 -0.00000000000E+00  0.00000000000E+00  0.17623602422E+02  0.17623602422E+02  0.00000000000E+00 0. -1.
          2   -1    0    0  501    0  0.00000000000E+00 -0.00000000000E+00 -0.71157444746E+03  0.71157444746E+03  0.00000000000E+00 0.  1.
         23    2    1    2    0    0  0.55916360769E+01 -0.27880191328E+02 -0.26379905331E+03  0.28035084855E+03  0.90543284076E+02 0.  0.
          5    1    1    2  502    0  0.48620514184E+01 -0.39104820702E+02 -0.29411399984E+03  0.29677931439E+03  0.47000000000E+01 0. -1.
         -5    1    1    2    0  502 -0.10453687495E+02  0.66985012031E+02 -0.13603779189E+03  0.15206788695E+03  0.47000000000E+01 0. -1.
        -11    1    3    3    0    0 -0.30375709189E+02 -0.27043276199E+02 -0.21972585711E+03  0.22345799332E+03  0.00000000000E+00 0.  1.
         11    1    3    3    0    0  0.35967345266E+02 -0.83691512887E+00 -0.44073196196E+02  0.56892855222E+02  0.00000000000E+00 0. -1.
<mgrwt>
<rscale>  0 0.11890955E+03</rscale>
<asrwt>0</asrwt>
<pdfrwt beam="2">  1        2 0.10947297E+00 0.12819222E+03</pdfrwt>
<pdfrwt beam="1">  1       -2 0.27113239E-02 0.12819222E+03</pdfrwt>
<totfact> 0.19089567E+04</totfact>
</mgrwt>
</event>
<event>
 7    1  0.1614535E-005  0.2244021E+03  0.7546771E-02  0.1130681E+00
         -1   -1    0    0    0  501 -0.00000000000E+00  0.00000000000E+00  0.91879246664E+02  0.91879246664E+02  0.00000000000E+00 0.  1.
          1   -1    0    0  501    0  0.00000000000E+00 -0.00000000000E+00 -0.56232500684E+03  0.56232500684E+03  0.00000000000E+00 0. -1.
         23    2    1    2    0    0  0.13244399822E+03  0.13110973070E+03 -0.18211639229E+03  0.28884121798E+03  0.12462622002E+03 0.  0.
          5    1    1    2  502    0  0.17380766701E+02 -0.25467741225E+01 -0.31060919082E+01  0.18447626311E+02  0.47000000000E+01 0.  1.
         -5    1    1    2    0  502 -0.14982476492E+03 -0.12856295658E+03 -0.28522327599E+03  0.34691540922E+03  0.47000000000E+01 0.  1.
        -11    1    3    3    0    0  0.12671373162E+03  0.85573828391E+02 -0.70927162157E+02  0.16855240199E+03  0.00000000000E+00 0.  1.
         11    1    3    3    0    0  0.57302665965E+01  0.45535902313E+02 -0.11118923013E+03  0.12028881599E+03  0.00000000000E+00 0. -1.
<mgrwt>
<rscale>  0 0.22435005E+03</rscale>
<asrwt>0</asrwt>
<pdfrwt beam="2">  1        1 0.86511539E-01 0.22440215E+03</pdfrwt>
<pdfrwt beam="1">  1       -1 0.14135269E-01 0.22440215E+03</pdfrwt>
<totfact> 0.13581785E+03</totfact>
</mgrwt>
</event>
<event>
 7    1  0.1422977E-005  0.1733261E+03  0.7546771E-02  0.1180601E+00
          1   -1    0    0  501    0  0.00000000000E+00  0.00000000000E+00  0.23159127548E+03  0.23159127548E+03  0.00000000000E+00 0. -1.
         -1   -1    0    0    0  501 -0.00000000000E+00 -0.00000000000E+00 -0.16689836460E+03  0.16689836460E+03  0.00000000000E+00 0.  1.
         23    2    1    2    0    0  0.57391903431E+02  0.10544636924E+03 -0.81821729630E+02  0.17153485483E+03  0.91195633758E+02 0.  0.
          5    1    1    2  502    0 -0.24141460175E+02 -0.35665440286E+02  0.14301728871E+03  0.14943516521E+03  0.47000000000E+01 0.  1.
         -5    1    1    2    0  502 -0.33250443256E+02 -0.69780928951E+02  0.34973517951E+01  0.77519620043E+02  0.47000000000E+01 0.  1.
        -11    1    3    3    0    0  0.72134577964E+02  0.10937543308E+03 -0.84691952324E+02  0.15600996599E+03  0.00000000000E+00 0.  1.
         11    1    3    3    0    0 -0.14742674533E+02 -0.39290638455E+01  0.28702226938E+01  0.15524888837E+02  0.00000000000E+00 0. -1.
<mgrwt>
<rscale>  0 0.16738691E+03</rscale>
<asrwt>0</asrwt>
<pdfrwt beam="1">  1        1 0.35629427E-01 0.17332609E+03</pdfrwt>
<pdfrwt beam="2">  1       -1 0.25676672E-01 0.17332609E+03</pdfrwt>
<totfact> 0.16012928E+03</totfact>
</mgrwt>
</event>
<event>
 7    1  0.1422977E-005  0.1910835E+03  0.7546771E-02  0.1162167E+00
          1   -1    0    0  501    0  0.00000000000E+00  0.00000000000E+00  0.27220718165E+02  0.27220718165E+02  0.00000000000E+00 0. -1.
         -1   -1    0    0    0  501 -0.00000000000E+00 -0.00000000000E+00 -0.12227054630E+04  0.12227054630E+04  0.00000000000E+00 0.  1.
         23    2    1    2    0    0 -0.11087587611E+03 -0.92704905226E+02 -0.63755484873E+03  0.66018161422E+03  0.92064755750E+02 0.  0.
          5    1    1    2  502    0 -0.16031793222E+02 -0.16321345849E+02 -0.57328787201E+02  0.61903833210E+02  0.47000000000E+01 0.  1.
         -5    1    1    2    0  502  0.12690766933E+03  0.10902625108E+03 -0.50060110891E+03  0.52784073374E+03  0.47000000000E+01 0.  1.
        -11    1    3    3    0    0 -0.12746644459E+03 -0.81458111668E+02 -0.55808597252E+03  0.57822406659E+03  0.00000000000E+00 0. -1.
         11    1    3    3    0    0  0.16590568476E+02 -0.11246793558E+02 -0.79468876207E+02  0.81957547629E+02  0.00000000000E+00 0.  1.
<mgrwt>
<rscale>  0 0.18594882E+03</rscale>
<asrwt>0</asrwt>
<pdfrwt beam="1">  1        1 0.41878038E-02 0.19108345E+03</pdfrwt>
<pdfrwt beam="2">  1       -1 0.18810849E+00 0.19108345E+03</pdfrwt>
<totfact> 0.42820042E+02</totfact>
</mgrwt>
</event>
<event>
 7    1  0.1422977E-005  0.2931783E+03  0.7546771E-02  0.1090384E+00
         -2   -1    0    0    0  501 -0.00000000000E+00  0.00000000000E+00  0.13261282741E+03  0.13261282741E+03  0.00000000000E+00 0. -1.
          2   -1    0    0  501    0  0.00000000000E+00 -0.00000000000E+00 -0.81945809310E+03  0.81945809310E+03  0.00000000000E+00 0.  1.
         23    2    1    2    0    0 -0.17690776201E+03  0.19756317886E+03 -0.10296970587E+03  0.29872248085E+03  0.91130644360E+02 0.  0.
          5    1    1    2  502    0  0.82332296369E+02 -0.45811752207E+02 -0.32696346878E+03  0.34030063706E+03  0.47000000000E+01 0.  1.
         -5    1    1    2    0  502  0.94575465641E+02 -0.15175142665E+03 -0.25691209104E+03  0.31304780260E+03  0.47000000000E+01 0.  1.
        -11    1    3    3    0    0 -0.12065769708E+03  0.14666715211E+03 -0.11484032323E+03  0.22194105797E+03  0.00000000000E+00 0.  1.
         11    1    3    3    0    0 -0.56250064925E+02  0.50896026748E+02  0.11870617368E+02  0.76781422881E+02  0.00000000000E+00 0. -1.
<mgrwt>
<rscale>  0 0.28993392E+03</rscale>
<asrwt>0</asrwt>
<pdfrwt beam="2">  1        2 0.12607047E+00 0.29317830E+03</pdfrwt>
<pdfrwt beam="1">  1       -2 0.20401974E-01 0.29317830E+03</pdfrwt>
<totfact> 0.70037048E+02</totfact>
</mgrwt>
</event>
<event>
 7    1  0.1422977E-005  0.1188744E+03  0.7546771E-02  0.1253782E+00
          1   -1    0    0  501    0  0.00000000000E+00  0.00000000000E+00  0.26559706900E+03  0.26559706900E+03  0.00000000000E+00 0. -1.
         -1   -1    0    0    0  501 -0.00000000000E+00 -0.00000000000E+00 -0.45791245052E+02  0.45791245052E+02  0.00000000000E+00 0.  1.
         23    2    1    2    0    0 -0.41201769580E+02  0.46943802373E+01  0.12140821375E+03  0.15707297329E+03  0.90621970571E+02 0.  0.
          5    1    1    2  502    0  0.40233558759E+01 -0.51477450903E+02  0.72227174596E+02  0.88909898740E+02  0.47000000000E+01 0. -1.
         -5    1    1    2    0  502  0.37178413704E+02  0.46783070665E+02  0.26170435601E+02  0.65405442021E+02  0.47000000000E+01 0.  1.
        -11    1    3    3    0    0 -0.55206738260E+02 -0.82991765134E+01  0.12565845349E+03  0.13750166259E+03  0.00000000000E+00 0. -1.
         11    1    3    3    0    0  0.14004968681E+02  0.12993556751E+02 -0.42502397423E+01  0.19571310703E+02  0.00000000000E+00 0.  1.
<mgrwt>
<rscale>  0 0.11374853E+03</rscale>
<asrwt>0</asrwt>
<pdfrwt beam="1">  1        1 0.40861087E-01 0.11887445E+03</pdfrwt>
<pdfrwt beam="2">  1       -1 0.70448071E-02 0.11887445E+03</pdfrwt>
<totfact> 0.10002918E+04</totfact>
</mgrwt>
</event>
<event>
 7    1  0.1422977E-005  0.1517395E+03  0.7546771E-02  0.1206893E+00
          2   -1    0    0  501    0  0.00000000000E+00  0.00000000000E+00  0.95926065636E+03  0.95926065636E+03  0.00000000000E+00 0. -1.
         -2   -1    0    0    0  501 -0.00000000000E+00 -0.00000000000E+00 -0.21447697143E+02  0.21447697143E+02  0.00000000000E+00 0.  1.
         23    2    1    2    0    0 -0.84628057345E+02  0.15461580371E+02  0.30714326915E+03  0.33204116708E+03  0.92267980867E+02 0.  0.
          5    1    1    2  502    0  0.32151683327E+02  0.22133083953E+02  0.51189109925E+03  0.51339866735E+03  0.47000000000E+01 0. -1.
         -5    1    1    2    0  502  0.52476374018E+02 -0.37594664324E+02  0.11877859081E+03  0.13526851907E+03  0.47000000000E+01 0. -1.
        -11    1    3    3    0    0 -0.77110387107E+02  0.71820987610E+00  0.30587216200E+03  0.31544303307E+03  0.00000000000E+00 0. -1.
         11    1    3    3    0    0 -0.75176702379E+01  0.14743370495E+02  0.12711071545E+01  0.16598134014E+02  0.00000000000E+00 0.  1.
<mgrwt>
<rscale>  0 0.14489303E+03</rscale>
<asrwt>0</asrwt>
<pdfrwt beam="1">  1        2 0.14757853E+00 0.15173945E+03</pdfrwt>
<pdfrwt beam="2">  1       -2 0.32996465E-02 0.15173945E+03</pdfrwt>
<totfact> 0.99141112E+03</totfact>
</mgrwt>
</event>
<event>
 7    1  0.1422977E-005  0.1299522E+03  0.7546771E-02  0.1240569E+00
         -1   -1    0    0    0  501 -0.00000000000E+00  0.00000000000E+00  0.16295598798E+02  0.16295598798E+02  0.00000000000E+00 0.  1.
          1   -1    0    0  501    0  0.00000000000E+00 -0.00000000000E+00 -0.99658839609E+03  0.99658839609E+03  0.00000000000E+00 0. -1.
         23    2    1    2    0    0 -0.97442682047E+01  0.34143450281E+02 -0.21825727875E+03  0.23984732158E+03  0.92896566035E+02 0.  0.
          5    1    1    2  502    0  0.34157282234E+02 -0.74731997856E+02 -0.47215832566E+03  0.47927775446E+03  0.47000000000E+01 0. -1.
         -5    1    1    2    0  502 -0.24413014029E+02  0.40588547575E+02 -0.28987719288E+03  0.29375891885E+03  0.47000000000E+01 0. -1.
        -11    1    3    3    0    0 -0.88924442456E+00 -0.26478654020E+02 -0.22603333693E+02  0.34825573482E+02  0.00000000000E+00 0.  1.
         11    1    3    3    0    0 -0.88550237801E+01  0.60622104301E+02 -0.19565394506E+03  0.20502174810E+03  0.00000000000E+00 0. -1.
<mgrwt>
<rscale>  0 0.12154579E+03</rscale>
<asrwt>0</asrwt>
<pdfrwt beam="2">  1        1 0.15332129E+00 0.12995217E+03</pdfrwt>
<pdfrwt beam="1">  1       -1 0.25070151E-02 0.12995217E+03</pdfrwt>
<totfact> 0.76480274E+03</totfact>
</mgrwt>
</event>
<event>
 7    1  0.1422977E-005  0.2573279E+03  0.7546771E-02  0.1110915E+00
         -2   -1    0    0    0  501 -0.00000000000E+00  0.00000000000E+00  0.45350564230E+02  0.45350564230E+02  0.00000000000E+00 0.  1.
          2   -1    0    0  501    0  0.00000000000E+00 -0.00000000000E+00 -0.23545268492E+04  0.23545268492E+04  0.00000000000E+00 0. -1.
         23    2    1    2    0    0 -0.14224444117E+03 -0.17423841791E+03 -0.36540328296E+03  0.43914512346E+03  0.93468566587E+02 0.  0.
          5    1    1    2  502    0 -0.16201567526E+02  0.41689106812E+02 -0.21492910416E+03  0.21958388427E+03  0.47000000000E+01 0. -1.
         -5    1    1    2    0  502  0.15844600870E+03  0.13254931109E+03 -0.17288438978E+04  0.17411484057E+04  0.47000000000E+01 0. -1.
        -11    1    3    3    0    0 -0.10252251882E+03 -0.14522899490E+03 -0.20486972922E+03  0.27124515439E+03  0.00000000000E+00 0.  1.
         11    1    3    3    0    0 -0.39721922348E+02 -0.29009423001E+02 -0.16053355374E+03  0.16789996907E+03  0.00000000000E+00 0. -1.
<mgrwt>
<rscale>  0 0.25381856E+03</rscale>
<asrwt>0</asrwt>
<pdfrwt beam="2">  1        2 0.36223501E+00 0.25732786E+03</pdfrwt>
<pdfrwt beam="1">  1       -2 0.69770078E-02 0.25732786E+03</pdfrwt>
<totfact> 0.56554944E+02</totfact>
</mgrwt>
</event>
<event>
 7    1  0.1422977E-005  0.1561529E+03  0.7546771E-02  0.1201343E+00
          1   -1    0    0  501    0  0.00000000000E+00  0.00000000000E+00  0.81778205686E+03  0.81778205686E+03  0.00000000000E+00 0. -1.
         -1   -1    0    0    0  501 -0.00000000000E+00 -0.00000000000E+00 -0.29258323944E+02  0.29258323944E+02  0.00000000000E+00 0.  1.
         23    2    1    2    0    0 -0.33114434079E+02 -0.87532011146E+02  0.20512052971E+03  0.24310079181E+03  0.90912840424E+02 0.  0.
          5    1    1    2  502    0 -0.46710856000E+02  0.28625115843E+02  0.25428992122E+03  0.26016678373E+03  0.47000000000E+01 0. -1.
         -5    1    1    2    0  502  0.79825290079E+02  0.58906895302E+02  0.32911328200E+03  0.34377280526E+03  0.47000000000E+01 0. -1.
        -11    1    3    3    0    0  0.50861246370E+01 -0.27462621279E+02  0.15130470770E+03  0.15386090732E+03  0.00000000000E+00 0. -1.
         11    1    3    3    0    0 -0.38200558716E+02 -0.60069389867E+02  0.53815822009E+02  0.89239884490E+02  0.00000000000E+00 0.  1.
<mgrwt>
<rscale>  0 0.14929452E+03</rscale>
<asrwt>0</asrwt>
<pdfrwt beam="1">  1        1 0.12581261E+00 0.15615290E+03</pdfrwt>
<pdfrwt beam="2">  1       -1 0.45012812E-02 0.15615290E+03</pdfrwt>
<totfact> 0.44949759E+03</totfact>
</mgrwt>
</event>
<event>
 6    1  0.1422977E-005  0.1581039E+03  0.7546771E-02  0.1230060E+00
         -2   -1    0    0    0  501 -0.00000000000E+00  0.00000000000E+00  0.19033276033E+02  0.19033276033E+02  0.00000000000E+00 0.  1.
          2   -1    0    0  501    0  0.00000000000E+00 -0.00000000000E+00 -0.74959986928E+03  0.74959986928E+03  0.00000000000E+00 0. -1.
          5    1    1    2  502    0  0.27903258547E+02  0.11236195066E+01 -0.14509952974E+02  0.31819539494E+02  0.47000000000E+01 0. -1.
         -5    1    1    2    0  502  0.73207502902E+00 -0.58616780767E+02 -0.59364285107E+03  0.59654873024E+03  0.47000000000E+01 0.  1.
        -11    1    1    2    0    0 -0.17746424738E+02  0.35722882993E+02 -0.97921188816E+02  0.10573371827E+03  0.00000000000E+00 0. -1.
         11    1    1    2    0    0 -0.10888908838E+02  0.21770278267E+02 -0.24492600390E+02  0.34531157313E+02  0.00000000000E+00 0.  1.
<mgrwt>
<rscale>  0 0.12826057E+03</rscale>
<asrwt>0</asrwt>
<pdfrwt beam="2">  1        2 0.11532303E+00 0.15810392E+03</pdfrwt>
<pdfrwt beam="1">  1       -2 0.29281969E-02 0.15810392E+03</pdfrwt>
<totfact> 0.16268727E+04</totfact>
</mgrwt>
</event>
<event>
 7    1  0.1422977E-005  0.1553037E+03  0.7546771E-02  0.1204435E+00
          1   -1    0    0  501    0  0.00000000000E+00  0.00000000000E+00  0.76095057000E+03  0.76095057000E+03  0.00000000000E+00 0. -1.
         -1   -1    0    0    0  501 -0.00000000000E+00 -0.00000000000E+00 -0.38340277744E+02  0.38340277744E+02  0.00000000000E+00 0.  1.
         23    2    1    2    0    0 -0.39702735436E+02  0.83204572433E+02  0.10521596446E+03  0.16266301146E+03  0.83003301416E+02 0.  0.
          5    1    1    2  502    0 -0.38211388760E+02 -0.86869458140E+01  0.26967541620E+03  0.27254814870E+03  0.47000000000E+01 0. -1.
         -5    1    1    2    0  502  0.77914124196E+02 -0.74517626619E+02  0.34771891159E+03  0.36407968758E+03  0.47000000000E+01 0. -1.
        -11    1    3    3    0    0  0.79683281297E+01  0.57038037073E+02  0.18841699625E+02  0.60595722383E+02  0.00000000000E+00 0.  1.
         11    1    3    3    0    0 -0.47671063566E+02  0.26166535360E+02  0.86374264836E+02  0.10206728908E+03  0.00000000000E+00 0. -1.
<mgrwt>
<rscale>  0 0.14682067E+03</rscale>
<asrwt>0</asrwt>
<pdfrwt beam="1">  1        1 0.11706931E+00 0.15530372E+03</pdfrwt>
<pdfrwt beam="2">  1       -1 0.58985048E-02 0.15530372E+03</pdfrwt>
<totfact> 0.33516312E+03</totfact>
</mgrwt>
</event>
<event>
 7    1  0.1422977E-005  0.1264723E+03  0.7546771E-02  0.1238766E+00
         -2   -1    0    0    0  501 -0.00000000000E+00  0.00000000000E+00  0.73651156740E+02  0.73651156740E+02  0.00000000000E+00 0. -1.
          2   -1    0    0  501    0  0.00000000000E+00 -0.00000000000E+00 -0.20579882629E+03  0.20579882629E+03  0.00000000000E+00 0.  1.
         23    2    1    2    0    0  0.46896468451E+01  0.18654616724E+02 -0.27363452730E+02  0.11520940475E+03  0.11024727155E+03 0.  0.
          5    1    1    2  502    0  0.46582890363E+02  0.48668514513E+01 -0.22578711699E+01  0.47125788055E+02  0.47000000000E+01 0.  1.
         -5    1    1    2    0  502 -0.51272537208E+02 -0.23521468175E+02 -0.10252634565E+03  0.11711479022E+03  0.47000000000E+01 0.  1.
        -11    1    3    3    0    0 -0.60770670609E+01  0.63322140038E+02 -0.41936233687E+01  0.63751161872E+02  0.00000000000E+00 0. -1.
         11    1    3    3    0    0  0.10766713906E+02 -0.44667523314E+02 -0.23169829361E+02  0.51458242877E+02  0.00000000000E+00 0.  1.
<mgrwt>
<rscale>  0 0.12266377E+03</rscale>
<asrwt>0</asrwt>
<pdfrwt beam="2">  1        2 0.31661357E-01 0.12647227E+03</pdfrwt>
<pdfrwt beam="1">  1       -2 0.11330948E-01 0.12647227E+03</pdfrwt>
<totfact> 0.84379434E+03</totfact>
</mgrwt>
</event>
<event>
 7    1  0.1422977E-005  0.1432862E+03  0.7546771E-02  0.1220853E+00
         -2   -1    0    0    0  501 -0.00000000000E+00  0.00000000000E+00  0.26105864131E+02  0.26105864131E+02  0.00000000000E+00 0.  1.
          2   -1    0    0  501    0  0.00000000000E+00 -0.00000000000E+00 -0.72819330550E+03  0.72819330550E+03  0.00000000000E+00 0. -1.
         23    2    1    2    0    0  0.53787083371E+02 -0.44879063199E+02 -0.17001542440E+03  0.20327143516E+03  0.86642086584E+02 0.  0.
          5    1    1    2  502    0  0.14721688695E+01  0.70505029696E+02 -0.17442263955E+03  0.18819796407E+03  0.47000000000E+01 0.  1.
         -5    1    1    2    0  502 -0.55259252240E+02 -0.25625966496E+02 -0.35764937743E+03  0.36282977040E+03  0.47000000000E+01 0.  1.
        -11    1    3    3    0    0  0.24950971581E+02  0.60840648608E+01 -0.12960580294E+03  0.13212581497E+03  0.00000000000E+00 0.  1.
         11    1    3    3    0    0  0.28836111790E+02 -0.50963128060E+02 -0.40409621461E+02  0.71145620185E+02  0.00000000000E+00 0. -1.
<mgrwt>
<rscale>  0 0.13455268E+03</rscale>
<asrwt>0</asrwt>
<pdfrwt beam="2">  1        2 0.11202971E+00 0.14328619E+03</pdfrwt>
<pdfrwt beam="1">  1       -2 0.40162878E-02 0.14328619E+03</pdfrwt>
<totfact> 0.10484653E+04</totfact>
</mgrwt>
</event>
<event>
 7    1  0.1422977E-005  0.1806270E+03  0.7546771E-02  0.1173305E+00
         -2   -1    0    0    0  501 -0.00000000000E+00  0.00000000000E+00  0.17303968143E+02  0.17303968143E+02  0.00000000000E+00 0.  1.
          2   -1    0    0  501    0  0.00000000000E+00 -0.00000000000E+00 -0.17379872039E+04  0.17379872039E+04  0.00000000000E+00 0. -1.
         23    2    1    2    0    0  0.10191705032E+03  0.81328540419E+02 -0.60394624500E+03  0.62404071264E+03  0.87603239381E+02 0.  0.
          5    1    1    2  502    0  0.16198557817E+02 -0.47331100169E+02 -0.48912194188E+03  0.49169603451E+03  0.47000000000E+01 0. -1.
         -5    1    1    2    0  502 -0.11811560814E+03 -0.33997440250E+02 -0.62761504891E+03  0.63955442493E+03  0.47000000000E+01 0. -1.
        -11    1    3    3    0    0 -0.81714258463E+01  0.20917371202E+02 -0.36413887828E+02  0.42781770009E+02  0.00000000000E+00 0.  1.
         11    1    3    3    0    0  0.11008847617E+03  0.60411169216E+02 -0.56753235718E+03  0.58125894263E+03  0.00000000000E+00 0. -1.
<mgrwt>
<rscale>  0 0.17442981E+03</rscale>
<asrwt>0</asrwt>
<pdfrwt beam="2">  1        2 0.26738276E+00 0.18062695E+03</pdfrwt>
<pdfrwt beam="1">  1       -2 0.26621478E-02 0.18062695E+03</pdfrwt>
<totfact> 0.51345695E+03</totfact>
</mgrwt>
</event>
<event>
 7    1  0.1422977E-005  0.1624772E+03  0.7546771E-02  0.1197134E+00
          2   -1    0    0  501    0  0.00000000000E+00  0.00000000000E+00  0.12286209234E+04  0.12286209234E+04  0.00000000000E+00 0. -1.
         -2   -1    0    0    0  501 -0.00000000000E+00 -0.00000000000E+00 -0.25897549318E+02  0.25897549318E+02  0.00000000000E+00 0.  1.
         23    2    1    2    0    0 -0.98281355692E+02  0.33360445084E+02  0.18778400920E+03  0.22665624831E+03  0.73062142122E+02 0.  0.
          5    1    1    2  502    0  0.28703159773E+01 -0.23118081068E+02  0.30114393479E+02  0.38362104748E+02  0.47000000000E+01 0.  1.
         -5    1    1    2    0  502  0.95411039714E+02 -0.10242364016E+02  0.98482497144E+03  0.98950011970E+03  0.47000000000E+01 0.  1.
        -11    1    3    3    0    0 -0.85777619884E+02  0.83763437750E+01  0.17670257761E+03  0.19660051918E+03  0.00000000000E+00 0.  1.
         11    1    3    3    0    0 -0.12503735808E+02  0.24984101309E+02  0.11081431599E+02  0.30055729131E+02  0.00000000000E+00 0. -1.
<mgrwt>
<rscale>  0 0.15275027E+03</rscale>
<asrwt>0</asrwt>
<pdfrwt beam="1">  1        2 0.18901856E+00 0.16247719E+03</pdfrwt>
<pdfrwt beam="2">  1       -2 0.39842393E-02 0.16247719E+03</pdfrwt>
<totfact> 0.52459290E+03</totfact>
</mgrwt>
</event>
<event>
 7    1  0.1422977E-005  0.1498139E+03  0.7546771E-02  0.1210285E+00
         -2   -1    0    0    0  501 -0.00000000000E+00  0.00000000000E+00  0.21097913097E+02  0.21097913097E+02  0.00000000000E+00 0.  1.
          2   -1    0    0  501    0  0.00000000000E+00 -0.00000000000E+00 -0.89465147698E+03  0.89465147698E+03  0.00000000000E+00 0. -1.
         23    2    1    2    0    0 -0.31879750863E+02 -0.76167128956E+02 -0.32509159712E+03  0.34719444392E+03  0.89675444342E+02 0.  0.
          5    1    1    2  502    0  0.75636827247E+02  0.71429671169E+02 -0.41847678893E+03  0.43124011923E+03  0.47000000000E+01 0. -1.
         -5    1    1    2    0  502 -0.43757076383E+02  0.47374577877E+01 -0.12998517783E+03  0.13731482693E+03  0.47000000000E+01 0. -1.
        -11    1    3    3    0    0  0.35878753361E+01 -0.82685912535E+02 -0.18746717791E+03  0.20492382920E+03  0.00000000000E+00 0.  1.
         11    1    3    3    0    0 -0.35467626199E+02  0.65187835783E+01 -0.13762441922E+03  0.14227061472E+03  0.00000000000E+00 0. -1.
<mgrwt>
<rscale>  0 0.14228670E+03</rscale>
<asrwt>0</asrwt>
<pdfrwt beam="2">  1        2 0.13763869E+00 0.14981388E+03</pdfrwt>
<pdfrwt beam="1">  1       -2 0.32458328E-02 0.14981388E+03</pdfrwt>
<totfact> 0.11137588E+04</totfact>
</mgrwt>
</event>
<event>
 7    1  0.1422977E-005  0.1400715E+03  0.7546771E-02  0.1224766E+00
          2   -1    0    0  501    0  0.00000000000E+00  0.00000000000E+00  0.80840240052E+02  0.80840240052E+02  0.00000000000E+00 0. -1.
         -2   -1    0    0    0  501 -0.00000000000E+00 -0.00000000000E+00 -0.19387220569E+03  0.19387220569E+03  0.00000000000E+00 0.  1.
         23    2    1    2    0    0 -0.63064058540E+02 -0.44861067189E+01 -0.57514313663E+02  0.12403983481E+03  0.89893179450E+02 0.  0.
          5    1    1    2  502    0  0.10039340216E+03  0.11685047746E+02 -0.46310821978E+02  0.11127514444E+03  0.47000000000E+01 0. -1.
         -5    1    1    2    0  502 -0.37329343619E+02 -0.71989410270E+01 -0.92068299955E+01  0.39397466486E+02  0.47000000000E+01 0. -1.
        -11    1    3    3    0    0 -0.83311814983E+01 -0.42423505518E+02 -0.20473627278E+02  0.47836511364E+02  0.00000000000E+00 0.  1.
         11    1    3    3    0    0 -0.54732877042E+02  0.37937398799E+02 -0.37040686385E+02  0.76203323449E+02  0.00000000000E+00 0. -1.
<mgrwt>
<rscale>  0 0.13182921E+03</rscale>
<asrwt>0</asrwt>
<pdfrwt beam="1">  1        2 0.12436960E-01 0.14007150E+03</pdfrwt>
<pdfrwt beam="2">  1       -2 0.29826493E-01 0.14007150E+03</pdfrwt>
<totfact> 0.48245056E+03</totfact>
</mgrwt>
</event>
<event>
 7    1  0.1422977E-005  0.3160873E+03  0.7546771E-02  0.1078847E+00
          2   -1    0    0  501    0  0.00000000000E+00  0.00000000000E+00  0.99209215189E+03  0.99209215189E+03  0.00000000000E+00 0. -1.
         -2   -1    0    0    0  501 -0.00000000000E+00 -0.00000000000E+00 -0.97097207200E+02  0.97097207200E+02  0.00000000000E+00 0.  1.
         23    2    1    2    0    0  0.35741691791E+02  0.28811372141E+03  0.45146161821E+03  0.54454913490E+03  0.91810580051E+02 0.  0.
          5    1    1    2  502    0 -0.58826168294E+02 -0.11744066917E+03  0.11944203871E+03  0.17759875974E+03  0.47000000000E+01 0.  1.
         -5    1    1    2    0  502  0.23084476502E+02 -0.17067305224E+03  0.32409128777E+03  0.36704146444E+03  0.47000000000E+01 0.  1.
        -11    1    3    3    0    0  0.27864254161E+02  0.12191512559E+03  0.27453140339E+03  0.30167400610E+03  0.00000000000E+00 0. -1.
         11    1    3    3    0    0  0.78774376299E+01  0.16619859582E+03  0.17693021482E+03  0.24287512880E+03  0.00000000000E+00 0.  1.
<mgrwt>
<rscale>  0 0.31314803E+03</rscale>
<asrwt>0</asrwt>
<pdfrwt beam="1">  1        2 0.15262955E+00 0.31608727E+03</pdfrwt>
<pdfrwt beam="2">  1       -2 0.14938033E-01 0.31608727E+03</pdfrwt>
<totfact> 0.91561813E+02</totfact>
</mgrwt>
</event>
<event>
 7    1  0.1422977E-005  0.2513382E+03  0.7546771E-02  0.1138717E+00
         -2   -1    0    0    0  501 -0.00000000000E+00  0.00000000000E+00  0.35125794867E+02  0.35125794867E+02  0.00000000000E+00 0.  1.
          2   -1    0    0  501    0  0.00000000000E+00 -0.00000000000E+00 -0.10416859557E+04  0.10416859557E+04  0.00000000000E+00 0. -1.
         23    2    1    2    0    0  0.62429497745E+02 -0.71627853245E+02 -0.35170276898E+03  0.37537814265E+03  0.90476078156E+02 0.  0.
          5    1    1    2  502    0  0.60864381078E+02  0.10649545057E+03 -0.30126193712E+03  0.32531000390E+03  0.47000000000E+01 0. -1.
         -5    1    1    2    0  502 -0.12329387882E+03 -0.34867597326E+02 -0.35359545473E+03  0.37612360402E+03  0.47000000000E+01 0.  1.
        -11    1    3    3    0    0  0.31767785271E+02 -0.86236817122E+02 -0.29788319551E+03  0.31173767654E+03  0.00000000000E+00 0. -1.
         11    1    3    3    0    0  0.30661712473E+02  0.14608963877E+02 -0.53819573468E+02  0.63640466102E+02  0.00000000000E+00 0.  1.
<mgrwt>
<rscale>  0 0.21363817E+03</rscale>
<asrwt>0</asrwt>
<pdfrwt beam="2">  1        2 0.16025937E+00 0.25133822E+03</pdfrwt>
<pdfrwt beam="1">  1       -2 0.54039686E-02 0.25133822E+03</pdfrwt>
<totfact> 0.42885195E+03</totfact>
</mgrwt>
</event>
<event>
 7    1  0.1422977E-005  0.1335648E+03  0.7546771E-02  0.1239994E+00
         -2   -1    0    0    0  501 -0.00000000000E+00  0.00000000000E+00  0.65756630241E+02  0.65756630241E+02  0.00000000000E+00 0.  1.
          2   -1    0    0  501    0  0.00000000000E+00 -0.00000000000E+00 -0.22176774229E+03  0.22176774229E+03  0.00000000000E+00 0. -1.
         23    2    1    2    0    0  0.84570124300E+01  0.46290941158E+02 -0.16034553332E+02  0.94048326256E+02  0.79834882592E+02 0.  0.
          5    1    1    2  502    0 -0.38080083478E+02  0.30317990499E+02 -0.70463853671E+02  0.85770146203E+02  0.47000000000E+01 0.  1.
         -5    1    1    2    0  502  0.29623071048E+02 -0.76608931657E+02 -0.69512705048E+02  0.10770590008E+03  0.47000000000E+01 0.  1.
        -11    1    3    3    0    0  0.28760668815E+02  0.22861304306E+02 -0.40406724394E+02  0.54612440721E+02  0.00000000000E+00 0. -1.
         11    1    3    3    0    0 -0.20303656385E+02  0.23429636852E+02  0.24372171062E+02  0.39435885535E+02  0.00000000000E+00 0.  1.
<mgrwt>
<rscale>  0 0.12190044E+03</rscale>
<asrwt>0</asrwt>
<pdfrwt beam="2">  1        2 0.34118115E-01 0.13356475E+03</pdfrwt>
<pdfrwt beam="1">  1       -2 0.10116405E-01 0.13356475E+03</pdfrwt>
<totfact> 0.93524437E+03</totfact>
</mgrwt>
</event>
<event>
 7    1  0.1422977E-005  0.1689270E+03  0.7546771E-02  0.1185724E+00
         -1   -1    0    0    0  501 -0.00000000000E+00  0.00000000000E+00  0.73555476817E+02  0.73555476817E+02  0.00000000000E+00 0.  1.
          1   -1    0    0  501    0  0.00000000000E+00 -0.00000000000E+00 -0.36329939543E+03  0.36329939543E+03  0.00000000000E+00 0. -1.
         23    2    1    2    0    0 -0.48737456588E+02 -0.10262594444E+03 -0.74443087348E+02  0.16319306692E+03  0.90458718152E+02 0.  0.
          5    1    1    2  502    0  0.27133525105E+01  0.10665375473E+03 -0.88738701427E+02  0.13884895683E+03  0.47000000000E+01 0. -1.
         -5    1    1    2    0  502  0.46024104077E+02 -0.40278102950E+01 -0.12656212984E+03  0.13481284850E+03  0.47000000000E+01 0. -1.
        -11    1    3    3    0    0 -0.61097332290E+02 -0.62236661420E+02 -0.82660985231E+02  0.12016290824E+03  0.00000000000E+00 0. -1.
         11    1    3    3    0    0  0.12359875702E+02 -0.40389283019E+02  0.82178978833E+01  0.43030158678E+02  0.00000000000E+00 0.  1.
<mgrwt>
<rscale>  0 0.16266137E+03</rscale>
<asrwt>0</asrwt>
<pdfrwt beam="2">  1        1 0.55892215E-01 0.16892701E+03</pdfrwt>
<pdfrwt beam="1">  1       -1 0.11316227E-01 0.16892701E+03</pdfrwt>
<totfact> 0.33701446E+03</totfact>
</mgrwt>
</event>
<event>
 7    1  0.1422977E-005  0.1473643E+03  0.7546771E-02  0.1214404E+00
         -1   -1    0    0    0  501 -0.00000000000E+00  0.00000000000E+00  0.14528230708E+03  0.14528230708E+03  0.00000000000E+00 0.  1.
          1   -1    0    0  501    0  0.00000000000E+00 -0.00000000000E+00 -0.12681071291E+03  0.12681071291E+03  0.00000000000E+00 0. -1.
         23    2    1    2    0    0  0.77408518965E+02 -0.99185007991E+01  0.38235884766E+02  0.12340927470E+03  0.87620835030E+02 0.  0.
          5    1    1    2  502    0 -0.71846360108E+02 -0.43421801695E+02 -0.37415057872E+02  0.92028956741E+02  0.47000000000E+01 0.  1.
         -5    1    1    2    0  502 -0.55621588571E+01  0.53340302494E+02  0.17650767276E+02  0.56654788559E+02  0.47000000000E+01 0.  1.
        -11    1    3    3    0    0  0.27320630829E+02 -0.32785843979E+02 -0.16514248295E+02  0.45760778304E+02  0.00000000000E+00 0.  1.
         11    1    3    3    0    0  0.50087888137E+02  0.22867343179E+02  0.54750133062E+02  0.77648496395E+02  0.00000000000E+00 0. -1.
<mgrwt>
<rscale>  0 0.13920425E+03</rscale>
<asrwt>0</asrwt>
<pdfrwt beam="2">  1        1 0.19509340E-01 0.14736427E+03</pdfrwt>
<pdfrwt beam="1">  1       -1 0.22351124E-01 0.14736427E+03</pdfrwt>
<totfact> 0.42629207E+03</totfact>
</mgrwt>
</event>
<event>
 7    1  0.1422977E-005  0.1455538E+03  0.7546771E-02  0.1218321E+00
          1   -1    0    0  501    0  0.00000000000E+00  0.00000000000E+00  0.89686614624E+02  0.89686614624E+02  0.00000000000E+00 0. -1.
         -1   -1    0    0    0  501 -0.00000000000E+00 -0.00000000000E+00 -0.19350149412E+03  0.19350149412E+03  0.00000000000E+00 0.  1.
         23    2    1    2    0    0 -0.66101337718E+02  0.34530695276E+02 -0.74819388255E+02  0.13477429190E+03  0.83692372012E+02 0.  0.
          5    1    1    2  502    0 -0.83543047951E+01 -0.86555709264E+01 -0.61632571526E+02  0.62971240972E+02  0.47000000000E+01 0. -1.
         -5    1    1    2    0  502  0.74455642513E+02 -0.25875124350E+02  0.32637080287E+02  0.85442575873E+02  0.47000000000E+01 0. -1.
        -11    1    3    3    0    0 -0.15007149010E+02  0.18611494019E+02  0.16415832266E+02  0.29001409966E+02  0.00000000000E+00 0. -1.
         11    1    3    3    0    0 -0.51094188708E+02  0.15919201258E+02 -0.91235220521E+02  0.10577288193E+03  0.00000000000E+00 0.  1.
<mgrwt>
<rscale>  0 0.13635408E+03</rscale>
<asrwt>0</asrwt>
<pdfrwt beam="1">  1        1 0.13797941E-01 0.14555385E+03</pdfrwt>
<pdfrwt beam="2">  1       -1 0.29769460E-01 0.14555385E+03</pdfrwt>
<totfact> 0.41472417E+03</totfact>
</mgrwt>
</event>
<event>
 7    1  0.1422977E-005  0.1259470E+03  0.7546771E-02  0.1248282E+00
          1   -1    0    0  501    0  0.00000000000E+00  0.00000000000E+00  0.96611353144E+03  0.96611353144E+03  0.00000000000E+00 0. -1.
         -1   -1    0    0    0  501 -0.00000000000E+00 -0.00000000000E+00 -0.13543811660E+02  0.13543811660E+02  0.00000000000E+00 0.  1.
         23    2    1    2    0    0  0.58640807874E+01 -0.14276016294E+02  0.27450390263E+03  0.28999373404E+03  0.92226791875E+02 0.  0.
          5    1    1    2  502    0  0.51333626064E+02  0.36069350420E+02  0.28756489720E+03  0.29436677684E+03  0.47000000000E+01 0.  1.
         -5    1    1    2    0  502 -0.57197706852E+02 -0.21793334126E+02  0.39050091995E+03  0.39529683222E+03  0.47000000000E+01 0.  1.
        -11    1    3    3    0    0  0.84518209167E+01 -0.45333151202E+02  0.23597456803E+03  0.24043819295E+03  0.00000000000E+00 0.  1.
         11    1    3    3    0    0 -0.25877401293E+01  0.31057134908E+02  0.38529334603E+02  0.49555541089E+02  0.00000000000E+00 0. -1.
<mgrwt>
<rscale>  0 0.11691074E+03</rscale>
<asrwt>0</asrwt>
<pdfrwt beam="1">  1        1 0.14863280E+00 0.12594698E+03</pdfrwt>
<pdfrwt beam="2">  1       -1 0.20836641E-02 0.12594698E+03</pdfrwt>
<totfact> 0.10501174E+04</totfact>
</mgrwt>
</event>
<event>
 7    1  0.1422977E-005  0.2410806E+03  0.7546771E-02  0.1121948E+00
          1   -1    0    0  501    0  0.00000000000E+00  0.00000000000E+00  0.10449608405E+04  0.10449608405E+04  0.00000000000E+00 0. -1.
         -1   -1    0    0    0  501 -0.00000000000E+00 -0.00000000000E+00 -0.63249553405E+02  0.63249553405E+02  0.00000000000E+00 0.  1.
         23    2    1    2    0    0 -0.11410926393E+03  0.17166135357E+03  0.24113810484E+03  0.32938530783E+03  0.88648468621E+02 0.  0.
          5    1    1    2  502    0  0.21951640338E+02  0.17601890459E+02  0.60241803745E+02  0.66654827130E+02  0.47000000000E+01 0. -1.
         -5    1    1    2    0  502  0.92157623590E+02 -0.18926324403E+03  0.68033137847E+03  0.71217025890E+03  0.47000000000E+01 0. -1.
        -11    1    3    3    0    0 -0.84513472717E+02  0.14718356909E+03  0.23591889333E+03  0.29062562570E+03  0.00000000000E+00 0. -1.
         11    1    3    3    0    0 -0.29595791211E+02  0.24477784480E+02  0.52192115017E+01  0.38759682135E+02  0.00000000000E+00 0.  1.
<mgrwt>
<rscale>  0 0.23679284E+03</rscale>
<asrwt>0</asrwt>
<pdfrwt beam="1">  1        1 0.16076319E+00 0.24108064E+03</pdfrwt>
<pdfrwt beam="2">  1       -1 0.97307013E-02 0.24108064E+03</pdfrwt>
<totfact> 0.94424011E+02</totfact>
</mgrwt>
</event>
<event>
 7    1  0.1422977E-005  0.1387180E+03  0.7546771E-02  0.1233990E+00
          2   -1    0    0  501    0  0.00000000000E+00  0.00000000000E+00  0.10012905243E+04  0.10012905243E+04  0.00000000000E+00 0. -1.
         -2   -1    0    0    0  501 -0.00000000000E+00 -0.00000000000E+00 -0.26414977653E+02  0.26414977653E+02  0.00000000000E+00 0.  1.
         23    2    1    2    0    0  0.10308510902E+02 -0.20126929952E+00  0.82764736462E+02  0.12487418573E+03  0.92936832059E+02 0.  0.
          5    1    1    2  502    0 -0.43142879038E+01  0.41387915980E+01  0.89401534818E+03  0.89404769193E+03  0.47000000000E+01 0. -1.
         -5    1    1    2    0  502 -0.59942229980E+01 -0.39375222985E+01 -0.19045379706E+01  0.87836243136E+01  0.47000000000E+01 0.  1.
        -11    1    3    3    0    0  0.27526220268E+02 -0.18417562080E+02 -0.50948352622E+01  0.33509054621E+02  0.00000000000E+00 0.  1.
         11    1    3    3    0    0 -0.17217709367E+02  0.18216292781E+02  0.87859571725E+02  0.91365131107E+02  0.00000000000E+00 0. -1.
<mgrwt>
<rscale>  0 0.12569288E+03</rscale>
<asrwt>0</asrwt>
<pdfrwt beam="1">  1        2 0.15404467E+00 0.13871802E+03</pdfrwt>
<pdfrwt beam="2">  1       -2 0.40638435E-02 0.13871802E+03</pdfrwt>
<totfact> 0.68348347E+03</totfact>
</mgrwt>
</event>
<event>
 7    1  0.1422977E-005  0.1576661E+03  0.7546771E-02  0.1199315E+00
          2   -1    0    0  501    0  0.00000000000E+00  0.00000000000E+00  0.26632383138E+04  0.26632383138E+04  0.00000000000E+00 0. -1.
         -2   -1    0    0    0  501 -0.00000000000E+00 -0.00000000000E+00 -0.11122702753E+02  0.11122702753E+02  0.00000000000E+00 0.  1.
         23    2    1    2    0    0 -0.52801319193E+02 -0.80285548413E+02  0.52649291026E+03  0.54289896610E+03  0.91163338283E+02 0.  0.
          5    1    1    2  502    0  0.56243345691E+02  0.52497466295E+02  0.52892791037E+03  0.53451484757E+03  0.47000000000E+01 0.  1.
         -5    1    1    2    0  502 -0.34420264976E+01  0.27788082117E+02  0.15966947904E+04  0.15969472028E+04  0.47000000000E+01 0.  1.
        -11    1    3    3    0    0 -0.78341466157E+02 -0.60124730623E+02  0.42477576764E+03  0.43610414046E+03  0.00000000000E+00 0. -1.
         11    1    3    3    0    0  0.25540146964E+02 -0.20160817790E+02  0.10171714262E+03  0.10679482564E+03  0.00000000000E+00 0.  1.
<mgrwt>
<rscale>  0 0.15094594E+03</rscale>
<asrwt>0</asrwt>
<pdfrwt beam="1">  1        2 0.40972847E+00 0.15766612E+03</pdfrwt>
<pdfrwt beam="2">  1       -2 0.17111872E-02 0.15766612E+03</pdfrwt>
<totfact> 0.31939105E+03</totfact>
</mgrwt>
</event>
<event>
 7    1  0.1422977E-005  0.1306705E+03  0.7546771E-02  0.1240660E+00
          1   -1    0    0  501    0  0.00000000000E+00  0.00000000000E+00  0.50575685519E+03  0.50575685519E+03  0.00000000000E+00 0. -1.
         -1   -1    0    0    0  501 -0.00000000000E+00 -0.00000000000E+00 -0.31830811013E+02  0.31830811013E+02  0.00000000000E+00 0.  1.
         23    2    1    2    0    0 -0.31497380332E+02 -0.21328203212E+02  0.92876914306E+02  0.13475617235E+03  0.89922897836E+02 0.  0.
          5    1    1    2  502    0 -0.50107064860E+01  0.53776682977E+02  0.31973979462E+03  0.32430335348E+03  0.47000000000E+01 0.  1.
         -5    1    1    2    0  502  0.36508086818E+02 -0.32448479765E+02  0.61309335249E+02  0.78528140375E+02  0.47000000000E+01 0.  1.
        -11    1    3    3    0    0 -0.15160516552E+02 -0.54586244934E+02  0.36843062373E+02  0.67578921589E+02  0.00000000000E+00 0.  1.
         11    1    3    3    0    0 -0.16336863780E+02  0.33258041722E+02  0.56033851933E+02  0.67177250761E+02  0.00000000000E+00 0. -1.
<mgrwt>
<rscale>  0 0.12148912E+03</rscale>
<asrwt>0</asrwt>
<pdfrwt beam="1">  1        1 0.77808741E-01 0.13067048E+03</pdfrwt>
<pdfrwt beam="2">  1       -1 0.48970482E-02 0.13067048E+03</pdfrwt>
<totfact> 0.77074640E+03</totfact>
</mgrwt>
</event>
<event>
 7    1  0.1422977E-005  0.1295691E+03  0.7546771E-02  0.1247316E+00
          3   -1    0    0  501    0  0.00000000000E+00  0.00000000000E+00  0.41824634264E+03  0.41824634264E+03  0.00000000000E+00 0. -1.
         -3   -1    0    0    0  501 -0.00000000000E+00 -0.00000000000E+00 -0.28194843517E+02  0.28194843517E+02  0.00000000000E+00 0.  1.
         23    2    1    2    0    0 -0.21458063710E+02 -0.26551675725E+02  0.15250903011E+03  0.17585926221E+03  0.80635202342E+02 0.  0.
          5    1    1    2  502    0  0.14015500335E+01  0.75511772682E+02  0.12471546292E+03  0.14587675911E+03  0.47000000000E+01 0. -1.
         -5    1    1    2    0  502  0.20056513677E+02 -0.48960096957E+02  0.11282700608E+03  0.12470516484E+03  0.47000000000E+01 0. -1.
        -11    1    3    3    0    0 -0.44552923987E+01  0.26147114110E+02  0.82136224860E+02  0.86312691077E+02  0.00000000000E+00 0. -1.
         11    1    3    3    0    0 -0.17002771311E+02 -0.52698789836E+02  0.70372805253E+02  0.89546571133E+02  0.00000000000E+00 0.  1.
<mgrwt>
<rscale>  0 0.11747830E+03</rscale>
<asrwt>0</asrwt>
<pdfrwt beam="1">  1        3 0.64345587E-01 0.12956911E+03</pdfrwt>
<pdfrwt beam="2">  1       -3 0.43376685E-02 0.12956911E+03</pdfrwt>
<totfact> 0.15512015E+03</totfact>
</mgrwt>
</event>
<event>
 7    1  0.1422977E-005  0.1592498E+03  0.7546771E-02  0.1197058E+00
          1   -1    0    0  501    0  0.00000000000E+00  0.00000000000E+00  0.36440845156E+03  0.36440845156E+03  0.00000000000E+00 0. -1.
         -1   -1    0    0    0  501 -0.00000000000E+00 -0.00000000000E+00 -0.63685635169E+02  0.63685635169E+02  0.00000000000E+00 0.  1.
         23    2    1    2    0    0  0.85142356066E+02  0.49858187096E+02  0.83521138505E+02  0.15876699624E+03  0.92174393962E+02 0.  0.
          5    1    1    2  502    0  0.72975903758E+01 -0.65284945644E+01 -0.13307968114E+02  0.17177545864E+02  0.47000000000E+01 0. -1.
         -5    1    1    2    0  502 -0.92439946441E+02 -0.43329692532E+02  0.23050964600E+03  0.25214954462E+03  0.47000000000E+01 0. -1.
        -11    1    3    3    0    0  0.40941113975E+02 -0.25007713106E+02  0.26682239783E+02  0.54895377293E+02  0.00000000000E+00 0. -1.
         11    1    3    3    0    0  0.44201242090E+02  0.74865900203E+02  0.56838898722E+02  0.10387161895E+03  0.00000000000E+00 0.  1.
<mgrwt>
<rscale>  0 0.15281328E+03</rscale>
<asrwt>0</asrwt>
<pdfrwt beam="1">  1        1 0.56062837E-01 0.15924984E+03</pdfrwt>
<pdfrwt beam="2">  1       -1 0.97977903E-02 0.15924984E+03</pdfrwt>
<totfact> 0.41793374E+03</totfact>
</mgrwt>
</event>
<event>
 7    1  0.1422977E-005  0.1347296E+03  0.7546771E-02  0.1232521E+00
         -1   -1    0    0    0  501 -0.00000000000E+00  0.00000000000E+00  0.18489076066E+02  0.18489076066E+02  0.00000000000E+00 0.  1.
          1   -1    0    0  501    0  0.00000000000E+00 -0.00000000000E+00 -0.83931400182E+03  0.83931400182E+03  0.00000000000E+00 0. -1.
         23    2    1    2    0    0  0.25906616317E+02 -0.43067038049E+02 -0.24871750396E+03  0.27004549233E+03  0.92402643989E+02 0.  0.
          5    1    1    2  502    0  0.24330327489E+02  0.25704649112E+02 -0.47987875272E+03  0.48120515494E+03  0.47000000000E+01 0.  1.
         -5    1    1    2    0  502 -0.50236943806E+02  0.17362388937E+02 -0.92228669078E+02  0.10655243063E+03  0.47000000000E+01 0.  1.
        -11    1    3    3    0    0  0.26919001534E+02  0.20910558014E+02 -0.44600814716E+02  0.56134808749E+02  0.00000000000E+00 0.  1.
         11    1    3    3    0    0 -0.10123852163E+01 -0.63977596063E+02 -0.20411668924E+03  0.21391068358E+03  0.00000000000E+00 0. -1.
<mgrwt>
<rscale>  0 0.12664476E+03</rscale>
<asrwt>0</asrwt>
<pdfrwt beam="2">  1        1 0.12912524E+00 0.13472965E+03</pdfrwt>
<pdfrwt beam="1">  1       -1 0.28444731E-02 0.13472965E+03</pdfrwt>
<totfact> 0.84061142E+03</totfact>
</mgrwt>
</event>
<event>
 7    1  0.1422977E-005  0.1376106E+03  0.7546771E-02  0.1228825E+00
          1   -1    0    0  501    0  0.00000000000E+00  0.00000000000E+00  0.12752059847E+03  0.12752059847E+03  0.00000000000E+00 0. -1.
         -1   -1    0    0    0  501 -0.00000000000E+00 -0.00000000000E+00 -0.13127427063E+03  0.13127427063E+03  0.00000000000E+00 0.  1.
         23    2    1    2    0    0  0.51541757000E+02  0.25581102837E+02 -0.44231071561E+02  0.11535468805E+03  0.89662538586E+02 0.  0.
          5    1    1    2  502    0  0.33233165640E+02 -0.36877742667E+02  0.30246077118E+01  0.49956475601E+02  0.47000000000E+01 0. -1.
         -5    1    1    2    0  502 -0.84774922640E+02  0.11296639830E+02  0.37452791695E+02  0.93483705456E+02  0.47000000000E+01 0. -1.
        -11    1    3    3    0    0 -0.16811478435E+02 -0.11210362359E+02  0.80648738930E+01  0.21756383484E+02  0.00000000000E+00 0. -1.
         11    1    3    3    0    0  0.68353235436E+02  0.36791465197E+02 -0.52295945454E+02  0.93598304562E+02  0.00000000000E+00 0.  1.
<mgrwt>
<rscale>  0 0.12908174E+03</rscale>
<asrwt>0</asrwt>
<pdfrwt beam="1">  1        1 0.19618554E-01 0.13761056E+03</pdfrwt>
<pdfrwt beam="2">  1       -1 0.20196042E-01 0.13761056E+03</pdfrwt>
<totfact> 0.49666778E+03</totfact>
</mgrwt>
</event>
<event>
 7    1  0.1422977E-005  0.1394973E+03  0.7546771E-02  0.1226420E+00
          1   -1    0    0  501    0  0.00000000000E+00  0.00000000000E+00  0.84367161387E+03  0.84367161387E+03  0.00000000000E+00 0. -1.
         -1   -1    0    0    0  501 -0.00000000000E+00 -0.00000000000E+00 -0.27696076704E+02  0.27696076704E+02  0.00000000000E+00 0.  1.
         23    2    1    2    0    0  0.24267542450E+02 -0.56967343585E+02  0.11815370165E+03  0.15973940328E+03  0.87875980203E+02 0.  0.
          5    1    1    2  502    0 -0.23193777584E+02  0.93979044723E+02  0.57984630076E+03  0.58788930478E+03  0.47000000000E+01 0. -1.
         -5    1    1    2    0  502 -0.10737648665E+01 -0.37011701137E+02  0.11797553476E+03  0.12373898251E+03  0.47000000000E+01 0. -1.
        -11    1    3    3    0    0 -0.27338158065E+02 -0.40006565977E+02  0.79376453899E+02  0.92997428143E+02  0.00000000000E+00 0. -1.
         11    1    3    3    0    0  0.51605700515E+02 -0.16960777608E+02  0.38777247749E+02  0.66741975141E+02  0.00000000000E+00 0.  1.
<mgrwt>
<rscale>  0 0.13070047E+03</rscale>
<asrwt>0</asrwt>
<pdfrwt beam="1">  1        1 0.12979561E+00 0.13949733E+03</pdfrwt>
<pdfrwt beam="2">  1       -1 0.42609355E-02 0.13949733E+03</pdfrwt>
<totfact> 0.46254361E+03</totfact>
</mgrwt>
</event>
<event>
 7    1  0.4661310E-005  0.3143083E+03  0.7546771E-02  0.1079822E+00
          1   -1    0    0  501    0  0.00000000000E+00  0.00000000000E+00  0.56759910768E+03  0.56759910768E+03  0.00000000000E+00 0. -1.
         -1   -1    0    0    0  501 -0.00000000000E+00 -0.00000000000E+00 -0.18954880765E+03  0.18954880765E+03  0.00000000000E+00 0.  1.
         23    2    1    2    0    0  0.33394446262E+02 -0.28644209409E+03  0.55380913515E+02  0.30669784535E+03  0.88500059071E+02 0.  0.
          5    1    1    2  502    0 -0.10495931663E+02  0.29032641902E+03  0.29600516754E+03  0.41477794466E+03  0.47000000000E+01 0.  1.
         -5    1    1    2    0  502 -0.22898514599E+02 -0.38843249342E+01  0.26664218978E+02  0.35672125319E+02  0.47000000000E+01 0.  1.
        -11    1    3    3    0    0  0.37928941804E+02 -0.10615559740E+03 -0.13739154334E+02  0.11356222897E+03  0.00000000000E+00 0.  1.
         11    1    3    3    0    0 -0.45344955419E+01 -0.18028649669E+03  0.69120067849E+02  0.19313561638E+03  0.00000000000E+00 0. -1.
<mgrwt>
<rscale>  0 0.31109643E+03</rscale>
<asrwt>0</asrwt>
<pdfrwt beam="1">  1        1 0.87322939E-01 0.31430834E+03</pdfrwt>
<pdfrwt beam="2">  1       -1 0.29161355E-01 0.31430834E+03</pdfrwt>
<totfact> 0.40905458E+02</totfact>
</mgrwt>
</event>
<event>
 7    1  0.1422977E-005  0.1457590E+03  0.7546771E-02  0.1215608E+00
          2   -1    0    0  501    0  0.00000000000E+00  0.00000000000E+00  0.10195704279E+03  0.10195704279E+03  0.00000000000E+00 0. -1.
         -2   -1    0    0    0  501 -0.00000000000E+00 -0.00000000000E+00 -0.24565656763E+03  0.24565656763E+03  0.00000000000E+00 0.  1.
         23    2    1    2    0    0 -0.26817326477E+02  0.70012318269E+02 -0.16218250836E+03  0.20068743089E+03  0.91385913526E+02 0.  0.
          5    1    1    2  502    0  0.29895964801E+01 -0.66008818742E+02  0.65938385623E+02  0.93466906108E+02  0.47000000000E+01 0. -1.
         -5    1    1    2    0  502  0.23827729997E+02 -0.40034995268E+01 -0.47455402103E+02  0.53459273414E+02  0.47000000000E+01 0. -1.
        -11    1    3    3    0    0 -0.51666590444E+02  0.63816975264E+02 -0.15270387900E+03  0.17337969189E+03  0.00000000000E+00 0.  1.
         11    1    3    3    0    0  0.24849263967E+02  0.61953430051E+01 -0.94786293648E+01  0.27307739000E+02  0.00000000000E+00 0. -1.
<mgrwt>
<rscale>  0 0.13831998E+03</rscale>
<asrwt>0</asrwt>
<pdfrwt beam="1">  1        2 0.15685699E-01 0.14575898E+03</pdfrwt>
<pdfrwt beam="2">  1       -2 0.37793319E-01 0.14575898E+03</pdfrwt>
<totfact> 0.23799747E+03</totfact>
</mgrwt>
</event>
<event>
 7    1  0.1422977E-005  0.1283003E+03  0.7546771E-02  0.1245010E+00
         -2   -1    0    0    0  501 -0.00000000000E+00  0.00000000000E+00  0.25063290185E+03  0.25063290185E+03  0.00000000000E+00 0.  1.
          2   -1    0    0  501    0  0.00000000000E+00 -0.00000000000E+00 -0.82374544763E+02  0.82374544763E+02  0.00000000000E+00 0. -1.
         23    2    1    2    0    0 -0.13169324362E+01 -0.28873722694E+02  0.18090576382E+03  0.20408527161E+03  0.89935957940E+02 0.  0.
          5    1    1    2  502    0 -0.60888166446E+02  0.23023922677E+02 -0.11401488998E+02  0.66253707669E+02  0.47000000000E+01 0.  1.
         -5    1    1    2    0  502  0.62205098882E+02  0.58498000166E+01 -0.12459177367E+01  0.62668467335E+02  0.47000000000E+01 0.  1.
        -11    1    3    3    0    0  0.12074679348E+02  0.28421610622E+02  0.34518097843E+02  0.46315061377E+02  0.00000000000E+00 0.  1.
         11    1    3    3    0    0 -0.13391611784E+02 -0.57295333316E+02  0.14638766598E+03  0.15777021023E+03  0.00000000000E+00 0. -1.
<mgrwt>
<rscale>  0 0.11884752E+03</rscale>
<asrwt>0</asrwt>
<pdfrwt beam="2">  1        2 0.12673007E-01 0.12830031E+03</pdfrwt>
<pdfrwt beam="1">  1       -2 0.38558908E-01 0.12830031E+03</pdfrwt>
<totfact> 0.29278181E+03</totfact>
</mgrwt>
</event>
<event>
 7    1  0.1422977E-005  0.1574418E+03  0.7546771E-02  0.1199207E+00
          1   -1    0    0  501    0  0.00000000000E+00  0.00000000000E+00  0.86952104849E+02  0.86952104849E+02  0.00000000000E+00 0. -1.
         -1   -1    0    0    0  501 -0.00000000000E+00 -0.00000000000E+00 -0.33780295068E+03  0.33780295068E+03  0.00000000000E+00 0.  1.
         23    2    1    2    0    0  0.45716514107E+02  0.84138300466E+02 -0.23011381186E+03  0.26595345114E+03  0.92788029917E+02 0.  0.
          5    1    1    2  502    0 -0.64435032309E+02 -0.10624364865E+03 -0.27351702307E+01  0.12437506753E+03  0.47000000000E+01 0.  1.
         -5    1    1    2    0  502  0.18718518203E+02  0.22105348183E+02 -0.18001863737E+02  0.34426536857E+02  0.47000000000E+01 0.  1.
        -11    1    3    3    0    0  0.51906122500E+02  0.68750070692E+02 -0.23362373785E+03  0.24899973627E+03  0.00000000000E+00 0.  1.
         11    1    3    3    0    0 -0.61896083929E+01  0.15388229774E+02  0.35099259870E+01  0.16953714875E+02  0.00000000000E+00 0. -1.
<mgrwt>
<rscale>  0 0.15103517E+03</rscale>
<asrwt>0</asrwt>
<pdfrwt beam="1">  1        1 0.13377247E-01 0.15744181E+03</pdfrwt>
<pdfrwt beam="2">  1       -1 0.51969685E-01 0.15744181E+03</pdfrwt>
<totfact> 0.16289981E+03</totfact>
</mgrwt>
</event>
<event>
 7    1  0.1422977E-005  0.1511381E+03  0.7546771E-02  0.1207593E+00
         -2   -1    0    0    0  501 -0.00000000000E+00  0.00000000000E+00  0.24211914622E+02  0.24211914622E+02  0.00000000000E+00 0.  1.
          2   -1    0    0  501    0  0.00000000000E+00 -0.00000000000E+00 -0.10483095890E+04  0.10483095890E+04  0.00000000000E+00 0. -1.
         23    2    1    2    0    0  0.84836878808E+02 -0.49071238653E+01 -0.21212410086E+03  0.24660152344E+03  0.92705454684E+02 0.  0.
          5    1    1    2  502    0 -0.79205758892E+02  0.46481655759E+01 -0.81433920526E+03  0.81820876854E+03  0.47000000000E+01 0.  1.
         -5    1    1    2    0  502 -0.56311199157E+01  0.25895828933E+00  0.23656317710E+01  0.77112116154E+01  0.47000000000E+01 0.  1.
        -11    1    3    3    0    0  0.72176080578E+01 -0.26653106131E+02 -0.12456107591E+03  0.12758504444E+03  0.00000000000E+00 0. -1.
         11    1    3    3    0    0  0.77619270750E+02  0.21745982266E+02 -0.87563024956E+02  0.11901647901E+03  0.00000000000E+00 0.  1.
<mgrwt>
<rscale>  0 0.14434990E+03</rscale>
<asrwt>0</asrwt>
<pdfrwt beam="2">  1        2 0.16127837E+00 0.15113811E+03</pdfrwt>
<pdfrwt beam="1">  1       -2 0.37249105E-02 0.15113811E+03</pdfrwt>
<totfact> 0.73241273E+03</totfact>
</mgrwt>
</event>
<event>
 7    1  0.1422977E-005  0.1287789E+03  0.7546771E-02  0.1244501E+00
          2   -1    0    0  501    0  0.00000000000E+00  0.00000000000E+00  0.20426818207E+03  0.20426818207E+03  0.00000000000E+00 0. -1.
         -2   -1    0    0    0  501 -0.00000000000E+00 -0.00000000000E+00 -0.66464938103E+02  0.66464938103E+02  0.00000000000E+00 0.  1.
         23    2    1    2    0    0 -0.24519599408E+02  0.18926906565E+02  0.20596553893E+02  0.96602697760E+02  0.89153937855E+02 0.  0.
          5    1    1    2  502    0  0.33177423237E+02  0.21361109883E+02  0.12566791023E+03  0.13180118395E+03  0.47000000000E+01 0. -1.
         -5    1    1    2    0  502 -0.86578238289E+01 -0.40288016447E+02 -0.84612201549E+01  0.42329238467E+02  0.47000000000E+01 0. -1.
        -11    1    3    3    0    0 -0.24114513225E+00  0.15133195739E+02 -0.33733874271E+02  0.36973585673E+02  0.00000000000E+00 0.  1.
         11    1    3    3    0    0 -0.24278454275E+02  0.37937108255E+01  0.54330428163E+02  0.59629112087E+02  0.00000000000E+00 0. -1.
<mgrwt>
<rscale>  0 0.11915304E+03</rscale>
<asrwt>0</asrwt>
<pdfrwt beam="1">  1        2 0.31425874E-01 0.12877886E+03</pdfrwt>
<pdfrwt beam="2">  1       -2 0.10225375E-01 0.12877886E+03</pdfrwt>
<totfact> 0.10016868E+04</totfact>
</mgrwt>
</event>
<event>
 7    1  0.1422977E-005  0.1404812E+03  0.7546771E-02  0.1224553E+00
         -1   -1    0    0    0  501 -0.00000000000E+00  0.00000000000E+00  0.24373971539E+02  0.24373971539E+02  0.00000000000E+00 0.  1.
          1   -1    0    0  501    0  0.00000000000E+00 -0.00000000000E+00 -0.64070494172E+03  0.64070494172E+03  0.00000000000E+00 0. -1.
         23    2    1    2    0    0 -0.57070341612E+02  0.29212585033E+02 -0.27449188395E+03  0.29549951460E+03  0.88677898916E+02 0.  0.
          5    1    1    2  502    0  0.79920041812E+01  0.20461448307E+02 -0.26379672508E+03  0.26475147811E+03  0.47000000000E+01 0.  1.
         -5    1    1    2    0  502  0.49078337430E+02 -0.49674033340E+02 -0.78042361143E+02  0.10482792055E+03  0.47000000000E+01 0.  1.
        -11    1    3    3    0    0 -0.13415352417E+02  0.55643536539E+02 -0.16632945375E+03  0.17590242188E+03  0.00000000000E+00 0. -1.
         11    1    3    3    0    0 -0.43654989194E+02 -0.26430951506E+02 -0.10816243020E+03  0.11959709272E+03  0.00000000000E+00 0.  1.
<mgrwt>
<rscale>  0 0.13197582E+03</rscale>
<asrwt>0</asrwt>
<pdfrwt beam="2">  1        1 0.98569975E-01 0.14048121E+03</pdfrwt>
<pdfrwt beam="1">  1       -1 0.37498424E-02 0.14048121E+03</pdfrwt>
<totfact> 0.83443694E+03</totfact>
</mgrwt>
</event>
<event>
 7    1  0.1422977E-005  0.2563763E+03  0.7546771E-02  0.1111791E+00
         -1   -1    0    0    0  501 -0.00000000000E+00  0.00000000000E+00  0.75671197430E+02  0.75671197430E+02  0.00000000000E+00 0.  1.
          1   -1    0    0  501    0  0.00000000000E+00 -0.00000000000E+00 -0.11036950979E+04  0.11036950979E+04  0.00000000000E+00 0. -1.
         23    2    1    2    0    0 -0.22378586892E+03  0.48972039658E+01 -0.20166268357E+03  0.31414859913E+03  0.88979810385E+02 0.  0.
          5    1    1    2  502    0  0.96466992571E+02  0.36481218975E+02 -0.20439451700E+03  0.22898901409E+03  0.47000000000E+01 0. -1.
         -5    1    1    2    0  502  0.12731887635E+03 -0.41378422940E+02 -0.62196669985E+03  0.63622868206E+03  0.47000000000E+01 0. -1.
        -11    1    3    3    0    0 -0.33298549757E+02 -0.32649037651E+02 -0.42495727151E+02  0.63092312539E+02  0.00000000000E+00 0.  1.
         11    1    3    3    0    0 -0.19048731916E+03  0.37546241617E+02 -0.15916695642E+03  0.25105628659E+03  0.00000000000E+00 0. -1.
<mgrwt>
<rscale>  0 0.25241027E+03</rscale>
<asrwt>0</asrwt>
<pdfrwt beam="2">  1        1 0.16979926E+00 0.25637629E+03</pdfrwt>
<pdfrwt beam="1">  1       -1 0.11641722E-01 0.25637629E+03</pdfrwt>
<totfact> 0.64702242E+02</totfact>
</mgrwt>
</event>
<event>
 7    1  0.1422977E-005  0.3183354E+03  0.7546771E-02  0.1077781E+00
          2   -1    0    0  501    0  0.00000000000E+00  0.00000000000E+00  0.14753648943E+04  0.14753648943E+04  0.00000000000E+00 0. -1.
         -2   -1    0    0    0  501 -0.00000000000E+00 -0.00000000000E+00 -0.73292505189E+02  0.73292505189E+02  0.00000000000E+00 0.  1.
         23    2    1    2    0    0 -0.29275184301E+03 -0.30831313285E+01  0.44881603732E+03  0.54365236809E+03  0.91700134584E+02 0.  0.
          5    1    1    2  502    0  0.50621832921E+02 -0.17759575465E+02  0.35807717343E+03  0.36210402458E+03  0.47000000000E+01 0.  1.
         -5    1    1    2    0  502  0.24213001009E+03  0.20842706793E+02  0.59517917834E+03  0.64290100679E+03  0.47000000000E+01 0.  1.
        -11    1    3    3    0    0 -0.11498304248E+03  0.28270389215E+02  0.12022656980E+03  0.16874460895E+03  0.00000000000E+00 0. -1.
         11    1    3    3    0    0 -0.17776880053E+03 -0.31353520544E+02  0.32858946752E+03  0.37490775914E+03  0.00000000000E+00 0.  1.
<mgrwt>
<rscale>  0 0.31540978E+03</rscale>
<asrwt>0</asrwt>
<pdfrwt beam="1">  1        2 0.22697919E+00 0.31833542E+03</pdfrwt>
<pdfrwt beam="2">  1       -2 0.11275771E-01 0.31833542E+03</pdfrwt>
<totfact> 0.76798156E+02</totfact>
</mgrwt>
</event>
<event>
 7    1  0.1422977E-005  0.2314310E+03  0.7546771E-02  0.1128709E+00
          2   -1    0    0  501    0  0.00000000000E+00  0.00000000000E+00  0.43411075396E+03  0.43411075396E+03  0.00000000000E+00 0. -1.
         -2   -1    0    0    0  501 -0.00000000000E+00 -0.00000000000E+00 -0.16004554053E+03  0.16004554053E+03  0.00000000000E+00 0.  1.
         23    2    1    2    0    0 -0.16933009077E+03  0.96230642322E+02 -0.25026486506E+02  0.21598154279E+03  0.89937120466E+02 0.  0.
          5    1    1    2  502    0  0.12155095811E+03 -0.45793504644E+02  0.90797986477E+02  0.15854981814E+03  0.47000000000E+01 0.  1.
         -5    1    1    2    0  502  0.47779132668E+02 -0.50437137678E+02  0.20829371345E+03  0.21962493356E+03  0.47000000000E+01 0.  1.
        -11    1    3    3    0    0 -0.59899241803E+02  0.85634711846E+02 -0.15132993781E+02  0.10559465205E+03  0.00000000000E+00 0.  1.
         11    1    3    3    0    0 -0.10943084897E+03  0.10595930477E+02 -0.98934927247E+01  0.11038689074E+03  0.00000000000E+00 0. -1.
<mgrwt>
<rscale>  0 0.22708396E+03</rscale>
<asrwt>0</asrwt>
<pdfrwt beam="1">  1        2 0.66786270E-01 0.23143098E+03</pdfrwt>
<pdfrwt beam="2">  1       -2 0.24622391E-01 0.23143098E+03</pdfrwt>
<totfact> 0.10650163E+03</totfact>
</mgrwt>
</event>
<event>
 7    1  0.1422977E-005  0.1261471E+03  0.7546771E-02  0.1253553E+00
          1   -1    0    0  501    0  0.00000000000E+00  0.00000000000E+00  0.63803705688E+03  0.63803705688E+03  0.00000000000E+00 0. -1.
         -1   -1    0    0    0  501 -0.00000000000E+00 -0.00000000000E+00 -0.18779335604E+02  0.18779335604E+02  0.00000000000E+00 0.  1.
         23    2    1    2    0    0  0.32172490710E+01 -0.16630213426E+02  0.16073561149E+03  0.18125817054E+03  0.82046772605E+02 0.  0.
          5    1    1    2  502    0  0.39288642232E+02 -0.51899206301E+01  0.48833324045E+02  0.63065967224E+02  0.47000000000E+01 0.  1.
         -5    1    1    2    0  502 -0.42505891303E+02  0.21820134056E+02  0.40968878574E+03  0.41249225472E+03  0.47000000000E+01 0.  1.
        -11    1    3    3    0    0 -0.23827939714E+02  0.19926661780E+02  0.10404693041E+03  0.10858455825E+03  0.00000000000E+00 0.  1.
         11    1    3    3    0    0  0.27045188785E+02 -0.36556875206E+02  0.56688681076E+02  0.72673612291E+02  0.00000000000E+00 0. -1.
<mgrwt>
<rscale>  0 0.11387784E+03</rscale>
<asrwt>0</asrwt>
<pdfrwt beam="1">  1        1 0.98159531E-01 0.12614713E+03</pdfrwt>
<pdfrwt beam="2">  1       -1 0.28891290E-02 0.12614713E+03</pdfrwt>
<totfact> 0.12190317E+04</totfact>
</mgrwt>
</event>
<event>
 7    1  0.1422977E-005  0.2624923E+03  0.7546771E-02  0.1106671E+00
          1   -1    0    0  501    0  0.00000000000E+00  0.00000000000E+00  0.12079172683E+04  0.12079172683E+04  0.00000000000E+00 0. -1.
         -1   -1    0    0    0  501 -0.00000000000E+00 -0.00000000000E+00 -0.10900418507E+03  0.10900418507E+03  0.00000000000E+00 0.  1.
         23    2    1    2    0    0  0.21309106818E+03 -0.10496290291E+03  0.84866145051E+02  0.26945144418E+03  0.94745996582E+02 0.  0.
          5    1    1    2  502    0 -0.18779511730E+03  0.12347119828E+03  0.79607751402E+03  0.82720834208E+03  0.47000000000E+01 0. -1.
         -5    1    1    2    0  502 -0.25295950889E+02 -0.18508295372E+02  0.21796942418E+03  0.22026166713E+03  0.47000000000E+01 0.  1.
        -11    1    3    3    0    0  0.25366493948E+02 -0.51701140849E+02  0.24911306828E+01  0.57642629298E+02  0.00000000000E+00 0.  1.
         11    1    3    3    0    0  0.18772457424E+03 -0.53261762059E+02  0.82375014368E+02  0.21180881488E+03  0.00000000000E+00 0. -1.
<mgrwt>
<rscale>  0 0.26078716E+03</rscale>
<asrwt>0</asrwt>
<pdfrwt beam="1">  1        1 0.18583342E+00 0.26249234E+03</pdfrwt>
<pdfrwt beam="2">  1       -1 0.16769875E-01 0.26249234E+03</pdfrwt>
<totfact> 0.30593757E+02</totfact>
</mgrwt>
</event>
<event>
 7    1  0.1422977E-005  0.1356526E+03  0.7546771E-02  0.1233162E+00
          2   -1    0    0  501    0  0.00000000000E+00  0.00000000000E+00  0.43746554051E+02  0.43746554051E+02  0.00000000000E+00 0. -1.
         -2   -1    0    0    0  501 -0.00000000000E+00 -0.00000000000E+00 -0.57475141899E+03  0.57475141899E+03  0.00000000000E+00 0.  1.
         23    2    1    2    0    0  0.48894491338E+00  0.52788059582E+02 -0.44814453747E+03  0.45954052706E+03  0.86931877020E+02 0.  0.
          5    1    1    2  502    0  0.61631408673E+02 -0.20971684266E+02 -0.33691339994E+02  0.73453648422E+02  0.47000000000E+01 0. -1.
         -5    1    1    2    0  502 -0.62120353586E+02 -0.31816375316E+02 -0.49168987471E+02  0.85503797558E+02  0.47000000000E+01 0. -1.
        -11    1    3    3    0    0 -0.30236147224E+02  0.62398305626E+02 -0.29325407225E+03  0.30133988125E+03  0.00000000000E+00 0. -1.
         11    1    3    3    0    0  0.30725092137E+02 -0.96102460445E+01 -0.15489046523E+03  0.15820064581E+03  0.00000000000E+00 0.  1.
<mgrwt>
<rscale>  0 0.12622840E+03</rscale>
<asrwt>0</asrwt>
<pdfrwt beam="1">  1        2 0.67302392E-02 0.13565263E+03</pdfrwt>
<pdfrwt beam="2">  1       -2 0.88423294E-01 0.13565263E+03</pdfrwt>
<totfact> 0.11742313E+03</totfact>
</mgrwt>
</event>
<event>
 7    1  0.1422977E-005  0.1337846E+03  0.7546771E-02  0.1233081E+00
         -2   -1    0    0    0  501 -0.00000000000E+00  0.00000000000E+00  0.43443873669E+02  0.43443873669E+02  0.00000000000E+00 0.  1.
          2   -1    0    0  501    0  0.00000000000E+00 -0.00000000000E+00 -0.38087984776E+03  0.38087984776E+03  0.00000000000E+00 0. -1.
         23    2    1    2    0    0  0.45086126953E+02 -0.15510618677E+02 -0.75832174983E+02  0.13049578955E+03  0.94896228549E+02 0.  0.
          5    1    1    2  502    0 -0.15483827927E+02  0.68894785962E+02 -0.16391488166E+03  0.17853968436E+03  0.47000000000E+01 0. -1.
         -5    1    1    2    0  502 -0.29602299026E+02 -0.53384167286E+02 -0.97688917440E+02  0.11528824751E+03  0.47000000000E+01 0. -1.
        -11    1    3    3    0    0  0.38852560439E+02  0.18927120181E+02  0.39275744483E+01  0.43395658447E+02  0.00000000000E+00 0.  1.
         11    1    3    3    0    0  0.62335665135E+01 -0.34437738858E+02 -0.79759749431E+02  0.87100131104E+02  0.00000000000E+00 0. -1.
<mgrwt>
<rscale>  0 0.12628057E+03</rscale>
<asrwt>0</asrwt>
<pdfrwt beam="2">  1        2 0.58596897E-01 0.13378455E+03</pdfrwt>
<pdfrwt beam="1">  1       -2 0.66836732E-02 0.13378455E+03</pdfrwt>
<totfact> 0.99986681E+03</totfact>
</mgrwt>
</event>
<event>
 7    1  0.1422977E-005  0.3213971E+03  0.7546771E-02  0.1076570E+00
         -1   -1    0    0    0  501 -0.00000000000E+00  0.00000000000E+00  0.87069487356E+03  0.87069487356E+03  0.00000000000E+00 0.  1.
          1   -1    0    0  501    0  0.00000000000E+00 -0.00000000000E+00 -0.11949553751E+03  0.11949553751E+03  0.00000000000E+00 0. -1.
         23    2    1    2    0    0  0.16017558009E+03  0.24902973008E+03  0.47645609061E+03  0.56736663744E+03  0.84985128638E+02 0.  0.
          5    1    1    2  502    0 -0.16279955679E+03 -0.14876229244E+03  0.19850060736E+03  0.29674651888E+03  0.47000000000E+01 0. -1.
         -5    1    1    2    0  502  0.26239767029E+01 -0.10026743764E+03  0.76242638079E+02  0.12607725475E+03  0.47000000000E+01 0. -1.
        -11    1    3    3    0    0  0.35917357800E+02  0.12694282806E+03  0.17438254972E+03  0.21866369574E+03  0.00000000000E+00 0. -1.
         11    1    3    3    0    0  0.12425822229E+03  0.12208690202E+03  0.30207354088E+03  0.34870294170E+03  0.00000000000E+00 0.  1.
<mgrwt>
<rscale>  0 0.31800693E+03</rscale>
<asrwt>0</asrwt>
<pdfrwt beam="2">  1        1 0.18383929E-01 0.32139709E+03</pdfrwt>
<pdfrwt beam="1">  1       -1 0.13395305E+00 0.32139709E+03</pdfrwt>
<totfact> 0.14397431E+02</totfact>
</mgrwt>
</event>
<event>
 7    1  0.1422977E-005  0.1377452E+03  0.7546771E-02  0.1227884E+00
         -2   -1    0    0    0  501 -0.00000000000E+00  0.00000000000E+00  0.13110339167E+02  0.13110339167E+02  0.00000000000E+00 0.  1.
          2   -1    0    0  501    0  0.00000000000E+00 -0.00000000000E+00 -0.17113744430E+04  0.17113744430E+04  0.00000000000E+00 0. -1.
         23    2    1    2    0    0  0.53539583689E+02  0.21991665220E+02 -0.29115400696E+03  0.31064866129E+03  0.91552250848E+02 0.  0.
          5    1    1    2  502    0  0.92566408724E+01  0.27509137854E+02 -0.89647366183E+03  0.89695571486E+03  0.47000000000E+01 0.  1.
         -5    1    1    2    0  502 -0.62796224561E+02 -0.49500803074E+02 -0.51063643503E+03  0.51688040600E+03  0.47000000000E+01 0.  1.
        -11    1    3    3    0    0  0.24894115348E+02 -0.35918626272E+02 -0.11612495335E+03  0.12407606329E+03  0.00000000000E+00 0.  1.
         11    1    3    3    0    0  0.28645468341E+02  0.57910291492E+02 -0.17502905361E+03  0.18657259800E+03  0.00000000000E+00 0. -1.
<mgrwt>
<rscale>  0 0.12971155E+03</rscale>
<asrwt>0</asrwt>
<pdfrwt beam="2">  1        2 0.26328826E+00 0.13774524E+03</pdfrwt>
<pdfrwt beam="1">  1       -2 0.20169762E-02 0.13774524E+03</pdfrwt>
<totfact> 0.79043881E+03</totfact>
</mgrwt>
</event>
<event>
 6    1  0.1422977E-005  0.1338362E+03  0.7546771E-02  0.1248206E+00
          1   -1    0    0  501    0  0.00000000000E+00  0.00000000000E+00  0.34987951910E+03  0.34987951910E+03  0.00000000000E+00 0. -1.
         -1   -1    0    0    0  501 -0.00000000000E+00 -0.00000000000E+00 -0.61059956922E+02  0.61059956922E+02  0.00000000000E+00 0.  1.
          5    1    1    2  502    0  0.39510402145E+02  0.88181627585E+02  0.19998795342E+03  0.22215837331E+03  0.47000000000E+01 0. -1.
         -5    1    1    2    0  502  0.11742302067E+02 -0.33548902396E+02  0.10335259677E+03  0.10939497141E+03  0.47000000000E+01 0.  1.
        -11    1    1    2    0    0 -0.78143861656E+01 -0.18549409835E+02 -0.10678105488E+02  0.22785240249E+02  0.00000000000E+00 0. -1.
         11    1    1    2    0    0 -0.43438318047E+02 -0.36083315354E+02 -0.38428825245E+01  0.56600891051E+02  0.00000000000E+00 0.  1.
<mgrwt>
<rscale>  0 0.11695504E+03</rscale>
<asrwt>0</asrwt>
<pdfrwt beam="1">  1        1 0.53827617E-01 0.13383621E+03</pdfrwt>
<pdfrwt beam="2">  1       -1 0.93938397E-02 0.13383621E+03</pdfrwt>
<totfact> 0.46480862E+03</totfact>
</mgrwt>
</event>
<event>
 7    1  0.1422977E-005  0.1524523E+03  0.7546771E-02  0.1209755E+00
         -1   -1    0    0    0  501 -0.00000000000E+00  0.00000000000E+00  0.41982274339E+02  0.41982274339E+02  0.00000000000E+00 0.  1.
          1   -1    0    0  501    0  0.00000000000E+00 -0.00000000000E+00 -0.48471361899E+03  0.48471361899E+03  0.00000000000E+00 0. -1.
         23    2    1    2    0    0 -0.62796070120E+02  0.41875836483E+02 -0.10948333094E+03  0.16023179351E+03  0.89390691874E+02 0.  0.
          5    1    1    2  502    0  0.72868836434E+02  0.24032531794E+02 -0.23797812595E+03  0.25008620182E+03  0.47000000000E+01 0. -1.
         -5    1    1    2    0  502 -0.10072766314E+02 -0.65908368276E+02 -0.95269887760E+02  0.11637789800E+03  0.47000000000E+01 0.  1.
        -11    1    3    3    0    0 -0.20693408708E+02  0.54825006272E+02 -0.98854985584E+02  0.11491869583E+03  0.00000000000E+00 0. -1.
         11    1    3    3    0    0 -0.42102661412E+02 -0.12949169790E+02 -0.10628345357E+02  0.45313097679E+02  0.00000000000E+00 0.  1.
<mgrwt>
<rscale>  0 0.14268932E+03</rscale>
<asrwt>0</asrwt>
<pdfrwt beam="2">  1        1 0.74571328E-01 0.15245228E+03</pdfrwt>
<pdfrwt beam="1">  1       -1 0.64588113E-02 0.15245228E+03</pdfrwt>
<totfact> 0.54453677E+03</totfact>
</mgrwt>
</event>
<event>
 7    1  0.1422977E-005  0.1576748E+03  0.7546771E-02  0.1199173E+00
          1   -1    0    0  501    0  0.00000000000E+00  0.00000000000E+00  0.10973003160E+04  0.10973003160E+04  0.00000000000E+00 0. -1.
         -1   -1    0    0    0  501 -0.00000000000E+00 -0.00000000000E+00 -0.19581637027E+02  0.19581637027E+02  0.00000000000E+00 0.  1.
         23    2    1    2    0    0 -0.57762485676E+02  0.76820658881E+02  0.41902092345E+03  0.43957546783E+03  0.91706811331E+02 0.  0.
          5    1    1    2  502    0 -0.25418332079E+02 -0.69255822505E+02  0.29723867155E+03  0.30629296176E+03  0.47000000000E+01 0.  1.
         -5    1    1    2    0  502  0.83180817755E+02 -0.75648363759E+01  0.36145908399E+03  0.37101352346E+03  0.47000000000E+01 0.  1.
        -11    1    3    3    0    0 -0.34173782580E+02 -0.85678769280E+01  0.58148861547E+02  0.67989308204E+02  0.00000000000E+00 0.  1.
         11    1    3    3    0    0 -0.23588703096E+02  0.85388535809E+02  0.36087206190E+03  0.37158615962E+03  0.00000000000E+00 0. -1.
<mgrwt>
<rscale>  0 0.15106325E+03</rscale>
<asrwt>0</asrwt>
<pdfrwt beam="1">  1        1 0.16881539E+00 0.15767480E+03</pdfrwt>
<pdfrwt beam="2">  1       -1 0.30125604E-02 0.15767480E+03</pdfrwt>
<totfact> 0.49957373E+03</totfact>
</mgrwt>
</event>
<event>
 7    1  0.1422977E-005  0.1379300E+03  0.7546771E-02  0.1227883E+00
          1   -1    0    0  501    0  0.00000000000E+00  0.00000000000E+00  0.57796961052E+03  0.57796961052E+03  0.00000000000E+00 0. -1.
         -1   -1    0    0    0  501 -0.00000000000E+00 -0.00000000000E+00 -0.28297376902E+02  0.28297376902E+02  0.00000000000E+00 0.  1.
         23    2    1    2    0    0 -0.40002101529E+02 -0.42374598681E+02  0.16061814222E+03  0.19348645812E+03  0.90791228249E+02 0.  0.
          5    1    1    2  502    0  0.62089883874E+02  0.74128753386E+02  0.30781784671E+03  0.32268272732E+03  0.47000000000E+01 0. -1.
         -5    1    1    2    0  502 -0.22087782345E+02 -0.31754154705E+02  0.81236244686E+02  0.90097801974E+02  0.47000000000E+01 0. -1.
        -11    1    3    3    0    0 -0.24725843249E+02 -0.41087265567E+02  0.16923678887E+03  0.17589946396E+03  0.00000000000E+00 0. -1.
         11    1    3    3    0    0 -0.15276258279E+02 -0.12873331138E+01 -0.86186466477E+01  0.17586994161E+02  0.00000000000E+00 0.  1.
<mgrwt>
<rscale>  0 0.12971274E+03</rscale>
<asrwt>0</asrwt>
<pdfrwt beam="1">  1        1 0.88918393E-01 0.13792998E+03</pdfrwt>
<pdfrwt beam="2">  1       -1 0.43534430E-02 0.13792998E+03</pdfrwt>
<totfact> 0.77069738E+03</totfact>
</mgrwt>
</event>
<event>
 7    1  0.1422977E-005  0.1439348E+03  0.7546771E-02  0.1219860E+00
         -2   -1    0    0    0  501 -0.00000000000E+00  0.00000000000E+00  0.28282608711E+03  0.28282608711E+03  0.00000000000E+00 0.  1.
          2   -1    0    0  501    0  0.00000000000E+00 -0.00000000000E+00 -0.58027379479E+02  0.58027379479E+02  0.00000000000E+00 0. -1.
         23    2    1    2    0    0  0.66349620161E+01  0.71042903782E+02  0.95193796105E+02  0.14716645432E+03  0.86631342833E+02 0.  0.
          5    1    1    2  502    0  0.32038635603E+01 -0.74186182450E+02  0.15163520971E+03  0.16890583540E+03  0.47000000000E+01 0. -1.
         -5    1    1    2    0  502 -0.98388255764E+01  0.31432786678E+01 -0.22030298179E+02  0.24781176876E+02  0.47000000000E+01 0. -1.
        -11    1    3    3    0    0 -0.34340405323E+02  0.59020929719E+02  0.47680826399E+02  0.83283820690E+02  0.00000000000E+00 0. -1.
         11    1    3    3    0    0  0.40975367339E+02  0.12021974063E+02  0.47512969706E+02  0.63882633628E+02  0.00000000000E+00 0.  1.
<mgrwt>
<rscale>  0 0.13525517E+03</rscale>
<asrwt>0</asrwt>
<pdfrwt beam="2">  1        2 0.89272893E-02 0.14393480E+03</pdfrwt>
<pdfrwt beam="1">  1       -2 0.43511705E-01 0.14393480E+03</pdfrwt>
<totfact> 0.35907356E+03</totfact>
</mgrwt>
</event>
<event>
 6    1  0.1422977E-005  0.5390306E+03  0.7546771E-02  0.1004065E+00
         -2   -1    0    0    0  501 -0.00000000000E+00  0.00000000000E+00  0.21017305637E+03  0.21017305637E+03  0.00000000000E+00 0.  1.
          2   -1    0    0  501    0  0.00000000000E+00 -0.00000000000E+00 -0.34561285597E+03  0.34561285597E+03  0.00000000000E+00 0. -1.
          5    1    1    2  502    0  0.31839113560E+02  0.78888006362E+02 -0.46174443384E+02  0.96908286137E+02  0.47000000000E+01 0.  1.
         -5    1    1    2    0  502  0.11470692012E+03 -0.16667805330E+02 -0.34906994563E+02  0.12114487825E+03  0.47000000000E+01 0.  1.
        -11    1    1    2    0    0  0.46915749765E+02  0.76606481542E+02 -0.42345801988E+02  0.99311668682E+02  0.00000000000E+00 0. -1.
         11    1    1    2    0    0 -0.19346178344E+03 -0.13882668258E+03 -0.12012559671E+02  0.23842107927E+03  0.00000000000E+00 0.  1.
<mgrwt>
<rscale>  0 0.53903065E+03</rscale>
<asrwt>0</asrwt>
<pdfrwt beam="2">  1        2 0.53171209E-01 0.53903065E+03</pdfrwt>
<pdfrwt beam="1">  1       -2 0.32334316E-01 0.53903065E+03</pdfrwt>
<totfact> 0.83800066E+02</totfact>
</mgrwt>
</event>
<event>
 7    1  0.1422977E-005  0.1656758E+03  0.7546771E-02  0.1189421E+00
         -1   -1    0    0    0  501 -0.00000000000E+00  0.00000000000E+00  0.78990481876E+02  0.78990481876E+02  0.00000000000E+00 0.  1.
          1   -1    0    0  501    0  0.00000000000E+00 -0.00000000000E+00 -0.30376419074E+03  0.30376419074E+03  0.00000000000E+00 0. -1.
         23    2    1    2    0    0  0.51444005100E+02  0.95797262401E+02 -0.80569511129E+02  0.16311108318E+03  0.91050415649E+02 0.  0.
          5    1    1    2  502    0  0.29921517879E+02 -0.74182978751E+02 -0.56943286458E+02  0.98300760125E+02  0.47000000000E+01 0. -1.
         -5    1    1    2    0  502 -0.81365522978E+02 -0.21614283650E+02 -0.87260911280E+02  0.12134282931E+03  0.47000000000E+01 0. -1.
        -11    1    3    3    0    0  0.14464606500E+02  0.74494219660E+02 -0.91679978780E+02  0.11901189904E+03  0.00000000000E+00 0. -1.
         11    1    3    3    0    0  0.36979398600E+02  0.21303042741E+02  0.11110467651E+02  0.44099184145E+02  0.00000000000E+00 0.  1.
<mgrwt>
<rscale>  0 0.15936059E+03</rscale>
<asrwt>0</asrwt>
<pdfrwt beam="2">  1        1 0.46732952E-01 0.16567575E+03</pdfrwt>
<pdfrwt beam="1">  1       -1 0.12152382E-01 0.16567575E+03</pdfrwt>
<totfact> 0.37728338E+03</totfact>
</mgrwt>
</event>
<event>
 7    1  0.1422977E-005  0.1296509E+03  0.7546771E-02  0.1242391E+00
          1   -1    0    0  501    0  0.00000000000E+00  0.00000000000E+00  0.41591966455E+03  0.41591966455E+03  0.00000000000E+00 0. -1.
         -1   -1    0    0    0  501 -0.00000000000E+00 -0.00000000000E+00 -0.30830277932E+02  0.30830277932E+02  0.00000000000E+00 0.  1.
         23    2    1    2    0    0  0.22645733768E+02 -0.25919303652E+02  0.15286770020E+03  0.18078705942E+03  0.90170879605E+02 0.  0.
          5    1    1    2  502    0  0.32424817592E+02  0.37625925031E+02  0.18716172934E+03  0.19369739792E+03  0.47000000000E+01 0.  1.
         -5    1    1    2    0  502 -0.55070551360E+02 -0.11706621379E+02  0.45059957066E+02  0.72265485137E+02  0.47000000000E+01 0.  1.
        -11    1    3    3    0    0  0.48315986598E+02  0.42950218162E+01  0.46191488298E+02  0.66981604673E+02  0.00000000000E+00 0.  1.
         11    1    3    3    0    0 -0.25670252830E+02 -0.30214325468E+02  0.10667621191E+03  0.11380545475E+03  0.00000000000E+00 0. -1.
<mgrwt>
<rscale>  0 0.12042922E+03</rscale>
<asrwt>0</asrwt>
<pdfrwt beam="1">  1        1 0.63987637E-01 0.12965085E+03</pdfrwt>
<pdfrwt beam="2">  1       -1 0.47431200E-02 0.12965085E+03</pdfrwt>
<totfact> 0.10378183E+04</totfact>
</mgrwt>
</event>
<event>
 7    1  0.1422977E-005  0.1974772E+03  0.7546771E-02  0.1156232E+00
          2   -1    0    0  501    0  0.00000000000E+00  0.00000000000E+00  0.17967950339E+04  0.17967950339E+04  0.00000000000E+00 0. -1.
         -2   -1    0    0    0  501 -0.00000000000E+00 -0.00000000000E+00 -0.22404973208E+02  0.22404973208E+02  0.00000000000E+00 0.  1.
         23    2    1    2    0    0  0.38932560145E+02 -0.14784787697E+03  0.52858008242E+03  0.55783576686E+03  0.91701146628E+02 0.  0.
          5    1    1    2  502    0  0.32219275767E+02  0.55396037116E+01  0.12422483184E+03  0.12854052974E+03  0.47000000000E+01 0. -1.
         -5    1    1    2    0  502 -0.71151835912E+02  0.14230827326E+03  0.11215851464E+04  0.11328237105E+04  0.47000000000E+01 0. -1.
        -11    1    3    3    0    0 -0.14655173908E+02 -0.56506187882E+02  0.94933601513E+02  0.11144555661E+03  0.00000000000E+00 0.  1.
         11    1    3    3    0    0  0.53587734053E+02 -0.91341689087E+02  0.43364648091E+03  0.44639021025E+03  0.00000000000E+00 0. -1.
<mgrwt>
<rscale>  0 0.19249237E+03</rscale>
<asrwt>0</asrwt>
<pdfrwt beam="1">  1        2 0.27642989E+00 0.19747720E+03</pdfrwt>
<pdfrwt beam="2">  1       -2 0.34469204E-02 0.19747720E+03</pdfrwt>
<totfact> 0.32660603E+03</totfact>
</mgrwt>
</event>
<event>
 7    1  0.1422977E-005  0.2915226E+03  0.7546771E-02  0.1091182E+00
         -2   -1    0    0    0  501 -0.00000000000E+00  0.00000000000E+00  0.17874278238E+03  0.17874278238E+03  0.00000000000E+00 0.  1.
          2   -1    0    0  501    0  0.00000000000E+00 -0.00000000000E+00 -0.12084632376E+04  0.12084632376E+04  0.00000000000E+00 0. -1.
         23    2    1    2    0    0  0.40963502087E+02 -0.26017311718E+03  0.36682571683E+02  0.28167409498E+03  0.92879628072E+02 0.  0.
          5    1    1    2  502    0  0.30788500492E+02  0.11996367900E+03 -0.61644333389E+03  0.62877952411E+03  0.47000000000E+01 0.  1.
         -5    1    1    2    0  502 -0.71752002578E+02  0.14020943817E+03 -0.44995969306E+03  0.47675240094E+03  0.47000000000E+01 0.  1.
        -11    1    3    3    0    0  0.55224487968E+02 -0.83011870477E+02  0.28738662369E+02  0.10376235072E+03  0.00000000000E+00 0.  1.
         11    1    3    3    0    0 -0.14260985881E+02 -0.17716124670E+03  0.79439093145E+01  0.17791174426E+03  0.00000000000E+00 0. -1.
<mgrwt>
<rscale>  0 0.28841131E+03</rscale>
<asrwt>0</asrwt>
<pdfrwt beam="2">  1        2 0.18591742E+00 0.29152259E+03</pdfrwt>
<pdfrwt beam="1">  1       -2 0.27498890E-01 0.29152259E+03</pdfrwt>
<totfact> 0.23810076E+02</totfact>
</mgrwt>
</event>
<event>
 7    1  0.1422977E-005  0.1536492E+03  0.7546771E-02  0.1204774E+00
          2   -1    0    0  501    0  0.00000000000E+00  0.00000000000E+00  0.22344737049E+03  0.22344737049E+03  0.00000000000E+00 0. -1.
         -2   -1    0    0    0  501 -0.00000000000E+00 -0.00000000000E+00 -0.10068365488E+03  0.10068365488E+03  0.00000000000E+00 0.  1.
         23    2    1    2    0    0 -0.84090263297E+02 -0.30198924467E+02 -0.46286116047E+00  0.12717195235E+03  0.90494993249E+02 0.  0.
          5    1    1    2  502    0  0.70013988165E+02  0.54694953748E+02  0.13841319043E+03  0.16454117354E+03  0.47000000000E+01 0. -1.
         -5    1    1    2    0  502  0.14076275131E+02 -0.24496029280E+02 -0.15186613662E+02  0.32417899478E+02  0.47000000000E+01 0. -1.
        -11    1    3    3    0    0 -0.38516899588E+02 -0.18653206715E+02 -0.45220484529E+02  0.62260628777E+02  0.00000000000E+00 0.  1.
         11    1    3    3    0    0 -0.45573363709E+02 -0.11545717752E+02  0.44757623369E+02  0.64911323571E+02  0.00000000000E+00 0. -1.
<mgrwt>
<rscale>  0 0.14655307E+03</rscale>
<asrwt>0</asrwt>
<pdfrwt beam="1">  1        2 0.34376518E-01 0.15364923E+03</pdfrwt>
<pdfrwt beam="2">  1       -2 0.15489793E-01 0.15364923E+03</pdfrwt>
<totfact> 0.47225426E+03</totfact>
</mgrwt>
</event>
<event>
 7    1  0.1422977E-005  0.1281883E+03  0.7546771E-02  0.1245162E+00
         -2   -1    0    0    0  501 -0.00000000000E+00  0.00000000000E+00  0.28756376245E+03  0.28756376245E+03  0.00000000000E+00 0.  1.
          2   -1    0    0  501    0  0.00000000000E+00 -0.00000000000E+00 -0.68572541008E+02  0.68572541008E+02  0.00000000000E+00 0. -1.
         23    2    1    2    0    0  0.28415015853E+02  0.30028217216E+00  0.20683933990E+03  0.22737329592E+03  0.90047764396E+02 0.  0.
          5    1    1    2  502    0 -0.26747619675E+02  0.60843783028E+02  0.26304322467E+01  0.66681408692E+02  0.47000000000E+01 0. -1.
         -5    1    1    2    0  502 -0.16673961787E+01 -0.61144065200E+02  0.95214493034E+01  0.62081598852E+02  0.47000000000E+01 0. -1.
        -11    1    3    3    0    0  0.59756864173E+02 -0.26081817767E+00  0.16194219307E+03  0.17261582992E+03  0.00000000000E+00 0.  1.
         11    1    3    3    0    0 -0.31341848320E+02  0.56110034983E+00  0.44897146827E+02  0.54757466001E+02  0.00000000000E+00 0. -1.
<mgrwt>
<rscale>  0 0.11875673E+03</rscale>
<asrwt>0</asrwt>
<pdfrwt beam="2">  1        2 0.10549622E-01 0.12818831E+03</pdfrwt>
<pdfrwt beam="1">  1       -2 0.44240578E-01 0.12818831E+03</pdfrwt>
<totfact> 0.28116918E+03</totfact>
</mgrwt>
</event>
<event>
 7    1  0.1422977E-005  0.1944203E+03  0.7546771E-02  0.1159060E+00
         -2   -1    0    0    0  501 -0.00000000000E+00  0.00000000000E+00  0.35420408399E+02  0.35420408399E+02  0.00000000000E+00 0.  1.
          2   -1    0    0  501    0  0.00000000000E+00 -0.00000000000E+00 -0.98738081595E+03  0.98738081595E+03  0.00000000000E+00 0. -1.
         23    2    1    2    0    0 -0.13747768048E+03 -0.57222080427E+02 -0.37046012518E+03  0.40966025582E+03  0.91686104388E+02 0.  0.
          5    1    1    2  502    0  0.13862916227E+03  0.58137465618E+02 -0.58688141046E+03  0.60584642401E+03  0.47000000000E+01 0.  1.
         -5    1    1    2    0  502 -0.11514817895E+01 -0.91538519133E+00  0.53811280801E+01  0.72945445214E+01  0.47000000000E+01 0.  1.
        -11    1    3    3    0    0  0.61997043550E+01 -0.19802117150E+02 -0.19031481813E+02  0.28155949242E+02  0.00000000000E+00 0.  1.
         11    1    3    3    0    0 -0.14367738484E+03 -0.37419963276E+02 -0.35142864336E+03  0.38150430658E+03  0.00000000000E+00 0. -1.
<mgrwt>
<rscale>  0 0.18933784E+03</rscale>
<asrwt>0</asrwt>
<pdfrwt beam="2">  1        2 0.15190473E+00 0.19442034E+03</pdfrwt>
<pdfrwt beam="1">  1       -2 0.54492940E-02 0.19442034E+03</pdfrwt>
<totfact> 0.45380289E+03</totfact>
</mgrwt>
</event>
<event>
 7    1  0.1422977E-005  0.2250338E+03  0.7546771E-02  0.1152859E+00
          1   -1    0    0  501    0  0.00000000000E+00  0.00000000000E+00  0.20668874265E+04  0.20668874265E+04  0.00000000000E+00 0. -1.
         -1   -1    0    0    0  501 -0.00000000000E+00 -0.00000000000E+00 -0.90733901993E+02  0.90733901993E+02  0.00000000000E+00 0.  1.
         23    2    1    2    0    0 -0.18389329847E+02  0.89395744215E+02 -0.34104878953E+02  0.13480668651E+03  0.93166160285E+02 0.  0.
          5    1    1    2  502    0 -0.10385732912E+02 -0.15193354758E+03  0.15404227489E+04  0.15479392759E+04  0.47000000000E+01 0. -1.
         -5    1    1    2    0  502  0.28775062759E+02  0.62537803366E+02  0.46983565454E+03  0.47487536614E+03  0.47000000000E+01 0.  1.
        -11    1    3    3    0    0 -0.48700669194E+01  0.80041803652E+02  0.16264252384E+02  0.81822575059E+02  0.00000000000E+00 0.  1.
         11    1    3    3    0    0 -0.13519262928E+02  0.93539405631E+01 -0.50369131337E+02  0.52984111447E+02  0.00000000000E+00 0. -1.
<mgrwt>
<rscale>  0 0.19634640E+03</rscale>
<asrwt>0</asrwt>
<pdfrwt beam="1">  1        1 0.31798264E+00 0.22503384E+03</pdfrwt>
<pdfrwt beam="2">  1       -1 0.13959063E-01 0.22503384E+03</pdfrwt>
<totfact> 0.11210266E+02</totfact>
</mgrwt>
</event>
<event>
 7    1  0.1422977E-005  0.2585726E+03  0.7546771E-02  0.1108004E+00
         -1   -1    0    0    0  501 -0.00000000000E+00  0.00000000000E+00  0.42175547973E+02  0.42175547973E+02  0.00000000000E+00 0.  1.
          1   -1    0    0  501    0  0.00000000000E+00 -0.00000000000E+00 -0.39631840207E+03  0.39631840207E+03  0.00000000000E+00 0. -1.
         23    2    1    2    0    0  0.58646505870E+02 -0.19265642447E+02 -0.16570966802E+03  0.19491348669E+03  0.81981678371E+02 0.  0.
          5    1    1    2  502    0 -0.98064163492E+02 -0.16891204601E+02 -0.10860339606E+03  0.14737259104E+03  0.47000000000E+01 0. -1.
         -5    1    1    2    0  502  0.39417657622E+02  0.36156847048E+02 -0.79829790013E+02  0.96207872310E+02  0.47000000000E+01 0.  1.
        -11    1    3    3    0    0 -0.98460311736E+01 -0.21848275131E+01  0.41988559950E+01  0.10924659848E+02  0.00000000000E+00 0.  1.
         11    1    3    3    0    0  0.68492537044E+02 -0.17080814934E+02 -0.16990852402E+03  0.18398882684E+03  0.00000000000E+00 0. -1.
<mgrwt>
<rscale>  0 0.25857259E+03</rscale>
<asrwt>0</asrwt>
<pdfrwt beam="2">  1        1 0.60972063E-01 0.25857259E+03</pdfrwt>
<pdfrwt beam="1">  1       -1 0.64885457E-02 0.25857259E+03</pdfrwt>
<totfact> 0.72069452E+03</totfact>
</mgrwt>
</event>
<event>
 7    1  0.1422977E-005  0.6313536E+03  0.7546771E-02  0.1045014E+00
         -1   -1    0    0    0  501 -0.00000000000E+00  0.00000000000E+00  0.61327554292E+02  0.61327554292E+02  0.00000000000E+00 0.  1.
          1   -1    0    0  501    0  0.00000000000E+00 -0.00000000000E+00 -0.27552254190E+04  0.27552254190E+04  0.00000000000E+00 0. -1.
         23    2    1    2    0    0 -0.28735836732E+02 -0.16923931641E+02 -0.77537184917E+02  0.12509416120E+03  0.92327495077E+02 0.  0.
          5    1    1    2  502    0  0.26964935757E+03  0.16794390418E+03 -0.17784971172E+04  0.18066516037E+04  0.47000000000E+01 0. -1.
         -5    1    1    2    0  502 -0.24091352084E+03 -0.15101997254E+03 -0.83786356254E+03  0.88480720841E+03  0.47000000000E+01 0.  1.
        -11    1    3    3    0    0 -0.11834744650E+02 -0.35939484008E+02  0.55104930779E+01  0.38237066122E+02  0.00000000000E+00 0.  1.
         11    1    3    3    0    0 -0.16901092082E+02  0.19015552367E+02 -0.83047677995E+02  0.86857095080E+02  0.00000000000E+00 0. -1.
<mgrwt>
<rscale>  0 0.39645563E+03</rscale>
<asrwt>0</asrwt>
<pdfrwt beam="2">  1        1 0.42388090E+00 0.63135357E+03</pdfrwt>
<pdfrwt beam="1">  1       -1 0.94350068E-02 0.63135357E+03</pdfrwt>
<totfact> 0.66149638E+01</totfact>
</mgrwt>
</event>
<event>
 7    1  0.1422977E-005  0.1567558E+03  0.7546771E-02  0.1214509E+00
         -1   -1    0    0    0  501 -0.00000000000E+00  0.00000000000E+00  0.35815390226E+02  0.35815390226E+02  0.00000000000E+00 0.  1.
          1   -1    0    0  501    0  0.00000000000E+00 -0.00000000000E+00 -0.73251447444E+03  0.73251447444E+03  0.00000000000E+00 0. -1.
         23    2    1    2    0    0  0.35515392588E+02 -0.11725803141E+01 -0.63842487404E+02  0.11634837508E+03  0.90544812833E+02 0.  0.
          5    1    1    2  502    0 -0.54352396774E+02  0.35858220600E+02 -0.58972255381E+03  0.59332518528E+03  0.47000000000E+01 0. -1.
         -5    1    1    2    0  502  0.18837004187E+02 -0.34685640286E+02 -0.43134043005E+02  0.58656304305E+02  0.47000000000E+01 0.  1.
        -11    1    3    3    0    0  0.61924830442E+02 -0.17899991649E+02 -0.52356090540E+02  0.83043690566E+02  0.00000000000E+00 0.  1.
         11    1    3    3    0    0 -0.26409437854E+02  0.16727411335E+02 -0.11486396864E+02  0.33304684515E+02  0.00000000000E+00 0. -1.
<mgrwt>
<rscale>  0 0.13912667E+03</rscale>
<asrwt>0</asrwt>
<pdfrwt beam="2">  1        1 0.11269453E+00 0.15675583E+03</pdfrwt>
<pdfrwt beam="1">  1       -1 0.55100605E-02 0.15675583E+03</pdfrwt>
<totfact> 0.39252911E+03</totfact>
</mgrwt>
</event>
<event>
 7    1  0.1422977E-005  0.1417746E+03  0.7546771E-02  0.1223069E+00
          2   -1    0    0  501    0  0.00000000000E+00  0.00000000000E+00  0.78664623941E+03  0.78664623941E+03  0.00000000000E+00 0. -1.
         -2   -1    0    0    0  501 -0.00000000000E+00 -0.00000000000E+00 -0.20594400300E+02  0.20594400300E+02  0.00000000000E+00 0.  1.
         23    2    1    2    0    0  0.65214522488E+02  0.15007268275E+02  0.39659342118E+03  0.41151403051E+03  0.87059195592E+02 0.  0.
          5    1    1    2  502    0  0.29389343061E+02 -0.33461620827E+02  0.10226732951E+03  0.11164277961E+03  0.47000000000E+01 0. -1.
         -5    1    1    2    0  502 -0.94603865549E+02  0.18454352552E+02  0.26719108842E+03  0.28408382959E+03  0.47000000000E+01 0. -1.
        -11    1    3    3    0    0 -0.18310857955E+02  0.15572992568E+02  0.58292760606E+02  0.63054353979E+02  0.00000000000E+00 0.  1.
         11    1    3    3    0    0  0.83525380443E+02 -0.56572429273E+00  0.33830066058E+03  0.34845967653E+03  0.00000000000E+00 0. -1.
<mgrwt>
<rscale>  0 0.13300124E+03</rscale>
<asrwt>0</asrwt>
<pdfrwt beam="1">  1        2 0.12102247E+00 0.14177456E+03</pdfrwt>
<pdfrwt beam="2">  1       -2 0.31683699E-02 0.14177456E+03</pdfrwt>
<totfact> 0.13546896E+04</totfact>
</mgrwt>
</event>
<event>
 7    1  0.1422977E-005  0.1758402E+03  0.7546771E-02  0.1177838E+00
          2   -1    0    0  501    0  0.00000000000E+00  0.00000000000E+00  0.20305824571E+03  0.20305824571E+03  0.00000000000E+00 0. -1.
         -2   -1    0    0    0  501 -0.00000000000E+00 -0.00000000000E+00 -0.13505018720E+03  0.13505018720E+03  0.00000000000E+00 0.  1.
         23    2    1    2    0    0  0.22722734706E+02 -0.12157536463E+03  0.14640726429E+02  0.15434815444E+03  0.91170773553E+02 0.  0.
          5    1    1    2  502    0 -0.23411335077E+02  0.89894097101E+02  0.93852152216E+02  0.13213385554E+03  0.47000000000E+01 0. -1.
         -5    1    1    2    0  502  0.68860037080E+00  0.31681267531E+02 -0.40484820134E+02  0.51626422926E+02  0.47000000000E+01 0. -1.
        -11    1    3    3    0    0  0.21743938870E+02 -0.40202661172E+02  0.48106302768E+02  0.66357133821E+02  0.00000000000E+00 0. -1.
         11    1    3    3    0    0  0.97879583658E+00 -0.81372703460E+02 -0.33465576339E+02  0.87991020618E+02  0.00000000000E+00 0.  1.
<mgrwt>
<rscale>  0 0.17000954E+03</rscale>
<asrwt>0</asrwt>
<pdfrwt beam="1">  1        2 0.31239730E-01 0.17584018E+03</pdfrwt>
<pdfrwt beam="2">  1       -2 0.20776952E-01 0.17584018E+03</pdfrwt>
<totfact> 0.32233912E+03</totfact>
</mgrwt>
</event>
<event>
 7    1  0.1422977E-005  0.1900385E+03  0.7546771E-02  0.1163117E+00
          2   -1    0    0  501    0  0.00000000000E+00  0.00000000000E+00  0.30750739989E+03  0.30750739989E+03  0.00000000000E+00 0. -1.
         -2   -1    0    0    0  501 -0.00000000000E+00 -0.00000000000E+00 -0.11637075703E+03  0.11637075703E+03  0.00000000000E+00 0.  1.
         23    2    1    2    0    0  0.14027291342E+03 -0.28523110676E+02  0.26522780640E+02  0.17245751533E+03  0.92455819820E+02 0.  0.
          5    1    1    2  502    0 -0.55938851038E+02 -0.48813764730E+02  0.51676817772E+02  0.90578817489E+02  0.47000000000E+01 0.  1.
         -5    1    1    2    0  502 -0.84334062380E+02  0.77336875406E+02  0.11293704445E+03  0.16084182411E+03  0.47000000000E+01 0.  1.
        -11    1    3    3    0    0  0.26301035382E+02 -0.40619851055E+02  0.31494803917E+02  0.57737677782E+02  0.00000000000E+00 0. -1.
         11    1    3    3    0    0  0.11397187804E+03  0.12096740379E+02 -0.49720232769E+01  0.11471983754E+03  0.00000000000E+00 0.  1.
<mgrwt>
<rscale>  0 0.18492781E+03</rscale>
<asrwt>0</asrwt>
<pdfrwt beam="1">  1        2 0.47308830E-01 0.19003846E+03</pdfrwt>
<pdfrwt beam="2">  1       -2 0.17903194E-01 0.19003846E+03</pdfrwt>
<totfact> 0.26626213E+03</totfact>
</mgrwt>
</event>
<event>
 7    1  0.1422977E-005  0.1752528E+03  0.7546771E-02  0.1178334E+00
          1   -1    0    0  501    0  0.00000000000E+00  0.00000000000E+00  0.77062490949E+03  0.77062490949E+03  0.00000000000E+00 0. -1.
         -1   -1    0    0    0  501 -0.00000000000E+00 -0.00000000000E+00 -0.39427380240E+02  0.39427380240E+02  0.00000000000E+00 0.  1.
         23    2    1    2    0    0 -0.12102680158E+02 -0.12224553869E+03  0.20947405764E+03  0.25968066452E+03  0.92001196203E+02 0.  0.
          5    1    1    2  502    0  0.42899970939E+02  0.40002020323E+02  0.76333946222E+02  0.96382210404E+02  0.47000000000E+01 0.  1.
         -5    1    1    2    0  502 -0.30797290781E+02  0.82243518371E+02  0.44538952538E+03  0.45398941480E+03  0.47000000000E+01 0.  1.
        -11    1    3    3    0    0  0.16078356589E+02 -0.78687092901E+02  0.56626957965E+02  0.98268939692E+02  0.00000000000E+00 0. -1.
         11    1    3    3    0    0 -0.28181036747E+02 -0.43558445792E+02  0.15284709968E+03  0.16141172483E+03  0.00000000000E+00 0.  1.
<mgrwt>
<rscale>  0 0.16953460E+03</rscale>
<asrwt>0</asrwt>
<pdfrwt beam="1">  1        1 0.11855767E+00 0.17525280E+03</pdfrwt>
<pdfrwt beam="2">  1       -1 0.60657514E-02 0.17525280E+03</pdfrwt>
<totfact> 0.31659490E+03</totfact>
</mgrwt>
</event>
<event>
 7    1  0.1422977E-005  0.1678812E+03  0.7546771E-02  0.1199845E+00
          2   -1    0    0  501    0  0.00000000000E+00  0.00000000000E+00  0.38108623624E+03  0.38108623624E+03  0.00000000000E+00 0. -1.
         -2   -1    0    0    0  501 -0.00000000000E+00 -0.00000000000E+00 -0.70960311677E+02  0.70960311677E+02  0.00000000000E+00 0.  1.
         23    2    1    2    0    0  0.45690061135E+01 -0.59604485135E+02  0.10985204188E+02  0.10901698107E+03  0.90501143554E+02 0.  0.
          5    1    1    2  502    0  0.19405786292E+02  0.10997070725E+03  0.20569032345E+03  0.23409557910E+03  0.47000000000E+01 0. -1.
         -5    1    1    2    0  502 -0.23974792406E+02 -0.50366222117E+02  0.93450396930E+02  0.10893398775E+03  0.47000000000E+01 0.  1.
        -11    1    3    3    0    0 -0.42763252370E+02 -0.30517652654E+02  0.98426156638E+01  0.53449976238E+02  0.00000000000E+00 0.  1.
         11    1    3    3    0    0  0.47332258484E+02 -0.29086832481E+02  0.11425885244E+01  0.55567004827E+02  0.00000000000E+00 0. -1.
<mgrwt>
<rscale>  0 0.15051201E+03</rscale>
<asrwt>0</asrwt>
<pdfrwt beam="1">  1        2 0.58628651E-01 0.16788125E+03</pdfrwt>
<pdfrwt beam="2">  1       -2 0.10916971E-01 0.16788125E+03</pdfrwt>
<totfact> 0.47206030E+03</totfact>
</mgrwt>
</event>
<event>
 7    1  0.1422977E-005  0.1472860E+03  0.7546771E-02  0.1213390E+00
         -1   -1    0    0    0  501 -0.00000000000E+00  0.00000000000E+00  0.12330514285E+03  0.12330514285E+03  0.00000000000E+00 0.  1.
          1   -1    0    0  501    0  0.00000000000E+00 -0.00000000000E+00 -0.14905814708E+03  0.14905814708E+03  0.00000000000E+00 0. -1.
         23    2    1    2    0    0 -0.45176603014E+02  0.63468997660E+02  0.10936328928E+02  0.12057640128E+03  0.91377383036E+02 0.  0.
          5    1    1    2  502    0  0.70224106060E+02 -0.83543624441E+02 -0.98491484287E+01  0.10968162098E+03  0.47000000000E+01 0.  1.
         -5    1    1    2    0  502 -0.25047503046E+02  0.20074626781E+02 -0.26840184725E+02  0.42105267666E+02  0.47000000000E+01 0.  1.
        -11    1    3    3    0    0 -0.13494061597E+02  0.18280339472E+02 -0.39658116593E+02  0.45705871847E+02  0.00000000000E+00 0. -1.
         11    1    3    3    0    0 -0.31682541417E+02  0.45188658189E+02  0.50594445521E+02  0.74870529430E+02  0.00000000000E+00 0.  1.
<mgrwt>
<rscale>  0 0.13995491E+03</rscale>
<asrwt>0</asrwt>
<pdfrwt beam="2">  1        1 0.22932022E-01 0.14728595E+03</pdfrwt>
<pdfrwt beam="1">  1       -1 0.18970022E-01 0.14728595E+03</pdfrwt>
<totfact> 0.45236200E+03</totfact>
</mgrwt>
</event>
<event>
 7    1  0.1422977E-005  0.1616278E+03  0.7546771E-02  0.1194165E+00
         -2   -1    0    0    0  501 -0.00000000000E+00  0.00000000000E+00  0.18119432841E+03  0.18119432841E+03  0.00000000000E+00 0. -1.
          2   -1    0    0  501    0  0.00000000000E+00 -0.00000000000E+00 -0.12664657286E+03  0.12664657286E+03  0.00000000000E+00 0.  1.
         23    2    1    2    0    0 -0.86234011800E+02  0.55348711910E+02  0.49208665897E+02  0.14612492911E+03  0.91821660879E+02 0.  0.
          5    1    1    2  502    0  0.11598019588E+03 -0.29599551730E+02  0.15560288078E+02  0.12079632389E+03  0.47000000000E+01 0.  1.
         -5    1    1    2    0  502 -0.29746184082E+02 -0.25749160180E+02 -0.10221198423E+02  0.40919648271E+02  0.47000000000E+01 0.  1.
        -11    1    3    3    0    0 -0.52342910479E+02  0.79381222439E+02  0.42039139605E+02  0.10396368603E+03  0.00000000000E+00 0.  1.
         11    1    3    3    0    0 -0.33891101321E+02 -0.24032510529E+02  0.71695262928E+01  0.42161243083E+02  0.00000000000E+00 0. -1.
<mgrwt>
<rscale>  0 0.15525077E+03</rscale>
<asrwt>0</asrwt>
<pdfrwt beam="2">  1        2 0.19484088E-01 0.16162781E+03</pdfrwt>
<pdfrwt beam="1">  1       -2 0.27876050E-01 0.16162781E+03</pdfrwt>
<totfact> 0.32494244E+03</totfact>
</mgrwt>
</event>
<event>
 7    1  0.1422977E-005  0.1668134E+03  0.7546771E-02  0.1188390E+00
          1   -1    0    0  501    0  0.00000000000E+00  0.00000000000E+00  0.69119300410E+03  0.69119300410E+03  0.00000000000E+00 0. -1.
         -1   -1    0    0    0  501 -0.00000000000E+00 -0.00000000000E+00 -0.34870205088E+02  0.34870205088E+02  0.00000000000E+00 0.  1.
         23    2    1    2    0    0  0.11040230690E+03 -0.40457416586E+01  0.26626067178E+03  0.30182839874E+03  0.89446070668E+02 0.  0.
          5    1    1    2  502    0 -0.12463288492E+03  0.56653360649E+01  0.38964124783E+03  0.40915503669E+03  0.47000000000E+01 0. -1.
         -5    1    1    2    0  502  0.14230578027E+02 -0.16195944063E+01  0.42087940097E+00  0.15079773754E+02  0.47000000000E+01 0. -1.
        -11    1    3    3    0    0  0.55293858508E+02 -0.26568253290E+02  0.55174306772E+02  0.82507496625E+02  0.00000000000E+00 0. -1.
         11    1    3    3    0    0  0.55108448390E+02  0.22522511631E+02  0.21108636501E+03  0.21932090212E+03  0.00000000000E+00 0.  1.
<mgrwt>
<rscale>  0 0.16027186E+03</rscale>
<asrwt>0</asrwt>
<pdfrwt beam="1">  1        1 0.10633738E+00 0.16681340E+03</pdfrwt>
<pdfrwt beam="2">  1       -1 0.53646474E-02 0.16681340E+03</pdfrwt>
<totfact> 0.44535781E+03</totfact>
</mgrwt>
</event>
<event>
 7    1  0.1422977E-005  0.1229236E+03  0.7546771E-02  0.1251821E+00
          2   -1    0    0  501    0  0.00000000000E+00  0.00000000000E+00  0.22393587600E+03  0.22393587600E+03  0.00000000000E+00 0. -1.
         -2   -1    0    0    0  501 -0.00000000000E+00 -0.00000000000E+00 -0.17723897836E+03  0.17723897836E+03  0.00000000000E+00 0.  1.
         23    2    1    2    0    0 -0.25834818993E+02  0.35012503222E+01 -0.14547709417E+03  0.17304977191E+03  0.90016342975E+02 0.  0.
          5    1    1    2  502    0  0.63355722762E+02  0.26973255278E+02  0.14416886598E+03  0.15983821829E+03  0.47000000000E+01 0. -1.
         -5    1    1    2    0  502 -0.37520903768E+02 -0.30474505600E+02  0.48005125829E+02  0.68286864162E+02  0.47000000000E+01 0.  1.
        -11    1    3    3    0    0  0.11728139927E+02 -0.24534209360E+02 -0.11249931110E+03  0.11573924008E+03  0.00000000000E+00 0.  1.
         11    1    3    3    0    0 -0.37562958921E+02  0.28035459682E+02 -0.32977783065E+02  0.57310531827E+02  0.00000000000E+00 0. -1.
<mgrwt>
<rscale>  0 0.11486284E+03</rscale>
<asrwt>0</asrwt>
<pdfrwt beam="1">  1        2 0.34451673E-01 0.12292359E+03</pdfrwt>
<pdfrwt beam="2">  1       -2 0.27267535E-01 0.12292359E+03</pdfrwt>
<totfact> 0.17817612E+03</totfact>
</mgrwt>
</event>
<event>
 7    1  0.1422977E-005  0.1450420E+03  0.7546771E-02  0.1217109E+00
         -1   -1    0    0    0  501 -0.00000000000E+00  0.00000000000E+00  0.20531440437E+02  0.20531440437E+02  0.00000000000E+00 0.  1.
          1   -1    0    0  501    0  0.00000000000E+00 -0.00000000000E+00 -0.10204253939E+04  0.10204253939E+04  0.00000000000E+00 0. -1.
         23    2    1    2    0    0 -0.73549340530E+02  0.14242884614E+01 -0.23196849560E+03  0.25945398685E+03  0.89974742303E+02 0.  0.
          5    1    1    2  502    0  0.31755789625E+02 -0.43667434114E+02 -0.13064658507E+03  0.14144219726E+03  0.47000000000E+01 0. -1.
         -5    1    1    2    0  502  0.41793550905E+02  0.42243145653E+02 -0.63727887280E+03  0.64006065023E+03  0.47000000000E+01 0. -1.
        -11    1    3    3    0    0  0.65300059401E+01  0.21716744110E+02 -0.14737633596E+02  0.27045439474E+02  0.00000000000E+00 0.  1.
         11    1    3    3    0    0 -0.80079346470E+02 -0.20292455649E+02 -0.21723086200E+03  0.23240854738E+03  0.00000000000E+00 0. -1.
<mgrwt>
<rscale>  0 0.13722721E+03</rscale>
<asrwt>0</asrwt>
<pdfrwt beam="2">  1        1 0.15698855E+00 0.14504203E+03</pdfrwt>
<pdfrwt beam="1">  1       -1 0.31586825E-02 0.14504203E+03</pdfrwt>
<totfact> 0.52771000E+03</totfact>
</mgrwt>
</event>
<event>
 7    1  0.1422977E-005  0.1295902E+03  0.7546771E-02  0.1242070E+00
          1   -1    0    0  501    0  0.00000000000E+00  0.00000000000E+00  0.66773136933E+02  0.66773136933E+02  0.00000000000E+00 0. -1.
         -1   -1    0    0    0  501 -0.00000000000E+00 -0.00000000000E+00 -0.20976617499E+03  0.20976617499E+03  0.00000000000E+00 0.  1.
         23    2    1    2    0    0 -0.11496845595E+02  0.32186644625E+02 -0.10120546088E+03  0.14037833778E+03  0.91078948472E+02 0.  0.
          5    1    1    2  502    0  0.32225329439E+02  0.34048613602E+02 -0.46812843986E+02  0.66417710799E+02  0.47000000000E+01 0. -1.
         -5    1    1    2    0  502 -0.20728483844E+02 -0.66235258227E+02  0.50252668144E+01  0.69743263341E+02  0.47000000000E+01 0. -1.
        -11    1    3    3    0    0 -0.39313566622E+02  0.58125211281E+01 -0.93059610939E+02  0.10119008405E+03  0.00000000000E+00 0.  1.
         11    1    3    3    0    0  0.27816721027E+02  0.26374123497E+02 -0.81458499420E+01  0.39188253727E+02  0.00000000000E+00 0. -1.
<mgrwt>
<rscale>  0 0.12062454E+03</rscale>
<asrwt>0</asrwt>
<pdfrwt beam="1">  1        1 0.10272790E-01 0.12959016E+03</pdfrwt>
<pdfrwt beam="2">  1       -1 0.32271719E-01 0.12959016E+03</pdfrwt>
<totfact> 0.52928292E+03</totfact>
</mgrwt>
</event>
<event>
 7    1  0.1422977E-005  0.2230554E+03  0.7546771E-02  0.1131625E+00
         -3   -1    0    0    0  501 -0.00000000000E+00  0.00000000000E+00  0.21108094018E+03  0.21108094018E+03  0.00000000000E+00 0.  1.
          3   -1    0    0  501    0  0.00000000000E+00 -0.00000000000E+00 -0.58927281882E+02  0.58927281882E+02  0.00000000000E+00 0. -1.
         23    2    1    2    0    0 -0.18052644881E+02 -0.15959592297E+02  0.51370513078E+02  0.10764290486E+03  0.91473814724E+02 0.  0.
          5    1    1    2  502    0 -0.28555093922E+02 -0.39963196944E+02  0.19256767630E+02  0.52965683215E+02  0.47000000000E+01 0. -1.
         -5    1    1    2    0  502  0.46607738803E+02  0.55922789241E+02  0.81526377588E+02  0.10939963398E+03  0.47000000000E+01 0. -1.
        -11    1    3    3    0    0 -0.31924954980E+01 -0.17881544461E+02  0.76368042823E+02  0.78498532626E+02  0.00000000000E+00 0.  1.
         11    1    3    3    0    0 -0.14860149383E+02  0.19219521640E+01 -0.24997529745E+02  0.29144372238E+02  0.00000000000E+00 0. -1.
<mgrwt>
<rscale>  0 0.22305538E+03</rscale>
<asrwt>0</asrwt>
<pdfrwt beam="2">  1        3 0.90657357E-02 0.22305538E+03</pdfrwt>
<pdfrwt beam="1">  1       -3 0.32473991E-01 0.22305538E+03</pdfrwt>
<totfact> 0.19933960E+03</totfact>
</mgrwt>
</event>
<event>
 7    1  0.1422977E-005  0.1375932E+03  0.7546771E-02  0.1228479E+00
         -1   -1    0    0    0  501 -0.00000000000E+00  0.00000000000E+00  0.88412518458E+02  0.88412518458E+02  0.00000000000E+00 0.  1.
          1   -1    0    0  501    0  0.00000000000E+00 -0.00000000000E+00 -0.18719891943E+03  0.18719891943E+03  0.00000000000E+00 0. -1.
         23    2    1    2    0    0  0.42779607627E+02 -0.38420515438E+02 -0.19545481643E+01  0.10736074223E+03  0.90643686374E+02 0.  0.
          5    1    1    2  502    0 -0.47494695898E+02  0.11637693989E+02  0.16333127927E+02  0.51769132962E+02  0.47000000000E+01 0.  1.
         -5    1    1    2    0  502  0.47150882701E+01  0.26782821449E+02 -0.11316498073E+03  0.11648156269E+03  0.47000000000E+01 0.  1.
        -11    1    3    3    0    0  0.34198154472E+02  0.25546548690E+02  0.16673050543E+01  0.42719080343E+02  0.00000000000E+00 0.  1.
         11    1    3    3    0    0  0.85814531557E+01 -0.63967064128E+02 -0.36218532187E+01  0.64641661892E+02  0.00000000000E+00 0. -1.
<mgrwt>
<rscale>  0 0.12931268E+03</rscale>
<asrwt>0</asrwt>
<pdfrwt beam="2">  1        1 0.28799834E-01 0.13759320E+03</pdfrwt>
<pdfrwt beam="1">  1       -1 0.13601926E-01 0.13759320E+03</pdfrwt>
<totfact> 0.57206910E+03</totfact>
</mgrwt>
</event>
<event>
 7    1  0.1422977E-005  0.1283979E+03  0.7546771E-02  0.1243791E+00
          1   -1    0    0  501    0  0.00000000000E+00  0.00000000000E+00  0.36738460908E+03  0.36738460908E+03  0.00000000000E+00 0. -1.
         -1   -1    0    0    0  501 -0.00000000000E+00 -0.00000000000E+00 -0.15196742821E+03  0.15196742821E+03  0.00000000000E+00 0.  1.
         23    2    1    2    0    0  0.17042137635E+02 -0.31257443577E+02 -0.12358019499E+03  0.15685343662E+03  0.89796847105E+02 0.  0.
          5    1    1    2  502    0 -0.32523638147E+02  0.19818353432E+02  0.34047326151E+03  0.34262907929E+03  0.47000000000E+01 0. -1.
         -5    1    1    2    0  502  0.15481500512E+02  0.11439090145E+02 -0.14758856448E+01  0.19869521381E+02  0.47000000000E+01 0.  1.
        -11    1    3    3    0    0  0.12755975276E+02  0.13553354074E+02  0.60970100377E+01  0.19585245551E+02  0.00000000000E+00 0. -1.
         11    1    3    3    0    0  0.42861623584E+01 -0.44810797651E+02 -0.12967720503E+03  0.13726819107E+03  0.00000000000E+00 0.  1.
<mgrwt>
<rscale>  0 0.11958013E+03</rscale>
<asrwt>0</asrwt>
<pdfrwt beam="1">  1        1 0.56520709E-01 0.12839788E+03</pdfrwt>
<pdfrwt beam="2">  1       -1 0.23379604E-01 0.12839788E+03</pdfrwt>
<totfact> 0.10457013E+03</totfact>
</mgrwt>
</event>
<event>
 7    1  0.1422977E-005  0.1580237E+03  0.7546771E-02  0.1197720E+00
         -2   -1    0    0    0  501 -0.00000000000E+00  0.00000000000E+00  0.32607362153E+02  0.32607362153E+02  0.00000000000E+00 0.  1.
          2   -1    0    0  501    0  0.00000000000E+00 -0.00000000000E+00 -0.10622417020E+04  0.10622417020E+04  0.00000000000E+00 0. -1.
         23    2    1    2    0    0 -0.10501355222E+02 -0.96103913602E+02 -0.15625044383E+03  0.20728446868E+03  0.95950034326E+02 0.  0.
          5    1    1    2  502    0  0.51159689497E+02  0.31622892378E+02 -0.17685836946E+03  0.18686437328E+03  0.47000000000E+01 0.  1.
         -5    1    1    2    0  502 -0.40658334275E+02  0.64481021224E+02 -0.69652552660E+03  0.70070022224E+03  0.47000000000E+01 0.  1.
        -11    1    3    3    0    0  0.24825407881E+02 -0.45638049244E+02 -0.16420179612E+02  0.54486280051E+02  0.00000000000E+00 0.  1.
         11    1    3    3    0    0 -0.35326763103E+02 -0.50465864358E+02 -0.13983026422E+03  0.15279818863E+03  0.00000000000E+00 0. -1.
<mgrwt>
<rscale>  0 0.15226229E+03</rscale>
<asrwt>0</asrwt>
<pdfrwt beam="2">  1        2 0.16342181E+00 0.15802367E+03</pdfrwt>
<pdfrwt beam="1">  1       -2 0.50165169E-02 0.15802367E+03</pdfrwt>
<totfact> 0.46119688E+03</totfact>
</mgrwt>
</event>
<event>
 7    1  0.1422977E-005  0.2528742E+03  0.7546771E-02  0.1114115E+00
          2   -1    0    0  501    0  0.00000000000E+00  0.00000000000E+00  0.73122798365E+03  0.73122798365E+03  0.00000000000E+00 0. -1.
         -2   -1    0    0    0  501 -0.00000000000E+00 -0.00000000000E+00 -0.82074718520E+02  0.82074718520E+02  0.00000000000E+00 0.  1.
         23    2    1    2    0    0  0.17776919452E+03 -0.12929265268E+03  0.29716556949E+03  0.37989679457E+03  0.87725265892E+02 0.  0.
          5    1    1    2  502    0 -0.22318785601E+02  0.54365651117E+02  0.18127983265E+03  0.19062586377E+03  0.47000000000E+01 0. -1.
         -5    1    1    2    0  502 -0.15545040892E+03  0.74927001560E+02  0.17070786300E+03  0.24278004384E+03  0.47000000000E+01 0. -1.
        -11    1    3    3    0    0  0.95101206619E+02 -0.83643351533E+02  0.10031201582E+03  0.16156407483E+03  0.00000000000E+00 0.  1.
         11    1    3    3    0    0  0.82667987903E+02 -0.45649301143E+02  0.19685355366E+03  0.21833271974E+03  0.00000000000E+00 0. -1.
<mgrwt>
<rscale>  0 0.24872281E+03</rscale>
<asrwt>0</asrwt>
<pdfrwt beam="1">  1        2 0.11249661E+00 0.25287416E+03</pdfrwt>
<pdfrwt beam="2">  1       -2 0.12626880E-01 0.25287416E+03</pdfrwt>
<totfact> 0.18053411E+03</totfact>
</mgrwt>
</event>
<event>
 7    1  0.1422977E-005  0.1265487E+03  0.7546771E-02  0.1247604E+00
         -1   -1    0    0    0  501 -0.00000000000E+00  0.00000000000E+00  0.67468411903E+02  0.67468411903E+02  0.00000000000E+00 0.  1.
          1   -1    0    0  501    0  0.00000000000E+00 -0.00000000000E+00 -0.18253239637E+03  0.18253239637E+03  0.00000000000E+00 0. -1.
         23    2    1    2    0    0 -0.72615243504E+01 -0.18162440829E+02 -0.32655713030E+02  0.98985225500E+02  0.91373274436E+02 0.  0.
          5    1    1    2  502    0  0.29825100770E+01 -0.10655458420E+02  0.31305782977E+02  0.33534701554E+02  0.47000000000E+01 0. -1.
         -5    1    1    2    0  502  0.42790142734E+01  0.28817899249E+02 -0.11371405441E+03  0.11748088121E+03  0.47000000000E+01 0. -1.
        -11    1    3    3    0    0 -0.35713615049E+02  0.23447742174E+02 -0.19021978509E+02  0.46766383004E+02  0.00000000000E+00 0. -1.
         11    1    3    3    0    0  0.28452090698E+02 -0.41610183003E+02 -0.13633734521E+02  0.52218842496E+02  0.00000000000E+00 0.  1.
<mgrwt>
<rscale>  0 0.11730880E+03</rscale>
<asrwt>0</asrwt>
<pdfrwt beam="2">  1        1 0.28081907E-01 0.12654874E+03</pdfrwt>
<pdfrwt beam="1">  1       -1 0.10379756E-01 0.12654874E+03</pdfrwt>
<totfact> 0.89016073E+03</totfact>
</mgrwt>
</event>
<event>
 6    1  0.1422977E-005  0.6182843E+03  0.7546771E-02  0.9868182E-01
          1   -1    0    0  501    0  0.00000000000E+00  0.00000000000E+00  0.14575132667E+04  0.14575132667E+04  0.00000000000E+00 0. -1.
         -1   -1    0    0    0  501 -0.00000000000E+00 -0.00000000000E+00 -0.65569818296E+02  0.65569818296E+02  0.00000000000E+00 0.  1.
          5    1    1    2  502    0 -0.14893768353E+03  0.12326934355E+03  0.84096303744E+03  0.86291290694E+03  0.47000000000E+01 0. -1.
         -5    1    1    2    0  502 -0.45107283132E+02  0.37638308833E+02  0.75552365848E+02  0.95820453290E+02  0.47000000000E+01 0. -1.
        -11    1    1    2    0    0  0.12376418377E+03 -0.17526228431E+03  0.25890091653E+03  0.33625009452E+03  0.00000000000E+00 0.  1.
         11    1    1    2    0    0  0.70280782895E+02  0.14354631930E+02  0.21652712862E+03  0.22809963027E+03  0.00000000000E+00 0. -1.
<mgrwt>
<rscale>  0 0.61828434E+03</rscale>
<asrwt>0</asrwt>
<pdfrwt beam="1">  1        1 0.22423279E+00 0.61828434E+03</pdfrwt>
<pdfrwt beam="2">  1       -1 0.10087665E-01 0.61828434E+03</pdfrwt>
<totfact> 0.44650940E+02</totfact>
</mgrwt>
</event>
<event>
 6    1  0.1422977E-005  0.1371872E+03  0.7546771E-02  0.1218161E+00
         -1   -1    0    0    0  501 -0.00000000000E+00  0.00000000000E+00  0.53050578761E+03  0.53050578761E+03  0.00000000000E+00 0.  1.
          1   -1    0    0  501    0  0.00000000000E+00 -0.00000000000E+00 -0.41430202801E+02  0.41430202801E+02  0.00000000000E+00 0. -1.
          5    1    1    2  502    0 -0.71330904973E+02 -0.43769800196E+02  0.95511514447E+02  0.12707648408E+03  0.47000000000E+01 0.  1.
         -5    1    1    2    0  502  0.48313198746E+02  0.12413326296E+00  0.31989933568E+02  0.58134554542E+02  0.47000000000E+01 0.  1.
        -11    1    1    2    0    0  0.12914171170E+02 -0.44951379390E+02  0.15014835610E+03  0.15726389022E+03  0.00000000000E+00 0.  1.
         11    1    1    2    0    0  0.10103535057E+02  0.88597046324E+02  0.21142578069E+03  0.22946106157E+03  0.00000000000E+00 0. -1.
<mgrwt>
<rscale>  0 0.13646912E+03</rscale>
<asrwt>0</asrwt>
<pdfrwt beam="2">  1        1 0.63738777E-02 0.13718721E+03</pdfrwt>
<pdfrwt beam="1">  1       -1 0.81616270E-01 0.13718721E+03</pdfrwt>
<totfact> 0.18105291E+03</totfact>
</mgrwt>
</event>
<event>
 7    1  0.1422977E-005  0.1307112E+03  0.7546771E-02  0.1241285E+00
         -2   -1    0    0    0  501 -0.00000000000E+00  0.00000000000E+00  0.37881858895E+02  0.37881858895E+02  0.00000000000E+00 0.  1.
          2   -1    0    0  501    0  0.00000000000E+00 -0.00000000000E+00 -0.36532576621E+03  0.36532576621E+03  0.00000000000E+00 0. -1.
         23    2    1    2    0    0  0.32598796074E+01  0.38126735530E+02 -0.88276378722E+02  0.13065206618E+03  0.88390998294E+02 0.  0.
          5    1    1    2  502    0  0.35825729624E+02  0.54675116388E+01 -0.19671786691E+03  0.20008344696E+03  0.47000000000E+01 0.  1.
         -5    1    1    2    0  502 -0.39085609232E+02 -0.43594247169E+02 -0.42449661678E+02  0.72472111959E+02  0.47000000000E+01 0.  1.
        -11    1    3    3    0    0 -0.32323952894E+02  0.47282929922E+02 -0.67186379016E+02  0.88286595347E+02  0.00000000000E+00 0.  1.
         11    1    3    3    0    0  0.35583832501E+02 -0.91561943918E+01 -0.21089999705E+02  0.42365470832E+02  0.00000000000E+00 0. -1.
<mgrwt>
<rscale>  0 0.12110499E+03</rscale>
<asrwt>0</asrwt>
<pdfrwt beam="2">  1        2 0.56203965E-01 0.13071123E+03</pdfrwt>
<pdfrwt beam="1">  1       -2 0.58279782E-02 0.13071123E+03</pdfrwt>
<totfact> 0.12846713E+04</totfact>
</mgrwt>
</event>
<event>
 7    1  0.1422977E-005  0.1306764E+03  0.7546771E-02  0.1240257E+00
         -2   -1    0    0    0  501 -0.00000000000E+00  0.00000000000E+00  0.34200492717E+02  0.34200492717E+02  0.00000000000E+00 0.  1.
          2   -1    0    0  501    0  0.00000000000E+00 -0.00000000000E+00 -0.38369847688E+03  0.38369847688E+03  0.00000000000E+00 0. -1.
         23    2    1    2    0    0 -0.79784077391E+01  0.37253697184E+02 -0.14872154178E+03  0.17834209430E+03  0.90754133041E+02 0.  0.
          5    1    1    2  502    0 -0.21413846478E+01  0.33406754743E+02 -0.91601758648E+01  0.35022787047E+02  0.47000000000E+01 0. -1.
         -5    1    1    2    0  502  0.10119792387E+02 -0.70660451926E+02 -0.19161626651E+03  0.20453408825E+03  0.47000000000E+01 0. -1.
        -11    1    3    3    0    0  0.36708473907E+02  0.87954566551E+01 -0.97912251567E+02  0.10493655760E+03  0.00000000000E+00 0. -1.
         11    1    3    3    0    0 -0.44686881647E+02  0.28458240528E+02 -0.50809290217E+02  0.73405536696E+02  0.00000000000E+00 0.  1.
<mgrwt>
<rscale>  0 0.12173796E+03</rscale>
<asrwt>0</asrwt>
<pdfrwt beam="2">  1        2 0.59030538E-01 0.13067638E+03</pdfrwt>
<pdfrwt beam="1">  1       -2 0.52616140E-02 0.13067638E+03</pdfrwt>
<totfact> 0.14225807E+04</totfact>
</mgrwt>
</event>
<event>
 7    1  0.1422977E-005  0.1895541E+03  0.7546771E-02  0.1163898E+00
          2   -1    0    0  501    0  0.00000000000E+00  0.00000000000E+00  0.28355529947E+03  0.28355529947E+03  0.00000000000E+00 0. -1.
         -2   -1    0    0    0  501 -0.00000000000E+00 -0.00000000000E+00 -0.13543211114E+03  0.13543211114E+03  0.00000000000E+00 0.  1.
         23    2    1    2    0    0 -0.13056098757E+03  0.57022647867E+02 -0.14456741020E+02  0.16926155049E+03  0.90237028252E+02 0.  0.
          5    1    1    2  502    0  0.33468028721E+00 -0.13185182744E+02 -0.17974182806E+02  0.22784255582E+02  0.47000000000E+01 0. -1.
         -5    1    1    2    0  502  0.13022630728E+03 -0.43837465123E+02  0.18055411216E+03  0.22694160455E+03  0.47000000000E+01 0. -1.
        -11    1    3    3    0    0 -0.59368316362E+02  0.36522443785E+02 -0.51275625159E+02  0.86531356300E+02  0.00000000000E+00 0.  1.
         11    1    3    3    0    0 -0.71192671206E+02  0.20500204083E+02  0.36818884140E+02  0.82730194187E+02  0.00000000000E+00 0. -1.
<mgrwt>
<rscale>  0 0.18409503E+03</rscale>
<asrwt>0</asrwt>
<pdfrwt beam="1">  1        2 0.43623892E-01 0.18955414E+03</pdfrwt>
<pdfrwt beam="2">  1       -2 0.20835709E-01 0.18955414E+03</pdfrwt>
<totfact> 0.22448301E+03</totfact>
</mgrwt>
</event>
<event>
 7    1  0.1422977E-005  0.2112512E+03  0.7546771E-02  0.1144272E+00
         -2   -1    0    0    0  501 -0.00000000000E+00  0.00000000000E+00  0.35506935570E+03  0.35506935570E+03  0.00000000000E+00 0. -1.
          2   -1    0    0  501    0  0.00000000000E+00 -0.00000000000E+00 -0.12975475663E+03  0.12975475663E+03  0.00000000000E+00 0.  1.
         23    2    1    2    0    0  0.75529797632E+02 -0.15262769721E+03  0.18921946267E+03  0.27051146809E+03  0.91501284299E+02 0.  0.
          5    1    1    2  502    0  0.39737824971E+01 -0.12711305601E+02  0.27114611559E+02  0.30572216102E+02  0.47000000000E+01 0.  1.
         -5    1    1    2    0  502 -0.79503580129E+02  0.16533900281E+03  0.89805248463E+01  0.18374042814E+03  0.47000000000E+01 0.  1.
        -11    1    3    3    0    0  0.64622585496E+02 -0.96781176352E+02  0.63629821549E+02  0.13263268392E+03  0.00000000000E+00 0.  1.
         11    1    3    3    0    0  0.10907212137E+02 -0.55846520862E+02  0.12558964112E+03  0.13787878417E+03  0.00000000000E+00 0. -1.
<mgrwt>
<rscale>  0 0.20661805E+03</rscale>
<asrwt>0</asrwt>
<pdfrwt beam="2">  1        2 0.19962270E-01 0.21125116E+03</pdfrwt>
<pdfrwt beam="1">  1       -2 0.54626054E-01 0.21125116E+03</pdfrwt>
<totfact> 0.88938102E+02</totfact>
</mgrwt>
</event>
<event>
 7    1  0.1422977E-005  0.1274827E+03  0.7546771E-02  0.1243893E+00
         -2   -1    0    0    0  501 -0.00000000000E+00  0.00000000000E+00  0.36419479129E+02  0.36419479129E+02  0.00000000000E+00 0.  1.
          2   -1    0    0  501    0  0.00000000000E+00 -0.00000000000E+00 -0.42584732534E+03  0.42584732534E+03  0.00000000000E+00 0. -1.
         23    2    1    2    0    0  0.23716259551E+02 -0.80690082221E+01 -0.77601082268E+02  0.12538735797E+03  0.95249628388E+02 0.  0.
          5    1    1    2  502    0  0.44089007560E+02  0.26579412009E+02 -0.86212096776E+02  0.10052323792E+03  0.47000000000E+01 0. -1.
         -5    1    1    2    0  502 -0.67805267111E+02 -0.18510403787E+02 -0.22561466717E+03  0.23635620859E+03  0.47000000000E+01 0. -1.
        -11    1    3    3    0    0  0.40435219456E+02  0.33156495862E+02 -0.30222784049E+02  0.60396828278E+02  0.00000000000E+00 0.  1.
         11    1    3    3    0    0 -0.16718959905E+02 -0.41225504084E+02 -0.47378298218E+02  0.64990529690E+02  0.00000000000E+00 0. -1.
<mgrwt>
<rscale>  0 0.11951851E+03</rscale>
<asrwt>0</asrwt>
<pdfrwt beam="2">  1        2 0.65514976E-01 0.12748267E+03</pdfrwt>
<pdfrwt beam="1">  1       -2 0.56029966E-02 0.12748267E+03</pdfrwt>
<totfact> 0.11554769E+04</totfact>
</mgrwt>
</event>
<event>
 7    1  0.1422977E-005  0.1643443E+03  0.7546771E-02  0.1192766E+00
         -3   -1    0    0    0  501 -0.00000000000E+00  0.00000000000E+00  0.72950212262E+02  0.72950212262E+02  0.00000000000E+00 0.  1.
          3   -1    0    0  501    0  0.00000000000E+00 -0.00000000000E+00 -0.37146574895E+03  0.37146574895E+03  0.00000000000E+00 0. -1.
         23    2    1    2    0    0  0.98459254276E+02 -0.41111393887E+02 -0.44955387793E+02  0.14225407561E+03  0.82649039166E+02 0.  0.
          5    1    1    2  502    0 -0.17499858065E+01 -0.17259325281E+01 -0.16228859410E+03  0.16237524155E+03  0.47000000000E+01 0. -1.
         -5    1    1    2    0  502 -0.96709268470E+02  0.42837326415E+02 -0.91271554804E+02  0.13978664406E+03  0.47000000000E+01 0. -1.
        -11    1    3    3    0    0  0.51900406003E+02 -0.12948139819E+02  0.20366601209E+02  0.57237268566E+02  0.00000000000E+00 0.  1.
         11    1    3    3    0    0  0.46558848273E+02 -0.28163254068E+02 -0.65321989002E+02  0.85016807041E+02  0.00000000000E+00 0. -1.
<mgrwt>
<rscale>  0 0.15644813E+03</rscale>
<asrwt>0</asrwt>
<pdfrwt beam="2">  1        3 0.57148577E-01 0.16434432E+03</pdfrwt>
<pdfrwt beam="1">  1       -3 0.11223110E-01 0.16434432E+03</pdfrwt>
<totfact> 0.44147789E+02</totfact>
</mgrwt>
</event>
<event>
 7    1  0.1422977E-005  0.2098364E+03  0.7546771E-02  0.1151797E+00
         -1   -1    0    0    0  501 -0.00000000000E+00  0.00000000000E+00  0.18344806770E+03  0.18344806770E+03  0.00000000000E+00 0.  1.
          1   -1    0    0  501    0  0.00000000000E+00 -0.00000000000E+00 -0.25516542372E+03  0.25516542372E+03  0.00000000000E+00 0. -1.
         23    2    1    2    0    0 -0.50438199686E+02  0.12753069776E+03  0.76392624166E+02  0.18177137532E+03  0.91634649554E+02 0.  0.
          5    1    1    2  502    0 -0.19618797060E+02 -0.13646999709E+03 -0.11008949147E+03  0.17649573206E+03  0.47000000000E+01 0. -1.
         -5    1    1    2    0  502  0.70056996746E+02  0.89392993246E+01 -0.38020488720E+02  0.80346384038E+02  0.47000000000E+01 0.  1.
        -11    1    3    3    0    0 -0.63578015006E+02  0.85907389135E+02  0.17237309842E+02  0.10825603148E+03  0.00000000000E+00 0.  1.
         11    1    3    3    0    0  0.13139815320E+02  0.41623308627E+02  0.59155314324E+02  0.73515343844E+02  0.00000000000E+00 0. -1.
<mgrwt>
<rscale>  0 0.19757941E+03</rscale>
<asrwt>0</asrwt>
<pdfrwt beam="2">  1        1 0.39256219E-01 0.20983638E+03</pdfrwt>
<pdfrwt beam="1">  1       -1 0.28222780E-01 0.20983638E+03</pdfrwt>
<totfact> 0.12161461E+03</totfact>
</mgrwt>
</event>
<event>
 7    1  0.1422977E-005  0.1317838E+03  0.7546771E-02  0.1237176E+00
          2   -1    0    0  501    0  0.00000000000E+00  0.00000000000E+00  0.77919588047E+03  0.77919588047E+03  0.00000000000E+00 0. -1.
         -2   -1    0    0    0  501 -0.00000000000E+00 -0.00000000000E+00 -0.33920158396E+02  0.33920158396E+02  0.00000000000E+00 0.  1.
         23    2    1    2    0    0  0.41008879458E+02  0.77566346192E+01  0.67066975429E+02  0.12222236555E+03  0.93265394824E+02 0.  0.
          5    1    1    2  502    0  0.95066690505E+01  0.32697161037E+02  0.50101401337E+03  0.50219180867E+03  0.47000000000E+01 0. -1.
         -5    1    1    2    0  502 -0.50515548509E+02 -0.40453795656E+02  0.17719473327E+03  0.18870186465E+03  0.47000000000E+01 0. -1.
        -11    1    3    3    0    0  0.27617109795E+02  0.50067214989E+02  0.31041553189E+02  0.65061576946E+02  0.00000000000E+00 0. -1.
         11    1    3    3    0    0  0.13391769663E+02 -0.42310580370E+02  0.36025422240E+02  0.57160788602E+02  0.00000000000E+00 0.  1.
<mgrwt>
<rscale>  0 0.12366185E+03</rscale>
<asrwt>0</asrwt>
<pdfrwt beam="1">  1        2 0.11987628E+00 0.13178378E+03</pdfrwt>
<pdfrwt beam="2">  1       -2 0.52184865E-02 0.13178378E+03</pdfrwt>
<totfact> 0.64959800E+03</totfact>
</mgrwt>
</event>
<event>
 7    1  0.1422977E-005  0.5327413E+03  0.7546771E-02  0.1005569E+00
          1   -1    0    0  501    0  0.00000000000E+00  0.00000000000E+00  0.11084286697E+04  0.11084286697E+04  0.00000000000E+00 0. -1.
         -1   -1    0    0    0  501 -0.00000000000E+00 -0.00000000000E+00 -0.64012539612E+02  0.64012539612E+02  0.00000000000E+00 0.  1.
         23    2    1    2    0    0 -0.93786411627E+02 -0.12686741885E+02  0.18946600244E+03  0.23013556418E+03  0.90045362984E+02 0.  0.
          5    1    1    2  502    0  0.23831373056E+03  0.38750957489E+02  0.43708570690E+03  0.49936066731E+03  0.47000000000E+01 0. -1.
         -5    1    1    2    0  502 -0.14452731893E+03 -0.26064215604E+02  0.41786442077E+03  0.44294497784E+03  0.47000000000E+01 0.  1.
        -11    1    3    3    0    0 -0.51222698249E+02 -0.22973121362E+02  0.17536593544E+03  0.18413239919E+03  0.00000000000E+00 0. -1.
         11    1    3    3    0    0 -0.42563713378E+02  0.10286379476E+02  0.14100066999E+02  0.46003164985E+02  0.00000000000E+00 0.  1.
<mgrwt>
<rscale>  0 0.53274134E+03</rscale>
<asrwt>0</asrwt>
<pdfrwt beam="1">  1        1 0.17052747E+00 0.53274134E+03</pdfrwt>
<pdfrwt beam="2">  1       -1 0.98480838E-02 0.53274134E+03</pdfrwt>
<totfact> 0.82187114E+02</totfact>
</mgrwt>
</event>
<event>
 7    1  0.1422977E-005  0.1450480E+03  0.7546771E-02  0.1216266E+00
          3   -1    0    0  501    0  0.00000000000E+00  0.00000000000E+00  0.25334127846E+03  0.25334127846E+03  0.00000000000E+00 0. -1.
         -3   -1    0    0    0  501 -0.00000000000E+00 -0.00000000000E+00 -0.29881135243E+03  0.29881135243E+03  0.00000000000E+00 0.  1.
         23    2    1    2    0    0  0.73528789792E+02 -0.26676322385E+01 -0.26432908981E+03  0.28959179880E+03  0.92627981838E+02 0.  0.
          5    1    1    2  502    0 -0.49411640052E+02 -0.59253318340E+02  0.13376810757E+03  0.15449421513E+03  0.47000000000E+01 0.  1.
         -5    1    1    2    0  502 -0.24117149740E+02  0.61920950579E+02  0.85090908271E+02  0.10806661697E+03  0.47000000000E+01 0.  1.
        -11    1    3    3    0    0  0.32631875836E+02 -0.30228783735E+02 -0.39728043805E+02  0.59640054924E+02  0.00000000000E+00 0. -1.
         11    1    3    3    0    0  0.40896913955E+02  0.27561151496E+02 -0.22460104601E+03  0.22995174387E+03  0.00000000000E+00 0.  1.
<mgrwt>
<rscale>  0 0.13783984E+03</rscale>
<asrwt>0</asrwt>
<pdfrwt beam="1">  1        3 0.38975581E-01 0.14504800E+03</pdfrwt>
<pdfrwt beam="2">  1       -3 0.45970977E-01 0.14504800E+03</pdfrwt>
<totfact> 0.73252561E+01</totfact>
</mgrwt>
</event>
<event>
 7    1  0.1422977E-005  0.1337685E+03  0.7546771E-02  0.1234607E+00
         -1   -1    0    0    0  501 -0.00000000000E+00  0.00000000000E+00  0.13335950570E+02  0.13335950570E+02  0.00000000000E+00 0.  1.
          1   -1    0    0  501    0  0.00000000000E+00 -0.00000000000E+00 -0.16872529441E+04  0.16872529441E+04  0.00000000000E+00 0. -1.
         23    2    1    2    0    0  0.37290723990E+02  0.29623452562E+02 -0.24959614439E+03  0.27000023765E+03  0.91289353132E+02 0.  0.
          5    1    1    2  502    0 -0.79840509193E+02  0.24646155763E+01 -0.81003901000E+03  0.81398149178E+03  0.47000000000E+01 0. -1.
         -5    1    1    2    0  502  0.42549785203E+02 -0.32088068138E+02 -0.61428183912E+03  0.61660716522E+03  0.47000000000E+01 0. -1.
        -11    1    3    3    0    0  0.48773209774E+02 -0.10169696847E+01 -0.22169329880E+03  0.22699731045E+03  0.00000000000E+00 0. -1.
         11    1    3    3    0    0 -0.11482485784E+02  0.30640422247E+02 -0.27902845598E+02  0.43002927199E+02  0.00000000000E+00 0.  1.
<mgrwt>
<rscale>  0 0.12529635E+03</rscale>
<asrwt>0</asrwt>
<pdfrwt beam="2">  1        1 0.25957711E+00 0.13376855E+03</pdfrwt>
<pdfrwt beam="1">  1       -1 0.20516868E-02 0.13376855E+03</pdfrwt>
<totfact> 0.35259176E+03</totfact>
</mgrwt>
</event>
<event>
 7    1  0.1422977E-005  0.1318449E+03  0.7546771E-02  0.1238164E+00
         -1   -1    0    0    0  501 -0.00000000000E+00  0.00000000000E+00  0.13478014125E+03  0.13478014125E+03  0.00000000000E+00 0.  1.
          1   -1    0    0  501    0  0.00000000000E+00 -0.00000000000E+00 -0.10285859699E+03  0.10285859699E+03  0.00000000000E+00 0. -1.
         23    2    1    2    0    0 -0.32584652135E+02  0.12421737801E+02  0.34454540191E+02  0.10576954236E+03  0.93723111486E+02 0.  0.
          5    1    1    2  502    0  0.44896298546E+02 -0.32839660432E+02 -0.52294163492E+02  0.76491113573E+02  0.47000000000E+01 0. -1.
         -5    1    1    2    0  502 -0.12311646410E+02  0.20417922632E+02  0.49761167560E+02  0.55378082297E+02  0.47000000000E+01 0.  1.
        -11    1    3    3    0    0 -0.43679153584E+02 -0.25196959970E+02  0.42244741130E+02  0.65782774361E+02  0.00000000000E+00 0.  1.
         11    1    3    3    0    0  0.11094501449E+02  0.37618697771E+02 -0.77902009387E+01  0.39986767999E+02  0.00000000000E+00 0. -1.
<mgrwt>
<rscale>  0 0.12304043E+03</rscale>
<asrwt>0</asrwt>
<pdfrwt beam="2">  1        1 0.15824400E-01 0.13184487E+03</pdfrwt>
<pdfrwt beam="1">  1       -1 0.20735406E-01 0.13184487E+03</pdfrwt>
<totfact> 0.62520283E+03</totfact>
</mgrwt>
</event>
<event>
 7    1  0.1422977E-005  0.1757527E+03  0.7546771E-02  0.1173892E+00
         -2   -1    0    0    0  501 -0.00000000000E+00  0.00000000000E+00  0.95140096550E+03  0.95140096550E+03  0.00000000000E+00 0.  1.
          2   -1    0    0  501    0  0.00000000000E+00 -0.00000000000E+00 -0.31248059871E+02  0.31248059871E+02  0.00000000000E+00 0. -1.
         23    2    1    2    0    0  0.89111168616E+02 -0.85562149172E+02  0.48417512783E+03  0.51257920355E+03  0.11423748841E+03 0.  0.
          5    1    1    2  502    0 -0.52260235582E+02  0.50901558704E+02  0.72152503036E+02  0.10271404284E+03  0.47000000000E+01 0.  1.
         -5    1    1    2    0  502 -0.36850933034E+02  0.34660590468E+02  0.36382527477E+03  0.36735577899E+03  0.47000000000E+01 0.  1.
        -11    1    3    3    0    0  0.11085182599E+03 -0.55559454085E+02  0.42537661897E+03  0.44308040831E+03  0.00000000000E+00 0.  1.
         11    1    3    3    0    0 -0.21740657370E+02 -0.30002695088E+02  0.58798508860E+02  0.69498795239E+02  0.00000000000E+00 0. -1.
<mgrwt>
<rscale>  0 0.17384917E+03</rscale>
<asrwt>0</asrwt>
<pdfrwt beam="2">  1        2 0.48073945E-02 0.17575271E+03</pdfrwt>
<pdfrwt beam="1">  1       -2 0.14636936E+00 0.17575271E+03</pdfrwt>
<totfact> 0.55245695E+02</totfact>
</mgrwt>
</event>
<event>
 7    1  0.1422977E-005  0.2252010E+03  0.7546771E-02  0.1130064E+00
         -2   -1    0    0    0  501 -0.00000000000E+00  0.00000000000E+00  0.71246941999E+03  0.71246941999E+03  0.00000000000E+00 0.  1.
          2   -1    0    0  501    0  0.00000000000E+00 -0.00000000000E+00 -0.17795670696E+02  0.17795670696E+02  0.00000000000E+00 0. -1.
         23    2    1    2    0    0 -0.12277633278E+02 -0.21984136895E+02  0.35522246398E+03  0.36765410909E+03  0.91392026229E+02 0.  0.
          5    1    1    2  502    0  0.83252200223E+01 -0.50263325771E+02  0.18571092857E+03  0.19263008643E+03  0.47000000000E+01 0.  1.
         -5    1    1    2    0  502  0.39524132561E+01  0.72247462666E+02  0.15374035674E+03  0.16998089517E+03  0.47000000000E+01 0.  1.
        -11    1    3    3    0    0 -0.44643587958E+02 -0.36773892682E+02  0.18839770511E+03  0.19707629086E+03  0.00000000000E+00 0.  1.
         11    1    3    3    0    0  0.32365954680E+02  0.14789755787E+02  0.16682475887E+03  0.17057781823E+03  0.00000000000E+00 0. -1.
<mgrwt>
<rscale>  0 0.22520099E+03</rscale>
<asrwt>0</asrwt>
<pdfrwt beam="2">  1        2 0.27377960E-02 0.22520099E+03</pdfrwt>
<pdfrwt beam="1">  1       -2 0.10961066E+00 0.22520099E+03</pdfrwt>
<totfact> 0.24245900E+03</totfact>
</mgrwt>
</event>
<event>
 7    1  0.2761054E-005  0.3431463E+03  0.7546771E-02  0.1066640E+00
          2   -1    0    0  501    0  0.00000000000E+00  0.00000000000E+00  0.31014368751E+03  0.31014368751E+03  0.00000000000E+00 0. -1.
         -2   -1    0    0    0  501 -0.00000000000E+00 -0.00000000000E+00 -0.42230179395E+03  0.42230179395E+03  0.00000000000E+00 0.  1.
         23    2    1    2    0    0  0.14736607076E+03  0.28356241211E+03 -0.18706987173E+03  0.38121745606E+03  0.90593661588E+02 0.  0.
          5    1    1    2  502    0 -0.43550918284E+02 -0.54417187483E+02 -0.33236701228E+02  0.77360720560E+02  0.47000000000E+01 0. -1.
         -5    1    1    2    0  502 -0.10381515248E+03 -0.22914522463E+03  0.10814846651E+03  0.27386730484E+03  0.47000000000E+01 0. -1.
        -11    1    3    3    0    0  0.76401545876E+01  0.91013931338E+02 -0.29978694677E+02  0.96128194586E+02  0.00000000000E+00 0. -1.
         11    1    3    3    0    0  0.13972591618E+03  0.19254848077E+03 -0.15709117705E+03  0.28508926147E+03  0.00000000000E+00 0.  1.
<mgrwt>
<rscale>  0 0.34036661E+03</rscale>
<asrwt>0</asrwt>
<pdfrwt beam="1">  1        2 0.47714413E-01 0.34314626E+03</pdfrwt>
<pdfrwt beam="2">  1       -2 0.64969507E-01 0.34314626E+03</pdfrwt>
<totfact> 0.23668812E+02</totfact>
</mgrwt>
</event>
<event>
 7    1  0.1422977E-005  0.1492852E+03  0.7546771E-02  0.1214980E+00
         -2   -1    0    0    0  501 -0.00000000000E+00  0.00000000000E+00  0.18714503844E+03  0.18714503844E+03  0.00000000000E+00 0.  1.
          2   -1    0    0  501    0  0.00000000000E+00 -0.00000000000E+00 -0.92392612990E+02  0.92392612990E+02  0.00000000000E+00 0. -1.
         23    2    1    2    0    0 -0.67895427261E+02  0.45299566615E+02  0.58517232540E+02  0.12591778366E+03  0.75955131218E+02 0.  0.
          5    1    1    2  502    0  0.25610423085E+02  0.19303830400E+02 -0.35536083830E+02  0.48098179723E+02  0.47000000000E+01 0. -1.
         -5    1    1    2    0  502  0.42285004176E+02 -0.64603397015E+02  0.71771276737E+02  0.10552168805E+03  0.47000000000E+01 0. -1.
        -11    1    3    3    0    0 -0.63220128380E+02 -0.28486047197E-01  0.47390697591E+02  0.79010528804E+02  0.00000000000E+00 0. -1.
         11    1    3    3    0    0 -0.46752988814E+01  0.45328052662E+02  0.11126534949E+02  0.46907254852E+02  0.00000000000E+00 0.  1.
<mgrwt>
<rscale>  0 0.13877970E+03</rscale>
<asrwt>0</asrwt>
<pdfrwt beam="2">  1        2 0.14214248E-01 0.14928521E+03</pdfrwt>
<pdfrwt beam="1">  1       -2 0.28791544E-01 0.14928521E+03</pdfrwt>
<totfact> 0.44027049E+03</totfact>
</mgrwt>
</event>
<event>
 7    1  0.1422977E-005  0.1619953E+03  0.7546771E-02  0.1192644E+00
         -2   -1    0    0    0  501 -0.00000000000E+00  0.00000000000E+00  0.36674955826E+02  0.36674955826E+02  0.00000000000E+00 0.  1.
          2   -1    0    0  501    0  0.00000000000E+00 -0.00000000000E+00 -0.63495126810E+03  0.63495126810E+03  0.00000000000E+00 0. -1.
         23    2    1    2    0    0 -0.10302164834E+03 -0.20214148695E+01 -0.24159592371E+03  0.27988220485E+03  0.96684601125E+02 0.  0.
          5    1    1    2  502    0  0.44317221345E+02  0.54832587187E+02 -0.95178134676E+02  0.11853942823E+03  0.47000000000E+01 0. -1.
         -5    1    1    2    0  502  0.58704426991E+02 -0.52811172317E+02 -0.26150225389E+03  0.27320459084E+03  0.47000000000E+01 0. -1.
        -11    1    3    3    0    0  0.61118810487E+00  0.31048415716E+02 -0.71812755314E+02  0.78239692582E+02  0.00000000000E+00 0. -1.
         11    1    3    3    0    0 -0.10363283644E+03 -0.33069830586E+02 -0.16978316840E+03  0.20164251227E+03  0.00000000000E+00 0.  1.
<mgrwt>
<rscale>  0 0.15655312E+03</rscale>
<asrwt>0</asrwt>
<pdfrwt beam="2">  1        2 0.97684805E-01 0.16199530E+03</pdfrwt>
<pdfrwt beam="1">  1       -2 0.56423012E-02 0.16199530E+03</pdfrwt>
<totfact> 0.74513720E+03</totfact>
</mgrwt>
</event>
<event>
 7    1  0.1422977E-005  0.1620277E+03  0.7546771E-02  0.1195235E+00
         -1   -1    0    0    0  501 -0.00000000000E+00  0.00000000000E+00  0.13536018737E+03  0.13536018737E+03  0.00000000000E+00 0.  1.
          1   -1    0    0  501    0  0.00000000000E+00 -0.00000000000E+00 -0.16676225656E+03  0.16676225656E+03  0.00000000000E+00 0. -1.
         23    2    1    2    0    0  0.93358836302E+02  0.43719996793E+02  0.13223464764E+02  0.13406172112E+03  0.84678064532E+02 0.  0.
          5    1    1    2  502    0  0.13809100956E+02 -0.52362580856E+02 -0.17004499662E+02  0.56954140779E+02  0.47000000000E+01 0. -1.
         -5    1    1    2    0  502 -0.10716793726E+03  0.86425840627E+01 -0.27621034297E+02  0.11110658203E+03  0.47000000000E+01 0. -1.
        -11    1    3    3    0    0  0.26315085588E+02 -0.25777017835E+02  0.30449805856E+01  0.36962281920E+02  0.00000000000E+00 0.  1.
         11    1    3    3    0    0  0.67043750714E+02  0.69497014628E+02  0.10178484178E+02  0.97099439196E+02  0.00000000000E+00 0. -1.
<mgrwt>
<rscale>  0 0.15434314E+03</rscale>
<asrwt>0</asrwt>
<pdfrwt beam="2">  1        1 0.25655732E-01 0.16202768E+03</pdfrwt>
<pdfrwt beam="1">  1       -1 0.20824644E-01 0.16202768E+03</pdfrwt>
<totfact> 0.33959084E+03</totfact>
</mgrwt>
</event>
<event>
 7    1  0.1422977E-005  0.1370626E+03  0.7546771E-02  0.1236779E+00
          1   -1    0    0  501    0  0.00000000000E+00  0.00000000000E+00  0.17277939032E+03  0.17277939032E+03  0.00000000000E+00 0. -1.
         -1   -1    0    0    0  501 -0.00000000000E+00 -0.00000000000E+00 -0.26672346835E+03  0.26672346835E+03  0.00000000000E+00 0.  1.
         23    2    1    2    0    0  0.54276311557E+00 -0.89359391545E+01 -0.22927906347E+03  0.24688482099E+03  0.91121239508E+02 0.  0.
          5    1    1    2  502    0 -0.42817313771E+02  0.56141391282E+02  0.51961962393E+02  0.87791307710E+02  0.47000000000E+01 0. -1.
         -5    1    1    2    0  502  0.42274550656E+02 -0.47205452127E+02  0.83373023047E+02  0.10482672997E+03  0.47000000000E+01 0.  1.
        -11    1    3    3    0    0 -0.44374050479E+02  0.25095871043E+01 -0.12816978618E+03  0.13565709887E+03  0.00000000000E+00 0. -1.
         11    1    3    3    0    0  0.44916813595E+02 -0.11445526259E+02 -0.10110927729E+03  0.11122772212E+03  0.00000000000E+00 0.  1.
<mgrwt>
<rscale>  0 0.12391263E+03</rscale>
<asrwt>0</asrwt>
<pdfrwt beam="1">  1        1 0.26581445E-01 0.13706258E+03</pdfrwt>
<pdfrwt beam="2">  1       -1 0.41034380E-01 0.13706258E+03</pdfrwt>
<totfact> 0.10320356E+03</totfact>
</mgrwt>
</event>
<event>
 7    1  0.1422977E-005  0.1276760E+03  0.7546771E-02  0.1256331E+00
         -1   -1    0    0    0  501 -0.00000000000E+00  0.00000000000E+00  0.17980357690E+03  0.17980357690E+03  0.00000000000E+00 0.  1.
          1   -1    0    0  501    0  0.00000000000E+00 -0.00000000000E+00 -0.61343102692E+02  0.61343102692E+02  0.00000000000E+00 0. -1.
         23    2    1    2    0    0 -0.23456057840E+02  0.11173184597E+02  0.72703726458E+02  0.10551908230E+03  0.71926477641E+02 0.  0.
          5    1    1    2  502    0 -0.18246494403E+02 -0.33675724584E+02  0.71682035127E+02  0.81408802621E+02  0.47000000000E+01 0.  1.
         -5    1    1    2    0  502  0.41702552243E+02  0.22502539988E+02 -0.25925287378E+02  0.54218794667E+02  0.47000000000E+01 0.  1.
        -11    1    3    3    0    0  0.62979099720E+01  0.30596943825E+02  0.60250474984E+02  0.67867196622E+02  0.00000000000E+00 0.  1.
         11    1    3    3    0    0 -0.29753967812E+02 -0.19423759228E+02  0.12453251474E+02  0.37651885681E+02  0.00000000000E+00 0. -1.
<mgrwt>
<rscale>  0 0.11232128E+03</rscale>
<asrwt>0</asrwt>
<pdfrwt beam="2">  1        1 0.94374005E-02 0.12767602E+03</pdfrwt>
<pdfrwt beam="1">  1       -1 0.27662089E-01 0.12767602E+03</pdfrwt>
<totfact> 0.76602917E+03</totfact>
</mgrwt>
</event>
<event>
 7    1  0.1422977E-005  0.1741354E+03  0.7546771E-02  0.1179506E+00
          2   -1    0    0  501    0  0.00000000000E+00  0.00000000000E+00  0.71474989791E+03  0.71474989791E+03  0.00000000000E+00 0. -1.
         -2   -1    0    0    0  501 -0.00000000000E+00 -0.00000000000E+00 -0.43250106610E+02  0.43250106610E+02  0.00000000000E+00 0.  1.
         23    2    1    2    0    0  0.73159133135E+02 -0.96673853881E+02  0.17601575285E+03  0.23280712382E+03  0.92301239790E+02 0.  0.
          5    1    1    2  502    0  0.16595780539E+01 -0.17676673199E+02  0.10188542200E+02  0.21002746650E+02  0.47000000000E+01 0. -1.
         -5    1    1    2    0  502 -0.74818711189E+02  0.11435052708E+03  0.48529549625E+03  0.50419013404E+03  0.47000000000E+01 0. -1.
        -11    1    3    3    0    0 -0.13609133953E+02  0.49973067032E+01  0.38023397631E+02  0.40693492952E+02  0.00000000000E+00 0.  1.
         11    1    3    3    0    0  0.86768267088E+02 -0.10167116058E+03  0.13799235522E+03  0.19211363087E+03  0.00000000000E+00 0. -1.
<mgrwt>
<rscale>  0 0.16841953E+03</rscale>
<asrwt>0</asrwt>
<pdfrwt beam="1">  1        2 0.10996151E+00 0.17413538E+03</pdfrwt>
<pdfrwt beam="2">  1       -2 0.66538631E-02 0.17413538E+03</pdfrwt>
<totfact> 0.50526618E+03</totfact>
</mgrwt>
</event>
<event>
 7    1  0.1422977E-005  0.1406261E+03  0.7546771E-02  0.1223222E+00
         -1   -1    0    0    0  501 -0.00000000000E+00  0.00000000000E+00  0.29796542550E+03  0.29796542550E+03  0.00000000000E+00 0.  1.
          1   -1    0    0  501    0  0.00000000000E+00 -0.00000000000E+00 -0.80422948753E+02  0.80422948753E+02  0.00000000000E+00 0. -1.
         23    2    1    2    0    0 -0.33345786293E+02 -0.55123528681E+02  0.20937641695E+03  0.23752537328E+03  0.91811078290E+02 0.  0.
          5    1    1    2  502    0 -0.24792697142E+02 -0.24343524175E+02 -0.17231670458E+02  0.39067959603E+02  0.47000000000E+01 0. -1.
         -5    1    1    2    0  502  0.58138483435E+02  0.79467052855E+02  0.25397730249E+02  0.10179504137E+03  0.47000000000E+01 0. -1.
        -11    1    3    3    0    0 -0.16262231744E+02 -0.44089757241E+02  0.21188554148E+03  0.21703421289E+03  0.00000000000E+00 0.  1.
         11    1    3    3    0    0 -0.17083554549E+02 -0.11033771440E+02 -0.25091245289E+01  0.20491160389E+02  0.00000000000E+00 0. -1.
<mgrwt>
<rscale>  0 0.13289503E+03</rscale>
<asrwt>0</asrwt>
<pdfrwt beam="2">  1        1 0.12372761E-01 0.14062610E+03</pdfrwt>
<pdfrwt beam="1">  1       -1 0.45840834E-01 0.14062610E+03</pdfrwt>
<totfact> 0.22577464E+03</totfact>
</mgrwt>
</event>
<event>
 7    1  0.1422977E-005  0.1368654E+03  0.7546771E-02  0.1229677E+00
         -1   -1    0    0    0  501 -0.00000000000E+00  0.00000000000E+00  0.11350281537E+02  0.11350281537E+02  0.00000000000E+00 0.  1.
          1   -1    0    0  501    0  0.00000000000E+00 -0.00000000000E+00 -0.13036990673E+04  0.13036990673E+04  0.00000000000E+00 0. -1.
         23    2    1    2    0    0 -0.55628476443E+02  0.32668285575E+01 -0.57495174626E+03  0.58471335919E+03  0.90636650060E+02 0.  0.
          5    1    1    2  502    0  0.34513941019E+02  0.35619161217E+02 -0.63272685985E+03  0.63468520224E+03  0.47000000000E+01 0.  1.
         -5    1    1    2    0  502  0.21114535425E+02 -0.38885989774E+02 -0.84670179631E+02  0.95650787376E+02  0.47000000000E+01 0.  1.
        -11    1    3    3    0    0 -0.30683051621E+02  0.46951585278E+02 -0.30101478169E+03  0.30619568876E+03  0.00000000000E+00 0.  1.
         11    1    3    3    0    0 -0.24945424822E+02 -0.43684756720E+02 -0.27393696456E+03  0.27851767043E+03  0.00000000000E+00 0. -1.
<mgrwt>
<rscale>  0 0.12851449E+03</rscale>
<asrwt>0</asrwt>
<pdfrwt beam="2">  1        1 0.20056923E+00 0.13686543E+03</pdfrwt>
<pdfrwt beam="1">  1       -1 0.17461959E-02 0.13686543E+03</pdfrwt>
<totfact> 0.79029045E+03</totfact>
</mgrwt>
</event>
<event>
 7    1  0.1422977E-005  0.1592328E+03  0.7546771E-02  0.1197378E+00
          1   -1    0    0  501    0  0.00000000000E+00  0.00000000000E+00  0.63867111305E+03  0.63867111305E+03  0.00000000000E+00 0. -1.
         -1   -1    0    0    0  501 -0.00000000000E+00 -0.00000000000E+00 -0.33695720671E+02  0.33695720671E+02  0.00000000000E+00 0.  1.
         23    2    1    2    0    0 -0.30017665356E+02  0.93963655536E+02  0.28193283177E+03  0.31221190026E+03  0.90884103346E+02 0.  0.
          5    1    1    2  502    0  0.51892090253E+02 -0.63055802975E+02  0.80977500159E+02  0.11510112446E+03  0.47000000000E+01 0. -1.
         -5    1    1    2    0  502 -0.21874424896E+02 -0.30907852560E+02  0.24206506045E+03  0.24505380900E+03  0.47000000000E+01 0. -1.
        -11    1    3    3    0    0  0.31165688990E+02  0.21553146649E+02  0.61164516916E+02  0.71950930711E+02  0.00000000000E+00 0.  1.
         11    1    3    3    0    0 -0.61183354347E+02  0.72410508886E+02  0.22076831485E+03  0.24026096955E+03  0.00000000000E+00 0. -1.
<mgrwt>
<rscale>  0 0.15254702E+03</rscale>
<asrwt>0</asrwt>
<pdfrwt beam="1">  1        1 0.98257086E-01 0.15923279E+03</pdfrwt>
<pdfrwt beam="2">  1       -1 0.51839575E-02 0.15923279E+03</pdfrwt>
<totfact> 0.52304939E+03</totfact>
</mgrwt>
</event>
<event>
 7    1  0.1422977E-005  0.1379594E+03  0.7546771E-02  0.1227334E+00
          2   -1    0    0  501    0  0.00000000000E+00  0.00000000000E+00  0.86792286317E+03  0.86792286317E+03  0.00000000000E+00 0. -1.
         -2   -1    0    0    0  501 -0.00000000000E+00 -0.00000000000E+00 -0.18612189165E+02  0.18612189165E+02  0.00000000000E+00 0.  1.
         23    2    1    2    0    0  0.42401006196E+02  0.40101039426E+02  0.27373423662E+03  0.29465582662E+03  0.92117778837E+02 0.  0.
          5    1    1    2  502    0 -0.72779682390E+00  0.33061932511E+02  0.34049888413E+03  0.34213330905E+03  0.47000000000E+01 0.  1.
         -5    1    1    2    0  502 -0.41673209373E+02 -0.73162971937E+02  0.23507755326E+03  0.24974591666E+03  0.47000000000E+01 0.  1.
        -11    1    3    3    0    0  0.59635689843E+02 -0.52776651910E+01  0.13516589851E+03  0.14783128686E+03  0.00000000000E+00 0.  1.
         11    1    3    3    0    0 -0.17234683646E+02  0.45378704617E+02  0.13856833810E+03  0.14682453977E+03  0.00000000000E+00 0. -1.
<mgrwt>
<rscale>  0 0.13008239E+03</rscale>
<asrwt>0</asrwt>
<pdfrwt beam="1">  1        2 0.13352656E+00 0.13795935E+03</pdfrwt>
<pdfrwt beam="2">  1       -2 0.28634144E-02 0.13795935E+03</pdfrwt>
<totfact> 0.13862267E+04</totfact>
</mgrwt>
</event>
<event>
 7    1  0.1422977E-005  0.2056619E+03  0.7546771E-02  0.1148913E+00
          4   -1    0    0  501    0  0.00000000000E+00  0.00000000000E+00  0.47130171697E+02  0.47130171697E+02  0.00000000000E+00 0.  1.
         -4   -1    0    0    0  501 -0.00000000000E+00 -0.00000000000E+00 -0.82288538094E+03  0.82288538094E+03  0.00000000000E+00 0. -1.
         23    2    1    2    0    0  0.12249969500E+03 -0.10801273935E+03 -0.34546070398E+03  0.39309816554E+03  0.92250434218E+02 0.  0.
          5    1    1    2  502    0 -0.14029030557E+03  0.10737508200E+03 -0.32423131220E+03  0.36926794050E+03  0.47000000000E+01 0.  1.
         -5    1    1    2    0  502  0.17790610561E+02  0.63765735412E+00 -0.10606319306E+03  0.10764944660E+03  0.47000000000E+01 0.  1.
        -11    1    3    3    0    0  0.44193525864E+02 -0.64294278429E+02 -0.75255868112E+02  0.10839865152E+03  0.00000000000E+00 0.  1.
         11    1    3    3    0    0  0.78306169140E+02 -0.43718460925E+02 -0.27020483587E+03  0.28469951401E+03  0.00000000000E+00 0. -1.
<mgrwt>
<rscale>  0 0.20098200E+03</rscale>
<asrwt>0</asrwt>
<pdfrwt beam="1">  1        4 0.72507958E-02 0.20566194E+03</pdfrwt>
<pdfrwt beam="2">  1       -4 0.12659775E+00 0.20566194E+03</pdfrwt>
<totfact> 0.11288318E+02</totfact>
</mgrwt>
</event>
<event>
 7    1  0.1422977E-005  0.1455106E+03  0.7546771E-02  0.1215157E+00
          1   -1    0    0  501    0  0.00000000000E+00  0.00000000000E+00  0.84215016721E+03  0.84215016721E+03  0.00000000000E+00 0. -1.
         -1   -1    0    0    0  501 -0.00000000000E+00 -0.00000000000E+00 -0.23020563506E+02  0.23020563506E+02  0.00000000000E+00 0.  1.
         23    2    1    2    0    0  0.70459728897E+02 -0.24137960500E+02  0.24359182518E+03  0.27152346039E+03  0.94025516283E+02 0.  0.
          5    1    1    2  502    0 -0.39634921132E+02 -0.36928653323E+02  0.42207635640E+03  0.42556455802E+03  0.47000000000E+01 0.  1.
         -5    1    1    2    0  502 -0.30824807765E+02  0.61066613823E+02  0.15346142212E+03  0.16808271231E+03  0.47000000000E+01 0.  1.
        -11    1    3    3    0    0  0.25869938404E+01 -0.28638383423E+02  0.16541774345E+03  0.16789841986E+03  0.00000000000E+00 0. -1.
         11    1    3    3    0    0  0.67872735057E+02  0.45004229234E+01  0.78174081734E+02  0.10362504053E+03  0.00000000000E+00 0.  1.
<mgrwt>
<rscale>  0 0.13865041E+03</rscale>
<asrwt>0</asrwt>
<pdfrwt beam="1">  1        1 0.12956154E+00 0.14551064E+03</pdfrwt>
<pdfrwt beam="2">  1       -1 0.35416258E-02 0.14551064E+03</pdfrwt>
<totfact> 0.60968539E+03</totfact>
</mgrwt>
</event>
<event>
 7    1  0.1422977E-005  0.2284305E+03  0.7546771E-02  0.1130977E+00
         -2   -1    0    0    0  501 -0.00000000000E+00  0.00000000000E+00  0.58312956667E+02  0.58312956667E+02  0.00000000000E+00 0.  1.
          2   -1    0    0  501    0  0.00000000000E+00 -0.00000000000E+00 -0.10536289712E+04  0.10536289712E+04  0.00000000000E+00 0. -1.
         23    2    1    2    0    0  0.15831954868E+03 -0.10719259487E+03 -0.22495105899E+03  0.30842301203E+03  0.89254935525E+02 0.  0.
          5    1    1    2  502    0 -0.49320625226E+02 -0.16525841297E+02 -0.96152817369E+02  0.10942157827E+03  0.47000000000E+01 0. -1.
         -5    1    1    2    0  502 -0.10899892346E+03  0.12371843617E+03 -0.67421213812E+03  0.69409733752E+03  0.47000000000E+01 0. -1.
        -11    1    3    3    0    0  0.12405301846E+03 -0.41136886008E+02 -0.10676371669E+03  0.16875984706E+03  0.00000000000E+00 0.  1.
         11    1    3    3    0    0  0.34266530223E+02 -0.66055708861E+02 -0.11818734231E+03  0.13966316496E+03  0.00000000000E+00 0. -1.
<mgrwt>
<rscale>  0 0.22394280E+03</rscale>
<asrwt>0</asrwt>
<pdfrwt beam="2">  1        2 0.16209674E+00 0.22843048E+03</pdfrwt>
<pdfrwt beam="1">  1       -2 0.89712253E-02 0.22843048E+03</pdfrwt>
<totfact> 0.19189565E+03</totfact>
</mgrwt>
</event>
<event>
 7    1  0.1422977E-005  0.1447214E+03  0.7546771E-02  0.1227172E+00
          1   -1    0    0  501    0  0.00000000000E+00  0.00000000000E+00  0.10601723469E+04  0.10601723469E+04  0.00000000000E+00 0. -1.
         -1   -1    0    0    0  501 -0.00000000000E+00 -0.00000000000E+00 -0.13702587726E+02  0.13702587726E+02  0.00000000000E+00 0.  1.
         23    2    1    2    0    0  0.19614958396E+02  0.14537636897E+02  0.35603250291E+03  0.36843329911E+03  0.91585278780E+02 0.  0.
          5    1    1    2  502    0 -0.27135204847E+02  0.23437954288E+01  0.68507600130E+03  0.68563330598E+03  0.47000000000E+01 0. -1.
         -5    1    1    2    0  502  0.75202464510E+01 -0.16881432325E+02  0.53612549723E+01  0.19808329534E+02  0.47000000000E+01 0.  1.
        -11    1    3    3    0    0  0.55172149437E+02  0.18399664216E+02  0.19566179628E+03  0.20412264020E+03  0.00000000000E+00 0. -1.
         11    1    3    3    0    0 -0.35557191041E+02 -0.38620273194E+01  0.16037070662E+03  0.16431065891E+03  0.00000000000E+00 0.  1.
<mgrwt>
<rscale>  0 0.13019164E+03</rscale>
<asrwt>0</asrwt>
<pdfrwt beam="1">  1        1 0.16310337E+00 0.14472144E+03</pdfrwt>
<pdfrwt beam="2">  1       -1 0.21080912E-02 0.14472144E+03</pdfrwt>
<totfact> 0.88894787E+03</totfact>
</mgrwt>
</event>
<event>
 7    1  0.1422977E-005  0.1422228E+03  0.7546771E-02  0.1223008E+00
         -1   -1    0    0    0  501 -0.00000000000E+00  0.00000000000E+00  0.33922149882E+03  0.33922149882E+03  0.00000000000E+00 0.  1.
          1   -1    0    0  501    0  0.00000000000E+00 -0.00000000000E+00 -0.60962699688E+02  0.60962699688E+02  0.00000000000E+00 0. -1.
         23    2    1    2    0    0 -0.64692615766E+02 -0.21222131472E+02  0.22192813861E+03  0.24721209269E+03  0.85007097730E+02 0.  0.
          5    1    1    2  502    0 -0.25589446597E+02  0.11054724266E+02 -0.19662155403E+02  0.34434242562E+02  0.47000000000E+01 0.  1.
         -5    1    1    2    0  502  0.90282062364E+02  0.10167407206E+02  0.75992815922E+02  0.11853786326E+03  0.47000000000E+01 0.  1.
        -11    1    3    3    0    0 -0.47409365012E+02 -0.34810015514E+02  0.21680034222E+03  0.22463698150E+03  0.00000000000E+00 0.  1.
         11    1    3    3    0    0 -0.17283250754E+02  0.13587884042E+02  0.51277963948E+01  0.22575111190E+02  0.00000000000E+00 0. -1.
<mgrwt>
<rscale>  0 0.13304402E+03</rscale>
<asrwt>0</asrwt>
<pdfrwt beam="2">  1        1 0.93788771E-02 0.14222279E+03</pdfrwt>
<pdfrwt beam="1">  1       -1 0.52187922E-01 0.14222279E+03</pdfrwt>
<totfact> 0.25730912E+03</totfact>
</mgrwt>
</event>
<event>
 7    1  0.1422977E-005  0.2259361E+03  0.7546771E-02  0.1132740E+00
          2   -1    0    0  501    0  0.00000000000E+00  0.00000000000E+00  0.15458801957E+04  0.15458801957E+04  0.00000000000E+00 0. -1.
         -2   -1    0    0    0  501 -0.00000000000E+00 -0.00000000000E+00 -0.30670314598E+02  0.30670314598E+02  0.00000000000E+00 0.  1.
         23    2    1    2    0    0 -0.11241503676E+03  0.15093731303E+03  0.77245726110E+03  0.80019454351E+03  0.90564199811E+02 0.  0.
          5    1    1    2  502    0  0.74588637459E+01  0.20687145826E+02  0.47257124838E+02  0.52334677784E+02  0.47000000000E+01 0. -1.
         -5    1    1    2    0  502  0.10495617301E+03 -0.17162445886E+03  0.69549549514E+03  0.72402128898E+03  0.47000000000E+01 0. -1.
        -11    1    3    3    0    0 -0.37351092591E+02  0.83998179232E+02  0.21642643352E+03  0.23514080752E+03  0.00000000000E+00 0.  1.
         11    1    3    3    0    0 -0.75063944164E+02  0.66939133802E+02  0.55603082758E+03  0.56505373600E+03  0.00000000000E+00 0. -1.
<mgrwt>
<rscale>  0 0.22153957E+03</rscale>
<asrwt>0</asrwt>
<pdfrwt beam="1">  1        2 0.23782766E+00 0.22593613E+03</pdfrwt>
<pdfrwt beam="2">  1       -2 0.47185111E-02 0.22593613E+03</pdfrwt>
<totfact> 0.27573832E+03</totfact>
</mgrwt>
</event>
<event>
 7    1  0.1422977E-005  0.1367650E+03  0.7546771E-02  0.1229465E+00
          2   -1    0    0  501    0  0.00000000000E+00  0.00000000000E+00  0.69444279880E+03  0.69444279880E+03  0.00000000000E+00 0. -1.
         -2   -1    0    0    0  501 -0.00000000000E+00 -0.00000000000E+00 -0.29626169301E+02  0.29626169301E+02  0.00000000000E+00 0.  1.
         23    2    1    2    0    0 -0.13061888378E+02  0.53909363099E+02  0.11354137351E+03  0.15608211985E+03  0.91614148908E+02 0.  0.
          5    1    1    2  502    0  0.44775980973E+02  0.19518703846E+02  0.30727210336E+03  0.31116571755E+03  0.47000000000E+01 0. -1.
         -5    1    1    2    0  502 -0.31714092595E+02 -0.73428066945E+02  0.24400315263E+03  0.25682113070E+03  0.47000000000E+01 0. -1.
        -11    1    3    3    0    0 -0.27196239634E+02  0.71585838887E+02  0.57866552563E+02  0.95982840575E+02  0.00000000000E+00 0.  1.
         11    1    3    3    0    0  0.14134351256E+02 -0.17676475788E+02  0.55674820945E+02  0.60099279272E+02  0.00000000000E+00 0. -1.
<mgrwt>
<rscale>  0 0.12865494E+03</rscale>
<asrwt>0</asrwt>
<pdfrwt beam="1">  1        2 0.10683734E+00 0.13676495E+03</pdfrwt>
<pdfrwt beam="2">  1       -2 0.45578727E-02 0.13676495E+03</pdfrwt>
<totfact> 0.91620681E+03</totfact>
</mgrwt>
</event>
<event>
 7    1  0.1422977E-005  0.1268323E+03  0.7546771E-02  0.1246916E+00
         -1   -1    0    0    0  501 -0.00000000000E+00  0.00000000000E+00  0.19756753452E+03  0.19756753452E+03  0.00000000000E+00 0.  1.
          1   -1    0    0  501    0  0.00000000000E+00 -0.00000000000E+00 -0.89553352651E+02  0.89553352651E+02  0.00000000000E+00 0. -1.
         23    2    1    2    0    0  0.47670310944E+01  0.20862072297E+02  0.12784492473E+03  0.15874767180E+03  0.91643591572E+02 0.  0.
          5    1    1    2  502    0  0.32561068963E+02 -0.61850162974E+02 -0.19562062214E+02  0.72735343197E+02  0.47000000000E+01 0. -1.
         -5    1    1    2    0  502 -0.37328100057E+02  0.40988090677E+02 -0.26868064543E+00  0.55637872178E+02  0.47000000000E+01 0. -1.
        -11    1    3    3    0    0  0.26415930620E+02  0.18340993628E+02  0.33200392129E+01  0.32329802012E+02  0.00000000000E+00 0. -1.
         11    1    3    3    0    0 -0.21648899525E+02  0.25210786691E+01  0.12452488552E+03  0.12641786979E+03  0.00000000000E+00 0.  1.
<mgrwt>
<rscale>  0 0.11771453E+03</rscale>
<asrwt>0</asrwt>
<pdfrwt beam="2">  1        1 0.13777439E-01 0.12683227E+03</pdfrwt>
<pdfrwt beam="1">  1       -1 0.30395005E-01 0.12683227E+03</pdfrwt>
<totfact> 0.39802217E+03</totfact>
</mgrwt>
</event>
<event>
 7    1  0.1422977E-005  0.1708133E+03  0.7546771E-02  0.1183722E+00
         -2   -1    0    0    0  501 -0.00000000000E+00  0.00000000000E+00  0.39108946547E+02  0.39108946547E+02  0.00000000000E+00 0.  1.
          2   -1    0    0  501    0  0.00000000000E+00 -0.00000000000E+00 -0.65572090388E+03  0.65572090388E+03  0.00000000000E+00 0. -1.
         23    2    1    2    0    0 -0.64852178610E+02 -0.96686937289E+02 -0.24152334257E+03  0.28267861945E+03  0.89551705599E+02 0.  0.
          5    1    1    2  502    0  0.14463207493E+02  0.40751393750E+02 -0.30844523834E+03  0.31149705539E+03  0.47000000000E+01 0.  1.
         -5    1    1    2    0  502  0.50388971117E+02  0.55935543540E+02 -0.66643376424E+02  0.10065417558E+03  0.47000000000E+01 0.  1.
        -11    1    3    3    0    0 -0.58218371471E+02 -0.10518655927E+02 -0.80139077090E+02  0.99610705128E+02  0.00000000000E+00 0.  1.
         11    1    3    3    0    0 -0.66338071387E+01 -0.86168281362E+02 -0.16138426548E+03  0.18306791432E+03  0.00000000000E+00 0. -1.
<mgrwt>
<rscale>  0 0.16448705E+03</rscale>
<asrwt>0</asrwt>
<pdfrwt beam="2">  1        2 0.10088014E+00 0.17081326E+03</pdfrwt>
<pdfrwt beam="1">  1       -2 0.60167610E-02 0.17081326E+03</pdfrwt>
<totfact> 0.65253918E+03</totfact>
</mgrwt>
</event>
<event>
 7    1  0.1422977E-005  0.2617029E+03  0.7546771E-02  0.1128920E+00
         -2   -1    0    0    0  501 -0.00000000000E+00  0.00000000000E+00  0.49606571542E+03  0.49606571542E+03  0.00000000000E+00 0.  1.
          2   -1    0    0  501    0  0.00000000000E+00 -0.00000000000E+00 -0.84493736542E+02  0.84493736542E+02  0.00000000000E+00 0. -1.
         23    2    1    2    0    0 -0.11067169708E+03 -0.16197869080E+02  0.14055485413E+03  0.20381191796E+03  0.96296601106E+02 0.  0.
          5    1    1    2  502    0  0.33789735614E+02  0.69645178234E+02 -0.12119208879E+02  0.78493071719E+02  0.47000000000E+01 0. -1.
         -5    1    1    2    0  502  0.76881961464E+02 -0.53447309153E+02  0.28313633362E+03  0.29825446228E+03  0.47000000000E+01 0.  1.
        -11    1    3    3    0    0 -0.11251703162E+03  0.12304649197E+02  0.85718468196E+02  0.14198289540E+03  0.00000000000E+00 0.  1.
         11    1    3    3    0    0  0.18453345436E+01 -0.28502518278E+02  0.54836385933E+02  0.61829022553E+02  0.00000000000E+00 0. -1.
<mgrwt>
<rscale>  0 0.22678938E+03</rscale>
<asrwt>0</asrwt>
<pdfrwt beam="2">  1        2 0.12999037E-01 0.26170293E+03</pdfrwt>
<pdfrwt beam="1">  1       -2 0.76317801E-01 0.26170293E+03</pdfrwt>
<totfact> 0.73181941E+02</totfact>
</mgrwt>
</event>
<event>
 7    1  0.1422977E-005  0.1862948E+03  0.7546771E-02  0.1167044E+00
         -1   -1    0    0    0  501 -0.00000000000E+00  0.00000000000E+00  0.45716278304E+02  0.45716278304E+02  0.00000000000E+00 0.  1.
          1   -1    0    0  501    0  0.00000000000E+00 -0.00000000000E+00 -0.71483858388E+03  0.71483858388E+03  0.00000000000E+00 0. -1.
         23    2    1    2    0    0  0.17897783942E+02  0.13693807537E+03 -0.22677519806E+03  0.28057911864E+03  0.90693352624E+02 0.  0.
          5    1    1    2  502    0 -0.53709285374E+02 -0.13890006797E+03 -0.33334455877E+03  0.36512819815E+03  0.47000000000E+01 0.  1.
         -5    1    1    2    0  502  0.35811501432E+02  0.19619926077E+01 -0.10900254875E+03  0.11484754540E+03  0.47000000000E+01 0.  1.
        -11    1    3    3    0    0  0.45956266266E+02  0.92587391565E+02 -0.19064463733E+03  0.21686350829E+03  0.00000000000E+00 0.  1.
         11    1    3    3    0    0 -0.28058482324E+02  0.44350683802E+02 -0.36130560724E+02  0.63715610350E+02  0.00000000000E+00 0. -1.
<mgrwt>
<rscale>  0 0.18078659E+03</rscale>
<asrwt>0</asrwt>
<pdfrwt beam="2">  1        1 0.10997515E+00 0.18629480E+03</pdfrwt>
<pdfrwt beam="1">  1       -1 0.70332748E-02 0.18629480E+03</pdfrwt>
<totfact> 0.28355860E+03</totfact>
</mgrwt>
</event>
<event>
 7    1  0.1422977E-005  0.1561837E+03  0.7546771E-02  0.1201131E+00
         -2   -1    0    0    0  501 -0.00000000000E+00  0.00000000000E+00  0.71888424354E+02  0.71888424354E+02  0.00000000000E+00 0.  1.
          2   -1    0    0  501    0  0.00000000000E+00 -0.00000000000E+00 -0.30721809681E+03  0.30721809681E+03  0.00000000000E+00 0. -1.
         23    2    1    2    0    0 -0.84298917401E+02  0.40747824187E+02 -0.59346580004E+02  0.14381221637E+03  0.91614651500E+02 0.  0.
          5    1    1    2  502    0 -0.27964072380E+02  0.69128257034E+01 -0.60944238593E+02  0.67572677326E+02  0.47000000000E+01 0. -1.
         -5    1    1    2    0  502  0.11226298978E+03 -0.47660649890E+02 -0.11503885386E+03  0.16772162747E+03  0.47000000000E+01 0. -1.
        -11    1    3    3    0    0 -0.87603915602E+02  0.29598748536E+01 -0.59391618880E+02  0.10587998527E+03  0.00000000000E+00 0. -1.
         11    1    3    3    0    0  0.33049982017E+01  0.37787949333E+02  0.45038876537E-01  0.37932231102E+02  0.00000000000E+00 0.  1.
<mgrwt>
<rscale>  0 0.14946563E+03</rscale>
<asrwt>0</asrwt>
<pdfrwt beam="2">  1        2 0.47264323E-01 0.15618374E+03</pdfrwt>
<pdfrwt beam="1">  1       -2 0.11059757E-01 0.15618374E+03</pdfrwt>
<totfact> 0.57985227E+03</totfact>
</mgrwt>
</event>
<event>
 7    1  0.1422977E-005  0.1357547E+03  0.7546771E-02  0.1232109E+00
         -2   -1    0    0    0  501 -0.00000000000E+00  0.00000000000E+00  0.60373654419E+02  0.60373654419E+02  0.00000000000E+00 0.  1.
          2   -1    0    0  501    0  0.00000000000E+00 -0.00000000000E+00 -0.35042192136E+03  0.35042192136E+03  0.00000000000E+00 0. -1.
         23    2    1    2    0    0  0.28919475576E+02 -0.44850217500E+02 -0.15944416289E+02  0.10491610449E+03  0.88911678045E+02 0.  0.
          5    1    1    2  502    0 -0.67150917431E+00 -0.13553843421E+02  0.79550571378E+01  0.16417384997E+02  0.47000000000E+01 0.  1.
         -5    1    1    2    0  502 -0.28247966402E+02  0.58404060921E+02 -0.28205890779E+03  0.28946208629E+03  0.47000000000E+01 0.  1.
        -11    1    3    3    0    0 -0.12732654112E+02 -0.75425102455E+01  0.29406099388E+02  0.32920033760E+02  0.00000000000E+00 0.  1.
         11    1    3    3    0    0  0.41652129688E+02 -0.37307707254E+02 -0.45350515678E+02  0.71996070728E+02  0.00000000000E+00 0. -1.
<mgrwt>
<rscale>  0 0.12691359E+03</rscale>
<asrwt>0</asrwt>
<pdfrwt beam="2">  1        2 0.53911064E-01 0.13575467E+03</pdfrwt>
<pdfrwt beam="1">  1       -2 0.92882546E-02 0.13575467E+03</pdfrwt>
<totfact> 0.65822183E+03</totfact>
</mgrwt>
</event>
<event>
 7    1  0.1422977E-005  0.1891702E+03  0.7546771E-02  0.1164249E+00
          1   -1    0    0  501    0  0.00000000000E+00  0.00000000000E+00  0.43342126491E+03  0.43342126491E+03  0.00000000000E+00 0. -1.
         -1   -1    0    0    0  501 -0.00000000000E+00 -0.00000000000E+00 -0.87035674614E+02  0.87035674614E+02  0.00000000000E+00 0.  1.
         23    2    1    2    0    0 -0.33260755866E+02  0.13803363935E+03  0.62944025552E+02  0.17968648971E+03  0.90364377718E+02 0.  0.
          5    1    1    2  502    0  0.12272806634E+02 -0.62265610493E+02  0.24499723654E+03  0.25312716951E+03  0.47000000000E+01 0.  1.
         -5    1    1    2    0  502  0.20987949232E+02 -0.75768028857E+02  0.38444328198E+02  0.87643280292E+02  0.47000000000E+01 0.  1.
        -11    1    3    3    0    0 -0.33662630977E+01  0.37199664876E+02 -0.22999694264E+02  0.43864937369E+02  0.00000000000E+00 0.  1.
         11    1    3    3    0    0 -0.29894492768E+02  0.10083397447E+03  0.85943719815E+02  0.13582155235E+03  0.00000000000E+00 0. -1.
<mgrwt>
<rscale>  0 0.18372210E+03</rscale>
<asrwt>0</asrwt>
<pdfrwt beam="1">  1        1 0.66680194E-01 0.18917024E+03</pdfrwt>
<pdfrwt beam="2">  1       -1 0.13390104E-01 0.18917024E+03</pdfrwt>
<totfact> 0.20800696E+03</totfact>
</mgrwt>
</event>
<event>
 7    1  0.1422977E-005  0.1637898E+03  0.7546771E-02  0.1196576E+00
          2   -1    0    0  501    0  0.00000000000E+00  0.00000000000E+00  0.13374353377E+04  0.13374353377E+04  0.00000000000E+00 0. -1.
         -2   -1    0    0    0  501 -0.00000000000E+00 -0.00000000000E+00 -0.28085407845E+02  0.28085407845E+02  0.00000000000E+00 0.  1.
         23    2    1    2    0    0 -0.36657151546E+02 -0.10037881558E+03  0.15395449244E+03  0.19857356757E+03  0.65649239296E+02 0.  0.
          5    1    1    2  502    0  0.15784975617E+01  0.72659625920E+02  0.10479318851E+04  0.10504595369E+04  0.47000000000E+01 0. -1.
         -5    1    1    2    0  502  0.35078653984E+02  0.27719189659E+02  0.10746355226E+03  0.11648764100E+03  0.47000000000E+01 0.  1.
        -11    1    3    3    0    0  0.17823147078E+02 -0.13153187270E+02  0.21371528689E+02  0.30780077089E+02  0.00000000000E+00 0. -1.
         11    1    3    3    0    0 -0.54480298624E+02 -0.87225628309E+02  0.13258296375E+03  0.16779349048E+03  0.00000000000E+00 0.  1.
<mgrwt>
<rscale>  0 0.15321611E+03</rscale>
<asrwt>0</asrwt>
<pdfrwt beam="1">  1        2 0.20575923E+00 0.16378980E+03</pdfrwt>
<pdfrwt beam="2">  1       -2 0.43208330E-02 0.16378980E+03</pdfrwt>
<totfact> 0.40535756E+03</totfact>
</mgrwt>
</event>
<event>
 7    1  0.1422977E-005  0.1947362E+03  0.7546771E-02  0.1160182E+00
         -1   -1    0    0    0  501 -0.00000000000E+00  0.00000000000E+00  0.14090911846E+03  0.14090911846E+03  0.00000000000E+00 0.  1.
          1   -1    0    0  501    0  0.00000000000E+00 -0.00000000000E+00 -0.25494332597E+03  0.25494332597E+03  0.00000000000E+00 0. -1.
         23    2    1    2    0    0  0.12009624629E+03  0.88733669138E+02 -0.10802298653E+03  0.20102348860E+03  0.80278919631E+02 0.  0.
          5    1    1    2  502    0  0.61778543189E+01  0.22266825078E+02  0.10531529095E+02  0.25825965386E+02  0.47000000000E+01 0.  1.
         -5    1    1    2    0  502 -0.12627410061E+03 -0.11100049422E+03 -0.16542750075E+02  0.16900299045E+03  0.47000000000E+01 0.  1.
        -11    1    3    3    0    0  0.94805214424E+02  0.10274912865E+03 -0.81731998800E+02  0.16194298919E+03  0.00000000000E+00 0. -1.
         11    1    3    3    0    0  0.25291031869E+02 -0.14015459509E+02 -0.26290987730E+02  0.39080499409E+02  0.00000000000E+00 0.  1.
<mgrwt>
<rscale>  0 0.18810427E+03</rscale>
<asrwt>0</asrwt>
<pdfrwt beam="2">  1        1 0.39222050E-01 0.19473620E+03</pdfrwt>
<pdfrwt beam="1">  1       -1 0.21678326E-01 0.19473620E+03</pdfrwt>
<totfact> 0.18822234E+03</totfact>
</mgrwt>
</event>
<event>
 7    1  0.1422977E-005  0.1306517E+03  0.7546771E-02  0.1240840E+00
          2   -1    0    0  501    0  0.00000000000E+00  0.00000000000E+00  0.66754176919E+03  0.66754176919E+03  0.00000000000E+00 0. -1.
         -2   -1    0    0    0  501 -0.00000000000E+00 -0.00000000000E+00 -0.19509495631E+02  0.19509495631E+02  0.00000000000E+00 0.  1.
         23    2    1    2    0    0  0.35802031218E+02 -0.12692183493E+02  0.26041041064E+03  0.27800288280E+03  0.89605490447E+02 0.  0.
          5    1    1    2  502    0 -0.12815767537E+01  0.53255753519E+02  0.76342961938E+02  0.93210276039E+02  0.47000000000E+01 0. -1.
         -5    1    1    2    0  502 -0.34520454465E+02 -0.40563570027E+02  0.31127890098E+03  0.31583810597E+03  0.47000000000E+01 0. -1.
        -11    1    3    3    0    0  0.45419181866E+01  0.33175730211E+02  0.15807786736E+03  0.16158548896E+03  0.00000000000E+00 0. -1.
         11    1    3    3    0    0  0.31260113032E+02 -0.45867913704E+02  0.10233254328E+03  0.11641739384E+03  0.00000000000E+00 0.  1.
<mgrwt>
<rscale>  0 0.12137847E+03</rscale>
<asrwt>0</asrwt>
<pdfrwt beam="1">  1        2 0.10269872E+00 0.13065171E+03</pdfrwt>
<pdfrwt beam="2">  1       -2 0.30014614E-02 0.13065171E+03</pdfrwt>
<totfact> 0.17761753E+04</totfact>
</mgrwt>
</event>
<event>
 7    1  0.1422977E-005  0.1688348E+03  0.7546771E-02  0.1185972E+00
          1   -1    0    0  501    0  0.00000000000E+00  0.00000000000E+00  0.10570477198E+03  0.10570477198E+03  0.00000000000E+00 0. -1.
         -1   -1    0    0    0  501 -0.00000000000E+00 -0.00000000000E+00 -0.25085370944E+03  0.25085370944E+03  0.00000000000E+00 0.  1.
         23    2    1    2    0    0  0.22135581795E+02  0.11130878133E+03 -0.11555180766E+03  0.18514904898E+03  0.89712436706E+02 0.  0.
          5    1    1    2  502    0  0.22169450674E+02 -0.17303031012E+02 -0.57085126233E+02  0.63809725453E+02  0.47000000000E+01 0. -1.
         -5    1    1    2    0  502 -0.44305032469E+02 -0.94005750322E+02  0.27487996436E+02  0.10759970699E+03  0.47000000000E+01 0. -1.
        -11    1    3    3    0    0 -0.25730875196E+01  0.94367203770E+02 -0.12224391791E+03  0.15445182224E+03  0.00000000000E+00 0.  1.
         11    1    3    3    0    0  0.24708669314E+02  0.16941577563E+02  0.66921102521E+01  0.30697226735E+02  0.00000000000E+00 0. -1.
<mgrwt>
<rscale>  0 0.16243791E+03</rscale>
<asrwt>0</asrwt>
<pdfrwt beam="1">  1        1 0.16262273E-01 0.16883484E+03</pdfrwt>
<pdfrwt beam="2">  1       -1 0.38592878E-01 0.16883484E+03</pdfrwt>
<totfact> 0.21615445E+03</totfact>
</mgrwt>
</event>
<event>
 7    1  0.1422977E-005  0.2410181E+03  0.7546771E-02  0.1124196E+00
          2   -1    0    0  501    0  0.00000000000E+00  0.00000000000E+00  0.46948941850E+03  0.46948941850E+03  0.00000000000E+00 0. -1.
         -2   -1    0    0    0  501 -0.00000000000E+00 -0.00000000000E+00 -0.12486110876E+03  0.12486110876E+03  0.00000000000E+00 0.  1.
         23    2    1    2    0    0 -0.13995921453E+02  0.19171457027E+03  0.58538145782E+02  0.22026857735E+03  0.90228428929E+02 0.  0.
          5    1    1    2  502    0  0.13615392091E+02 -0.67916081196E+02  0.22593513650E+03  0.23636147929E+03  0.47000000000E+01 0. -1.
         -5    1    1    2    0  502  0.38052936197E+00 -0.12379848907E+03  0.60155027453E+02  0.13772047062E+03  0.47000000000E+01 0.  1.
        -11    1    3    3    0    0  0.37039546634E+02  0.10110491017E+03  0.20984156111E+02  0.10970171230E+03  0.00000000000E+00 0.  1.
         11    1    3    3    0    0 -0.51035468087E+02  0.90609660101E+02  0.37553989671E+02  0.11056686505E+03  0.00000000000E+00 0. -1.
<mgrwt>
<rscale>  0 0.23350658E+03</rscale>
<asrwt>0</asrwt>
<pdfrwt beam="1">  1        2 0.72229141E-01 0.24101810E+03</pdfrwt>
<pdfrwt beam="2">  1       -2 0.19209402E-01 0.24101810E+03</pdfrwt>
<totfact> 0.15024753E+03</totfact>
</mgrwt>
</event>
<event>
 7    1  0.1422977E-005  0.2459326E+03  0.7546771E-02  0.1118671E+00
         -2   -1    0    0    0  501 -0.00000000000E+00  0.00000000000E+00  0.19211833621E+03  0.19211833621E+03  0.00000000000E+00 0.  1.
          2   -1    0    0  501    0  0.00000000000E+00 -0.00000000000E+00 -0.40276458801E+03  0.40276458801E+03  0.00000000000E+00 0. -1.
         23    2    1    2    0    0  0.70451673043E+02  0.19973892106E+03  0.51837636649E+02  0.23518775756E+03  0.88130958868E+02 0.  0.
          5    1    1    2  502    0  0.35147427325E+02 -0.33359394626E+02 -0.56721587564E+02  0.74750380287E+02  0.47000000000E+01 0.  1.
         -5    1    1    2    0  502 -0.10559910037E+03 -0.16637952644E+03 -0.20576230089E+03  0.28494478637E+03  0.47000000000E+01 0.  1.
        -11    1    3    3    0    0  0.44981734923E+02  0.99657973847E+02  0.70703312122E+02  0.13020762871E+03  0.00000000000E+00 0.  1.
         11    1    3    3    0    0  0.25469938121E+02  0.10008094721E+03 -0.18865675473E+02  0.10498012885E+03  0.00000000000E+00 0. -1.
<mgrwt>
<rscale>  0 0.24169196E+03</rscale>
<asrwt>0</asrwt>
<pdfrwt beam="2">  1        2 0.61963783E-01 0.24593255E+03</pdfrwt>
<pdfrwt beam="1">  1       -2 0.29556667E-01 0.24593255E+03</pdfrwt>
<totfact> 0.83426353E+02</totfact>
</mgrwt>
</event>
<event>
 7    1  0.1422977E-005  0.1850413E+03  0.7546771E-02  0.1168835E+00
          1   -1    0    0  501    0  0.00000000000E+00  0.00000000000E+00  0.24501810863E+04  0.24501810863E+04  0.00000000000E+00 0. -1.
         -1   -1    0    0    0  501 -0.00000000000E+00 -0.00000000000E+00 -0.15110500797E+02  0.15110500797E+02  0.00000000000E+00 0.  1.
         23    2    1    2    0    0 -0.13064845394E+03 -0.39546534571E+02  0.61830592683E+03  0.63912781717E+03  0.86886135882E+02 0.  0.
          5    1    1    2  502    0  0.18378048749E+01  0.13767388944E+02  0.89026788023E+03  0.89038862700E+03  0.47000000000E+01 0. -1.
         -5    1    1    2    0  502  0.12881064906E+03  0.25779145627E+02  0.92649677842E+03  0.93577514291E+03  0.47000000000E+01 0. -1.
        -11    1    3    3    0    0 -0.13087548918E+03 -0.11959435172E+02  0.45870409045E+03  0.47715916040E+03  0.00000000000E+00 0.  1.
         11    1    3    3    0    0  0.22703524598E+00 -0.27587099399E+02  0.15960183638E+03  0.16196865677E+03  0.00000000000E+00 0. -1.
<mgrwt>
<rscale>  0 0.17893784E+03</rscale>
<asrwt>0</asrwt>
<pdfrwt beam="1">  1        1 0.37695062E+00 0.18504132E+03</pdfrwt>
<pdfrwt beam="2">  1       -1 0.23246944E-02 0.18504132E+03</pdfrwt>
<totfact> 0.95044807E+02</totfact>
</mgrwt>
</event>
<event>
 7    1  0.1422977E-005  0.1413256E+03  0.7546771E-02  0.1222400E+00
          1   -1    0    0  501    0  0.00000000000E+00  0.00000000000E+00  0.35492323326E+03  0.35492323326E+03  0.00000000000E+00 0. -1.
         -1   -1    0    0    0  501 -0.00000000000E+00 -0.00000000000E+00 -0.56049493720E+02  0.56049493720E+02  0.00000000000E+00 0.  1.
         23    2    1    2    0    0 -0.63793571471E+02 -0.16611335334E+02  0.46362982276E+02  0.12160340285E+03  0.91062095501E+02 0.  0.
          5    1    1    2  502    0 -0.18741663173E+02 -0.35512094848E+02  0.10405899611E+03  0.11163656879E+03  0.47000000000E+01 0. -1.
         -5    1    1    2    0  502  0.82535234644E+02  0.52123430183E+02  0.14845176116E+03  0.17773275534E+03  0.47000000000E+01 0. -1.
        -11    1    3    3    0    0 -0.41994840634E+02 -0.89677593662E+01 -0.22846240671E+02  0.48640909332E+02  0.00000000000E+00 0.  1.
         11    1    3    3    0    0 -0.21798730837E+02 -0.76435759681E+01  0.69209222947E+02  0.72962493519E+02  0.00000000000E+00 0. -1.
<mgrwt>
<rscale>  0 0.13346728E+03</rscale>
<asrwt>0</asrwt>
<pdfrwt beam="1">  1        1 0.54603573E-01 0.14132559E+03</pdfrwt>
<pdfrwt beam="2">  1       -1 0.86229993E-02 0.14132559E+03</pdfrwt>
<totfact> 0.52148924E+03</totfact>
</mgrwt>
</event>
<event>
 7    1  0.1422977E-005  0.1978339E+03  0.7546771E-02  0.1155981E+00
         -1   -1    0    0    0  501 -0.00000000000E+00  0.00000000000E+00  0.26081000263E+03  0.26081000263E+03  0.00000000000E+00 0.  1.
          1   -1    0    0  501    0  0.00000000000E+00 -0.00000000000E+00 -0.14549775634E+03  0.14549775634E+03  0.00000000000E+00 0. -1.
         23    2    1    2    0    0 -0.90474312445E+02 -0.12380587497E+03  0.10763094809E+03  0.20832477256E+03  0.91111437185E+02 0.  0.
          5    1    1    2  502    0 -0.11711927089E+01  0.95528068113E+02 -0.20674610548E+02  0.97859659774E+02  0.47000000000E+01 0. -1.
         -5    1    1    2    0  502  0.91645505153E+02  0.28277806852E+02  0.28355908745E+02  0.10012332663E+03  0.47000000000E+01 0. -1.
        -11    1    3    3    0    0 -0.10042323459E+03 -0.67164851840E+02  0.75102687417E+02  0.14225455010E+03  0.00000000000E+00 0.  1.
         11    1    3    3    0    0  0.99489221450E+01 -0.56641023125E+02  0.32528260674E+02  0.66070222453E+02  0.00000000000E+00 0. -1.
<mgrwt>
<rscale>  0 0.19277655E+03</rscale>
<asrwt>0</asrwt>
<pdfrwt beam="2">  1        1 0.22384270E-01 0.19783392E+03</pdfrwt>
<pdfrwt beam="1">  1       -1 0.40124616E-01 0.19783392E+03</pdfrwt>
<totfact> 0.13448136E+03</totfact>
</mgrwt>
</event>
<event>
 7    1  0.1422977E-005  0.1861803E+03  0.7546771E-02  0.1167165E+00
          2   -1    0    0  501    0  0.00000000000E+00  0.00000000000E+00  0.85917608287E+03  0.85917608287E+03  0.00000000000E+00 0.  1.
         -2   -1    0    0    0  501 -0.00000000000E+00 -0.00000000000E+00 -0.15937915640E+03  0.15937915640E+03  0.00000000000E+00 0. -1.
         23    2    1    2    0    0  0.13785966132E+03 -0.58112927765E+01 -0.10292441498E+03  0.19452572417E+03  0.90596715287E+02 0.  0.
          5    1    1    2  502    0  0.20414111049E+02  0.16744933493E+02  0.14210629616E+03  0.14461472309E+03  0.47000000000E+01 0. -1.
         -5    1    1    2    0  502 -0.15827377237E+03 -0.10933640717E+02  0.66061504530E+03  0.67941479200E+03  0.47000000000E+01 0. -1.
        -11    1    3    3    0    0  0.55380548784E+02  0.35246558272E+02 -0.15358570464E+02  0.67418178115E+02  0.00000000000E+00 0.  1.
         11    1    3    3    0    0  0.82479112535E+02 -0.41057851048E+02 -0.87565844519E+02  0.12710754605E+03  0.00000000000E+00 0. -1.
<mgrwt>
<rscale>  0 0.18066112E+03</rscale>
<asrwt>0</asrwt>
<pdfrwt beam="1">  1        2 0.13218093E+00 0.18618026E+03</pdfrwt>
<pdfrwt beam="2">  1       -2 0.24519871E-01 0.18618026E+03</pdfrwt>
<totfact> 0.48177596E+02</totfact>
</mgrwt>
</event>
<event>
 7    1  0.1422977E-005  0.1462843E+03  0.7546771E-02  0.1214938E+00
          2   -1    0    0  501    0  0.00000000000E+00  0.00000000000E+00  0.70167681399E+03  0.70167681399E+03  0.00000000000E+00 0. -1.
         -2   -1    0    0    0  501 -0.00000000000E+00 -0.00000000000E+00 -0.32743368826E+02  0.32743368826E+02  0.00000000000E+00 0.  1.
         23    2    1    2    0    0 -0.17019031273E+02  0.74061852824E+02  0.12994822587E+03  0.17593636921E+03  0.91061842354E+02 0.  0.
          5    1    1    2  502    0  0.44683428494E+02 -0.87902597920E+02  0.26629736454E+03  0.28400678137E+03  0.47000000000E+01 0.  1.
         -5    1    1    2    0  502 -0.27664397222E+02  0.13840745095E+02  0.27268785474E+03  0.27447703223E+03  0.47000000000E+01 0.  1.
        -11    1    3    3    0    0 -0.47946502395E+02  0.41479890051E+02  0.10960798726E+03  0.12662290172E+03  0.00000000000E+00 0. -1.
         11    1    3    3    0    0  0.30927471122E+02  0.32581962773E+02  0.20340238615E+02  0.49313467482E+02  0.00000000000E+00 0.  1.
<mgrwt>
<rscale>  0 0.13881097E+03</rscale>
<asrwt>0</asrwt>
<pdfrwt beam="1">  1        2 0.10795027E+00 0.14628432E+03</pdfrwt>
<pdfrwt beam="2">  1       -2 0.50374419E-02 0.14628432E+03</pdfrwt>
<totfact> 0.78191940E+03</totfact>
</mgrwt>
</event>
<event>
 7    1  0.1422977E-005  0.1281411E+03  0.7546771E-02  0.1254399E+00
         -2   -1    0    0    0  501 -0.00000000000E+00  0.00000000000E+00  0.36684496662E+02  0.36684496662E+02  0.00000000000E+00 0.  1.
          2   -1    0    0  501    0  0.00000000000E+00 -0.00000000000E+00 -0.61276862211E+03  0.61276862211E+03  0.00000000000E+00 0. -1.
         23    2    1    2    0    0 -0.30935940625E+02  0.28062375250E+02 -0.23249018033E+02  0.81961440565E+02  0.66578011181E+02 0.  0.
          5    1    1    2  502    0  0.43777735305E+02  0.29950490783E+02 -0.39858999681E+03  0.40213131880E+03  0.47000000000E+01 0. -1.
         -5    1    1    2    0  502 -0.12841794680E+02 -0.58012866034E+02 -0.15424511060E+03  0.16536035940E+03  0.47000000000E+01 0.  1.
        -11    1    3    3    0    0  0.21097922320E+02  0.10587749209E+02 -0.51113305683E+01  0.24152607720E+02  0.00000000000E+00 0. -1.
         11    1    3    3    0    0 -0.52033862945E+02  0.17474626042E+02 -0.18137687465E+02  0.57808832844E+02  0.00000000000E+00 0.  1.
<mgrwt>
<rscale>  0 0.11340051E+03</rscale>
<asrwt>0</asrwt>
<pdfrwt beam="2">  1        2 0.94272091E-01 0.12814113E+03</pdfrwt>
<pdfrwt beam="1">  1       -2 0.56437690E-02 0.12814113E+03</pdfrwt>
<totfact> 0.76568896E+03</totfact>
</mgrwt>
</event>
<event>
 7    1  0.1422977E-005  0.1355341E+03  0.7546771E-02  0.1231592E+00
          1   -1    0    0  501    0  0.00000000000E+00  0.00000000000E+00  0.22121656668E+03  0.22121656668E+03  0.00000000000E+00 0. -1.
         -1   -1    0    0    0  501 -0.00000000000E+00 -0.00000000000E+00 -0.65580716523E+02  0.65580716523E+02  0.00000000000E+00 0.  1.
         23    2    1    2    0    0 -0.83072449544E+01 -0.51728229572E+02  0.65404417618E+02  0.12397463981E+03  0.91362757282E+02 0.  0.
          5    1    1    2  502    0 -0.62690404151E+01  0.71841031820E+02  0.33572413765E+01  0.72344977644E+02  0.47000000000E+01 0.  1.
         -5    1    1    2    0  502  0.14576285369E+02 -0.20112802248E+02  0.86874191159E+02  0.90477665747E+02  0.47000000000E+01 0.  1.
        -11    1    3    3    0    0 -0.12989090050E+02 -0.25755133854E+02  0.85865061168E+02  0.90580638712E+02  0.00000000000E+00 0. -1.
         11    1    3    3    0    0  0.46818450955E+01 -0.25973095718E+02 -0.20460643550E+02  0.33394001095E+02  0.00000000000E+00 0.  1.
<mgrwt>
<rscale>  0 0.12725141E+03</rscale>
<asrwt>0</asrwt>
<pdfrwt beam="1">  1        1 0.34033318E-01 0.13553414E+03</pdfrwt>
<pdfrwt beam="2">  1       -1 0.10089341E-01 0.13553414E+03</pdfrwt>
<totfact> 0.73598507E+03</totfact>
</mgrwt>
</event>
<event>
 7    1  0.1422977E-005  0.1880728E+03  0.7546771E-02  0.1169236E+00
          2   -1    0    0  501    0  0.00000000000E+00  0.00000000000E+00  0.18415523459E+03  0.18415523459E+03  0.00000000000E+00 0. -1.
         -2   -1    0    0    0  501 -0.00000000000E+00 -0.00000000000E+00 -0.24370255634E+03  0.24370255634E+03  0.00000000000E+00 0.  1.
         23    2    1    2    0    0  0.34669409360E+02  0.11721827944E+03 -0.15445392866E+03  0.21719536104E+03  0.91518936832E+02 0.  0.
          5    1    1    2  502    0 -0.37258388843E+02 -0.14260564821E+03  0.10683886038E+03  0.18210214312E+03  0.47000000000E+01 0. -1.
         -5    1    1    2    0  502  0.25889794834E+01  0.25387368773E+02 -0.11932253467E+02  0.28560286777E+02  0.47000000000E+01 0.  1.
        -11    1    3    3    0    0  0.28553125460E+02 -0.61129994080E+01 -0.28214152972E+02  0.40604041218E+02  0.00000000000E+00 0. -1.
         11    1    3    3    0    0  0.61162838994E+01  0.12333127885E+03 -0.12623977569E+03  0.17659131982E+03  0.00000000000E+00 0.  1.
<mgrwt>
<rscale>  0 0.17852767E+03</rscale>
<asrwt>0</asrwt>
<pdfrwt beam="1">  1        2 0.28331575E-01 0.18807285E+03</pdfrwt>
<pdfrwt beam="2">  1       -2 0.37492701E-01 0.18807285E+03</pdfrwt>
<totfact> 0.12494458E+03</totfact>
</mgrwt>
</event>
<event>
 7    1  0.5532323E-005  0.1436262E+03  0.7546771E-02  0.1225305E+00
         -1   -1    0    0    0  501 -0.00000000000E+00  0.00000000000E+00  0.32078178467E+02  0.32078178467E+02  0.00000000000E+00 0. -1.
          1   -1    0    0  501    0  0.00000000000E+00 -0.00000000000E+00 -0.47871429467E+03  0.47871429467E+03  0.00000000000E+00 0.  1.
         23    2    1    2    0    0 -0.70630050112E+02 -0.38591725198E+01 -0.14367853243E+03  0.17551381691E+03  0.71819788736E+02 0.  0.
          5    1    1    2  502    0 -0.15949493570E+01  0.51752241934E+02 -0.74116212026E+02  0.90532542733E+02  0.47000000000E+01 0.  1.
         -5    1    1    2    0  502  0.72224999469E+02 -0.47893069415E+02 -0.22884137174E+03  0.24474611348E+03  0.47000000000E+01 0.  1.
        -11    1    3    3    0    0  0.87279399093E+01 -0.17592974124E+02 -0.36504040527E+02  0.41451594039E+02  0.00000000000E+00 0.  1.
         11    1    3    3    0    0 -0.79357990022E+02  0.13733801604E+02 -0.10717449191E+03  0.13406222288E+03  0.00000000000E+00 0. -1.
<mgrwt>
<rscale>  0 0.13146052E+03</rscale>
<asrwt>0</asrwt>
<pdfrwt beam="2">  1        1 0.73648341E-01 0.14362618E+03</pdfrwt>
<pdfrwt beam="1">  1       -1 0.49351052E-02 0.14362618E+03</pdfrwt>
<totfact> 0.82335680E+03</totfact>
</mgrwt>
</event>
<event>
 7    1  0.1422977E-005  0.1289066E+03  0.7546771E-02  0.1243456E+00
          2   -1    0    0  501    0  0.00000000000E+00  0.00000000000E+00  0.59326087583E+03  0.59326087583E+03  0.00000000000E+00 0. -1.
         -2   -1    0    0    0  501 -0.00000000000E+00 -0.00000000000E+00 -0.22098881878E+02  0.22098881878E+02  0.00000000000E+00 0.  1.
         23    2    1    2    0    0  0.23678709146E+02 -0.20789129612E+02  0.18880724546E+03  0.21185998695E+03  0.90794322274E+02 0.  0.
          5    1    1    2  502    0 -0.60670562608E+00  0.69819983505E+02  0.26613446069E+03  0.27518146623E+03  0.47000000000E+01 0.  1.
         -5    1    1    2    0  502 -0.23072003520E+02 -0.49030853893E+02  0.11622028780E+03  0.12831830453E+03  0.47000000000E+01 0.  1.
        -11    1    3    3    0    0 -0.16105390369E+01  0.30880758304E+02  0.30537647983E+02  0.43459901216E+02  0.00000000000E+00 0.  1.
         11    1    3    3    0    0  0.25289248183E+02 -0.51669887916E+02  0.15826959748E+03  0.16840008574E+03  0.00000000000E+00 0. -1.
<mgrwt>
<rscale>  0 0.11978286E+03</rscale>
<asrwt>0</asrwt>
<pdfrwt beam="1">  1        2 0.91270892E-01 0.12890660E+03</pdfrwt>
<pdfrwt beam="2">  1       -2 0.33998284E-02 0.12890660E+03</pdfrwt>
<totfact> 0.16915396E+04</totfact>
</mgrwt>
</event>
<event>
 7    1  0.1422977E-005  0.1930431E+03  0.7546771E-02  0.1160481E+00
          2   -1    0    0  501    0  0.00000000000E+00  0.00000000000E+00  0.30576682138E+03  0.30576682138E+03  0.00000000000E+00 0. -1.
         -2   -1    0    0    0  501 -0.00000000000E+00 -0.00000000000E+00 -0.11706032989E+03  0.11706032989E+03  0.00000000000E+00 0.  1.
         23    2    1    2    0    0  0.95737069782E+02 -0.11170045341E+03  0.35644350436E+02  0.17646634479E+03  0.90704318000E+02 0.  0.
          5    1    1    2  502    0 -0.60649975096E+02  0.27876795793E+02  0.13902710230E+03  0.15429245087E+03  0.47000000000E+01 0.  1.
         -5    1    1    2    0  502 -0.35087094686E+02  0.83823657619E+02  0.14035038761E+02  0.92068355601E+02  0.47000000000E+01 0.  1.
        -11    1    3    3    0    0  0.31421657340E+02  0.11807092369E+02  0.60983546039E+01  0.34116241133E+02  0.00000000000E+00 0.  1.
         11    1    3    3    0    0  0.64315412442E+02 -0.12350754578E+03  0.29545995832E+02  0.14235010366E+03  0.00000000000E+00 0. -1.
<mgrwt>
<rscale>  0 0.18777804E+03</rscale>
<asrwt>0</asrwt>
<pdfrwt beam="1">  1        2 0.47041049E-01 0.19304307E+03</pdfrwt>
<pdfrwt beam="2">  1       -2 0.18009282E-01 0.19304307E+03</pdfrwt>
<totfact> 0.26539375E+03</totfact>
</mgrwt>
</event>
<event>
 7    1  0.1422977E-005  0.1317686E+03  0.7546771E-02  0.1237512E+00
          2   -1    0    0  501    0  0.00000000000E+00  0.00000000000E+00  0.17601969754E+03  0.17601969754E+03  0.00000000000E+00 0. -1.
         -2   -1    0    0    0  501 -0.00000000000E+00 -0.00000000000E+00 -0.10001710175E+03  0.10001710175E+03  0.00000000000E+00 0.  1.
         23    2    1    2    0    0  0.25660548468E+02  0.32864443557E+02 -0.31164961889E+02  0.10619022007E+03  0.92555780964E+02 0.  0.
          5    1    1    2  502    0 -0.23842148301E+02 -0.54780824598E+02  0.12663690573E+03  0.14010133002E+03  0.47000000000E+01 0. -1.
         -5    1    1    2    0  502 -0.18184001678E+01  0.21916381041E+02 -0.19469348054E+02  0.29745249213E+02  0.47000000000E+01 0. -1.
        -11    1    3    3    0    0 -0.29590786767E+02  0.40159559266E+01 -0.32115410388E+02  0.43853644636E+02  0.00000000000E+00 0.  1.
         11    1    3    3    0    0  0.55251335236E+02  0.28848487630E+02  0.95044849847E+00  0.62336575429E+02  0.00000000000E+00 0. -1.
<mgrwt>
<rscale>  0 0.12344987E+03</rscale>
<asrwt>0</asrwt>
<pdfrwt beam="1">  1        2 0.27079953E-01 0.13176864E+03</pdfrwt>
<pdfrwt beam="2">  1       -2 0.15387246E-01 0.13176864E+03</pdfrwt>
<totfact> 0.61246396E+03</totfact>
</mgrwt>
</event>
<event>
 7    1  0.1422977E-005  0.1323966E+03  0.7546771E-02  0.1235675E+00
          1   -1    0    0  501    0  0.00000000000E+00  0.00000000000E+00  0.29390174103E+03  0.29390174103E+03  0.00000000000E+00 0. -1.
         -1   -1    0    0    0  501 -0.00000000000E+00 -0.00000000000E+00 -0.65176764007E+02  0.65176764007E+02  0.00000000000E+00 0.  1.
         23    2    1    2    0    0 -0.90223433495E+01 -0.48308140389E+02  0.11299660246E+02  0.10451489800E+03  0.91545630565E+02 0.  0.
          5    1    1    2  502    0 -0.44933528879E+02  0.32553923446E+02  0.17594931841E+03  0.18455089433E+03  0.47000000000E+01 0. -1.
         -5    1    1    2    0  502  0.53955872229E+02  0.15754216943E+02  0.41475998367E+02  0.70012712703E+02  0.47000000000E+01 0.  1.
        -11    1    3    3    0    0  0.33952250158E+02 -0.43171910817E+02  0.23209155002E+02  0.59625783435E+02  0.00000000000E+00 0.  1.
         11    1    3    3    0    0 -0.42974593508E+02 -0.51362295719E+01 -0.11909494756E+02  0.44889114568E+02  0.00000000000E+00 0. -1.
<mgrwt>
<rscale>  0 0.12461316E+03</rscale>
<asrwt>0</asrwt>
<pdfrwt beam="1">  1        1 0.45215652E-01 0.13239661E+03</pdfrwt>
<pdfrwt beam="2">  1       -1 0.10027195E-01 0.13239661E+03</pdfrwt>
<totfact> 0.52215234E+03</totfact>
</mgrwt>
</event>
<event>
 7    1  0.1422977E-005  0.1500832E+03  0.7546771E-02  0.1210845E+00
          1   -1    0    0  501    0  0.00000000000E+00  0.00000000000E+00  0.80304908260E+03  0.80304908260E+03  0.00000000000E+00 0. -1.
         -1   -1    0    0    0  501 -0.00000000000E+00 -0.00000000000E+00 -0.23302945178E+02  0.23302945178E+02  0.00000000000E+00 0.  1.
         23    2    1    2    0    0 -0.72330992265E+02 -0.40803870147E+02  0.41466911848E+03  0.43162909970E+03  0.86350875085E+02 0.  0.
          5    1    1    2  502    0  0.17442666794E+01  0.59284453890E+02  0.75867757998E+02  0.96414187975E+02  0.47000000000E+01 0.  1.
         -5    1    1    2    0  502  0.70586725586E+02 -0.18480583743E+02  0.28920926095E+03  0.29830874010E+03  0.47000000000E+01 0.  1.
        -11    1    3    3    0    0 -0.64002702058E+01 -0.44186623049E+02  0.91823434945E+02  0.10210271456E+03  0.00000000000E+00 0.  1.
         11    1    3    3    0    0 -0.65930722059E+02  0.33827529027E+01  0.32284568354E+03  0.32952638515E+03  0.00000000000E+00 0. -1.
<mgrwt>
<rscale>  0 0.14186250E+03</rscale>
<asrwt>0</asrwt>
<pdfrwt beam="1">  1        1 0.12354599E+00 0.15008318E+03</pdfrwt>
<pdfrwt beam="2">  1       -1 0.35850691E-02 0.15008318E+03</pdfrwt>
<totfact> 0.64503543E+03</totfact>
</mgrwt>
</event>
<event>
 7    1  0.1422977E-005  0.1319074E+03  0.7546771E-02  0.1238149E+00
          1   -1    0    0  501    0  0.00000000000E+00  0.00000000000E+00  0.16438574375E+04  0.16438574375E+04  0.00000000000E+00 0. -1.
         -1   -1    0    0    0  501 -0.00000000000E+00 -0.00000000000E+00 -0.12470899898E+02  0.12470899898E+02  0.00000000000E+00 0.  1.
         23    2    1    2    0    0  0.29664951817E+02 -0.30059786946E+02  0.25863767805E+03  0.27725655176E+03  0.90521526882E+02 0.  0.
          5    1    1    2  502    0 -0.24938823646E+02 -0.39453426549E+02  0.26470364544E+03  0.26882824945E+03  0.47000000000E+01 0. -1.
         -5    1    1    2    0  502 -0.47261281718E+01  0.69513213494E+02  0.11080452141E+04  0.11102435362E+04  0.47000000000E+01 0. -1.
        -11    1    3    3    0    0  0.40661287668E+02 -0.56169589258E+02  0.15476154729E+03  0.16958626003E+03  0.00000000000E+00 0. -1.
         11    1    3    3    0    0 -0.10996335851E+02  0.26109802313E+02  0.10387613076E+03  0.10767029173E+03  0.00000000000E+00 0.  1.
<mgrwt>
<rscale>  0 0.12304980E+03</rscale>
<asrwt>0</asrwt>
<pdfrwt beam="1">  1        1 0.25290097E+00 0.13190739E+03</pdfrwt>
<pdfrwt beam="2">  1       -1 0.19186013E-02 0.13190739E+03</pdfrwt>
<totfact> 0.41386125E+03</totfact>
</mgrwt>
</event>
<event>
 7    1  0.1422977E-005  0.1254857E+03  0.7546771E-02  0.1246137E+00
         -3   -1    0    0    0  501 -0.00000000000E+00  0.00000000000E+00  0.44357273257E+03  0.44357273257E+03  0.00000000000E+00 0.  1.
          3   -1    0    0  501    0  0.00000000000E+00 -0.00000000000E+00 -0.29778746970E+02  0.29778746970E+02  0.00000000000E+00 0. -1.
         23    2    1    2    0    0  0.52554729452E+01 -0.96821101111E+01  0.23528030592E+03  0.25514561462E+03  0.98087201275E+02 0.  0.
          5    1    1    2  502    0 -0.50443110554E+02  0.35736066530E+02  0.14025969865E+03  0.15335073172E+03  0.47000000000E+01 0. -1.
         -5    1    1    2    0  502  0.45187637609E+02 -0.26053956419E+02  0.38253981025E+02  0.64855133198E+02  0.47000000000E+01 0. -1.
        -11    1    3    3    0    0 -0.41686537074E+02 -0.21296205746E+02  0.14969611181E+03  0.15684457798E+03  0.00000000000E+00 0. -1.
         11    1    3    3    0    0  0.46942010019E+02  0.11614095635E+02  0.85584194116E+02  0.98301036640E+02  0.00000000000E+00 0.  1.
<mgrwt>
<rscale>  0 0.11817601E+03</rscale>
<asrwt>0</asrwt>
<pdfrwt beam="2">  1        3 0.45813460E-02 0.12548572E+03</pdfrwt>
<pdfrwt beam="1">  1       -3 0.68241954E-01 0.12548572E+03</pdfrwt>
<totfact> 0.12507082E+03</totfact>
</mgrwt>
</event>
<event>
 7    1  0.1422977E-005  0.1681600E+03  0.7546771E-02  0.1186094E+00
         -1   -1    0    0    0  501 -0.00000000000E+00  0.00000000000E+00  0.70475536939E+02  0.70475536939E+02  0.00000000000E+00 0.  1.
          1   -1    0    0  501    0  0.00000000000E+00 -0.00000000000E+00 -0.52833348129E+03  0.52833348129E+03  0.00000000000E+00 0. -1.
         23    2    1    2    0    0  0.10969138811E+03 -0.24924737166E+02 -0.44640522203E+02  0.15268524050E+03  0.93094378439E+02 0.  0.
          5    1    1    2  502    0 -0.73780635521E+02 -0.14767090147E+02 -0.85333376547E+02  0.11386625612E+03  0.47000000000E+01 0. -1.
         -5    1    1    2    0  502 -0.35910752584E+02  0.39691827313E+02 -0.32788404560E+03  0.33225752161E+03  0.47000000000E+01 0. -1.
        -11    1    3    3    0    0  0.11597986694E+02 -0.42413991549E+02 -0.26700043684E+02  0.51442708979E+02  0.00000000000E+00 0. -1.
         11    1    3    3    0    0  0.98093401412E+02  0.17489254382E+02 -0.17940478520E+02  0.10124253152E+03  0.00000000000E+00 0.  1.
<mgrwt>
<rscale>  0 0.16232688E+03</rscale>
<asrwt>0</asrwt>
<pdfrwt beam="2">  1        1 0.81282073E-01 0.16816000E+03</pdfrwt>
<pdfrwt beam="1">  1       -1 0.10842390E-01 0.16816000E+03</pdfrwt>
<totfact> 0.22222540E+03</totfact>
</mgrwt>
</event>
<event>
 7    1  0.1422977E-005  0.1555504E+03  0.7546771E-02  0.1201349E+00
          1   -1    0    0  501    0  0.00000000000E+00  0.00000000000E+00  0.49992470241E+03  0.49992470241E+03  0.00000000000E+00 0. -1.
         -1   -1    0    0    0  501 -0.00000000000E+00 -0.00000000000E+00 -0.46459277110E+02  0.46459277110E+02  0.00000000000E+00 0.  1.
         23    2    1    2    0    0 -0.19906805732E+02  0.90350902858E+02  0.11979888181E+03  0.17824094913E+03  0.94119590435E+02 0.  0.
          5    1    1    2  502    0 -0.48729404655E+02 -0.55615304620E+02  0.12032109702E+03  0.14130418739E+03  0.47000000000E+01 0.  1.
         -5    1    1    2    0  502  0.68636210387E+02 -0.34735598238E+02  0.21334544647E+03  0.22683884299E+03  0.47000000000E+01 0.  1.
        -11    1    3    3    0    0  0.55700346288E+00  0.20286538391E+02 -0.14804710193E+02  0.25120376921E+02  0.00000000000E+00 0.  1.
         11    1    3    3    0    0 -0.20463809195E+02  0.70064364467E+02  0.13460359200E+03  0.15312057221E+03  0.00000000000E+00 0. -1.
<mgrwt>
<rscale>  0 0.14928918E+03</rscale>
<asrwt>0</asrwt>
<pdfrwt beam="1">  1        1 0.76911489E-01 0.15555041E+03</pdfrwt>
<pdfrwt beam="2">  1       -1 0.71475815E-02 0.15555041E+03</pdfrwt>
<totfact> 0.44960465E+03</totfact>
</mgrwt>
</event>
<event>
 7    1  0.1422977E-005  0.1384632E+03  0.7546771E-02  0.1226251E+00
         -2   -1    0    0    0  501 -0.00000000000E+00  0.00000000000E+00  0.37915315261E+02  0.37915315261E+02  0.00000000000E+00 0.  1.
          2   -1    0    0  501    0  0.00000000000E+00 -0.00000000000E+00 -0.61605811967E+03  0.61605811967E+03  0.00000000000E+00 0. -1.
         23    2    1    2    0    0 -0.10622180160E+02 -0.58608299657E+02 -0.78225588224E+02  0.13523527752E+03  0.92852432025E+02 0.  0.
          5    1    1    2  502    0  0.23992961201E+01  0.10166348759E+02  0.42076300555E+01  0.12202680839E+02  0.47000000000E+01 0.  1.
         -5    1    1    2    0  502  0.82228840396E+01  0.48441950897E+02 -0.50412484624E+03  0.50653547657E+03  0.47000000000E+01 0.  1.
        -11    1    3    3    0    0  0.27828468702E+02 -0.54310055067E+02 -0.74593111910E+02  0.96374986880E+02  0.00000000000E+00 0. -1.
         11    1    3    3    0    0 -0.38450648862E+02 -0.42982445900E+01 -0.36324763134E+01  0.38860290640E+02  0.00000000000E+00 0.  1.
<mgrwt>
<rscale>  0 0.13081547E+03</rscale>
<asrwt>0</asrwt>
<pdfrwt beam="2">  1        2 0.94778160E-01 0.13846318E+03</pdfrwt>
<pdfrwt beam="1">  1       -2 0.58331262E-02 0.13846318E+03</pdfrwt>
<totfact> 0.72727624E+03</totfact>
</mgrwt>
</event>
<event>
 7    1  0.1422977E-005  0.1516968E+03  0.7546771E-02  0.1204791E+00
         -4   -1    0    0    0  501 -0.00000000000E+00  0.00000000000E+00  0.92826219311E+02  0.92826219311E+02  0.00000000000E+00 0.  1.
          4   -1    0    0  501    0  0.00000000000E+00 -0.00000000000E+00 -0.24126432108E+03  0.24126432108E+03  0.00000000000E+00 0. -1.
         23    2    1    2    0    0 -0.98725340676E+01 -0.85180477523E+02 -0.16646410753E+02  0.13314036576E+03  0.10047921837E+03 0.  0.
          5    1    1    2  502    0  0.39941661980E+01 -0.32712113376E+02 -0.34126580328E+02  0.47673359542E+02  0.47000000000E+01 0. -1.
         -5    1    1    2    0  502  0.58783678695E+01  0.11789259090E+03 -0.97665110685E+02  0.15327681509E+03  0.47000000000E+01 0. -1.
        -11    1    3    3    0    0 -0.45135761485E+02 -0.79561878321E+01  0.32457763589E+01  0.45946413939E+02  0.00000000000E+00 0. -1.
         11    1    3    3    0    0  0.35263227417E+02 -0.77224289691E+02 -0.19892187112E+02  0.87193951822E+02  0.00000000000E+00 0.  1.
<mgrwt>
<rscale>  0 0.14653941E+03</rscale>
<asrwt>0</asrwt>
<pdfrwt beam="2">  1        4 0.37117588E-01 0.15169681E+03</pdfrwt>
<pdfrwt beam="1">  1       -4 0.14280957E-01 0.15169681E+03</pdfrwt>
<totfact> 0.49073698E+02</totfact>
</mgrwt>
</event>
<event>
 7    1  0.1422977E-005  0.1444774E+03  0.7546771E-02  0.1217076E+00
         -4   -1    0    0    0  501 -0.00000000000E+00  0.00000000000E+00  0.50232843821E+02  0.50232843821E+02  0.00000000000E+00 0.  1.
          4   -1    0    0  501    0  0.00000000000E+00 -0.00000000000E+00 -0.51420849236E+03  0.51420849236E+03  0.00000000000E+00 0. -1.
         23    2    1    2    0    0  0.13982152708E+02  0.71082731760E+02 -0.53463324831E+02  0.12924701314E+03  0.92726522396E+02 0.  0.
          5    1    1    2  502    0 -0.39343329997E+02  0.24958172189E+01 -0.28272565211E+03  0.28549958157E+03  0.47000000000E+01 0. -1.
         -5    1    1    2    0  502  0.25361177288E+02 -0.73578548979E+02 -0.12778667160E+03  0.14969474146E+03  0.47000000000E+01 0. -1.
        -11    1    3    3    0    0  0.43526810656E+02  0.62172534215E+02 -0.61127630903E+02  0.97450472120E+02  0.00000000000E+00 0. -1.
         11    1    3    3    0    0 -0.29544657947E+02  0.89101975450E+01  0.76643060718E+01  0.31796541024E+02  0.00000000000E+00 0.  1.
<mgrwt>
<rscale>  0 0.13725159E+03</rscale>
<asrwt>0</asrwt>
<pdfrwt beam="2">  1        4 0.79108995E-01 0.14447744E+03</pdfrwt>
<pdfrwt beam="1">  1       -4 0.77281302E-02 0.14447744E+03</pdfrwt>
<totfact> 0.28726679E+02</totfact>
</mgrwt>
</event>
<event>
 7    1  0.1422977E-005  0.1708397E+03  0.7546771E-02  0.1184699E+00
          1   -1    0    0  501    0  0.00000000000E+00  0.00000000000E+00  0.33902758070E+02  0.33902758070E+02  0.00000000000E+00 0. -1.
         -1   -1    0    0    0  501 -0.00000000000E+00 -0.00000000000E+00 -0.74081960381E+03  0.74081960381E+03  0.00000000000E+00 0.  1.
         23    2    1    2    0    0 -0.46124911708E+02 -0.10692621582E+03 -0.27523908746E+03  0.31046825164E+03  0.84102656935E+02 0.  0.
          5    1    1    2  502    0  0.47119815328E+02  0.86772083917E+02 -0.13749023452E+03  0.16933790518E+03  0.47000000000E+01 0. -1.
         -5    1    1    2    0  502 -0.99490361994E+00  0.20154131900E+02 -0.29418752376E+03  0.29491620505E+03  0.47000000000E+01 0. -1.
        -11    1    3    3    0    0  0.19825257992E+02 -0.58181256072E+02 -0.12543331075E+03  0.13968398211E+03  0.00000000000E+00 0.  1.
         11    1    3    3    0    0 -0.65950169700E+02 -0.48744959744E+02 -0.14980577671E+03  0.17078426953E+03  0.00000000000E+00 0. -1.
<mgrwt>
<rscale>  0 0.16359289E+03</rscale>
<asrwt>0</asrwt>
<pdfrwt beam="1">  1        1 0.52158085E-02 0.17083967E+03</pdfrwt>
<pdfrwt beam="2">  1       -1 0.11397226E+00 0.17083967E+03</pdfrwt>
<totfact> 0.11580639E+03</totfact>
</mgrwt>
</event>
<event>
 7    1  0.1422977E-005  0.1360796E+03  0.7546771E-02  0.1231014E+00
         -1   -1    0    0    0  501 -0.00000000000E+00  0.00000000000E+00  0.88660980633E+02  0.88660980633E+02  0.00000000000E+00 0.  1.
          1   -1    0    0  501    0  0.00000000000E+00 -0.00000000000E+00 -0.16958218316E+03  0.16958218316E+03  0.00000000000E+00 0. -1.
         23    2    1    2    0    0 -0.52094793613E+01 -0.53537605770E+02 -0.12844790806E+02  0.10608512872E+03  0.90529840264E+02 0.  0.
          5    1    1    2  502    0  0.44410947134E+02  0.18828230128E+02  0.17664289110E+02  0.51584412228E+02  0.47000000000E+01 0.  1.
         -5    1    1    2    0  502 -0.39201467773E+02  0.34709375642E+02 -0.85740700836E+02  0.10057362285E+03  0.47000000000E+01 0.  1.
        -11    1    3    3    0    0 -0.40274757135E+02 -0.59406185841E+01  0.11262894192E+02  0.42239789263E+02  0.00000000000E+00 0.  1.
         11    1    3    3    0    0  0.35065277774E+02 -0.47596987186E+02 -0.24107684999E+02  0.63845339458E+02  0.00000000000E+00 0. -1.
<mgrwt>
<rscale>  0 0.12763117E+03</rscale>
<asrwt>0</asrwt>
<pdfrwt beam="2">  1        1 0.26089567E-01 0.13607965E+03</pdfrwt>
<pdfrwt beam="1">  1       -1 0.13640151E-01 0.13607965E+03</pdfrwt>
<totfact> 0.64396801E+03</totfact>
</mgrwt>
</event>
<event>
 7    1  0.1422977E-005  0.1913100E+03  0.7546771E-02  0.1163023E+00
         -2   -1    0    0    0  501 -0.00000000000E+00  0.00000000000E+00  0.11982559100E+03  0.11982559100E+03  0.00000000000E+00 0. -1.
          2   -1    0    0  501    0  0.00000000000E+00 -0.00000000000E+00 -0.74725638178E+03  0.74725638178E+03  0.00000000000E+00 0.  1.
         23    2    1    2    0    0  0.13196489559E+03  0.59632180382E+02  0.40555394563E+02  0.17224023247E+03  0.83971584752E+02 0.  0.
          5    1    1    2  502    0  0.16333696815E+02  0.15605190398E+02 -0.11846937979E+03  0.12069546623E+03  0.47000000000E+01 0.  1.
         -5    1    1    2    0  502 -0.14829859241E+03 -0.75237370780E+02 -0.54951680554E+03  0.57414627409E+03  0.47000000000E+01 0.  1.
        -11    1    3    3    0    0 -0.32778132577E+01  0.27913760023E+02  0.25403630046E+01  0.28220125843E+02  0.00000000000E+00 0.  1.
         11    1    3    3    0    0  0.13524270885E+03  0.31718420359E+02  0.38015031559E+02  0.14402010662E+03  0.00000000000E+00 0. -1.
<mgrwt>
<rscale>  0 0.18502929E+03</rscale>
<asrwt>0</asrwt>
<pdfrwt beam="2">  1        2 0.11496252E+00 0.19130996E+03</pdfrwt>
<pdfrwt beam="1">  1       -2 0.18434706E-01 0.19130996E+03</pdfrwt>
<totfact> 0.93806625E+02</totfact>
</mgrwt>
</event>
<event>
 7    1  0.1422977E-005  0.1473282E+03  0.7546771E-02  0.1213997E+00
          1   -1    0    0  501    0  0.00000000000E+00  0.00000000000E+00  0.95644840503E+02  0.95644840503E+02  0.00000000000E+00 0. -1.
         -1   -1    0    0    0  501 -0.00000000000E+00 -0.00000000000E+00 -0.18521844475E+03  0.18521844475E+03  0.00000000000E+00 0.  1.
         23    2    1    2    0    0 -0.56704359688E+02 -0.53527934219E+02 -0.47858197374E+02  0.12774310990E+03  0.89147467272E+02 0.  0.
          5    1    1    2  502    0  0.92781088067E+02  0.22471621095E+02 -0.10852020165E+02  0.96193349038E+02  0.47000000000E+01 0.  1.
         -5    1    1    2    0  502 -0.36076728379E+02  0.31056313125E+02 -0.30863386706E+02  0.56926826316E+02  0.47000000000E+01 0.  1.
        -11    1    3    3    0    0 -0.46158481876E+02 -0.29768122129E+02  0.17304755481E+02  0.57586466348E+02  0.00000000000E+00 0. -1.
         11    1    3    3    0    0 -0.10545877812E+02 -0.23759812091E+02 -0.65162952855E+02  0.70156643550E+02  0.00000000000E+00 0.  1.
<mgrwt>
<rscale>  0 0.13950462E+03</rscale>
<asrwt>0</asrwt>
<pdfrwt beam="1">  1        1 0.14714591E-01 0.14732825E+03</pdfrwt>
<pdfrwt beam="2">  1       -1 0.28495145E-01 0.14732825E+03</pdfrwt>
<totfact> 0.41074240E+03</totfact>
</mgrwt>
</event>
<event>
 7    1  0.1422977E-005  0.1313289E+03  0.7546771E-02  0.1241274E+00
          3   -1    0    0  501    0  0.00000000000E+00  0.00000000000E+00  0.42950948142E+02  0.42950948142E+02  0.00000000000E+00 0. -1.
         -3   -1    0    0    0  501 -0.00000000000E+00 -0.00000000000E+00 -0.30099140779E+03  0.30099140779E+03  0.00000000000E+00 0.  1.
         23    2    1    2    0    0  0.42205762025E+01  0.40059099106E+02 -0.91935748831E+02  0.13219236481E+03  0.86023803193E+02 0.  0.
          5    1    1    2  502    0 -0.63013539816E+02 -0.11101431127E+02 -0.66304980620E+02  0.92262605796E+02  0.47000000000E+01 0. -1.
         -5    1    1    2    0  502  0.58792963613E+02 -0.28957667979E+02 -0.99799730199E+02  0.11948738533E+03  0.47000000000E+01 0. -1.
        -11    1    3    3    0    0  0.37254964191E+02  0.76541529951E+01 -0.72762130708E+02  0.82102655743E+02  0.00000000000E+00 0.  1.
         11    1    3    3    0    0 -0.33034387989E+02  0.32404946111E+02 -0.19173618123E+02  0.50089709065E+02  0.00000000000E+00 0. -1.
<mgrwt>
<rscale>  0 0.12111194E+03</rscale>
<asrwt>0</asrwt>
<pdfrwt beam="1">  1        3 0.66078384E-02 0.13132891E+03</pdfrwt>
<pdfrwt beam="2">  1       -3 0.46306369E-01 0.13132891E+03</pdfrwt>
<totfact> 0.15506820E+03</totfact>
</mgrwt>
</event>
<event>
 7    1  0.1422977E-005  0.1589585E+03  0.7546771E-02  0.1197439E+00
         -2   -1    0    0    0  501 -0.00000000000E+00  0.00000000000E+00  0.17267852079E+02  0.17267852079E+02  0.00000000000E+00 0. -1.
          2   -1    0    0  501    0  0.00000000000E+00 -0.00000000000E+00 -0.12644926573E+04  0.12644926573E+04  0.00000000000E+00 0.  1.
         23    2    1    2    0    0 -0.59344068153E+02 -0.78242730034E+02 -0.49970940562E+03  0.51753079060E+03  0.92113983338E+02 0.  0.
          5    1    1    2  502    0  0.61609909414E+02  0.91963596260E+02 -0.73900020595E+03  0.74725931133E+03  0.47000000000E+01 0.  1.
         -5    1    1    2    0  502 -0.22658412609E+01 -0.13720866226E+02 -0.85151936823E+01  0.16970407480E+02  0.47000000000E+01 0.  1.
        -11    1    3    3    0    0 -0.68290947045E+02 -0.42352600069E+02 -0.44011309965E+03  0.44738902162E+03  0.00000000000E+00 0.  1.
         11    1    3    3    0    0  0.89468788917E+01 -0.35890129965E+02 -0.59596305975E+02  0.70141768987E+02  0.00000000000E+00 0. -1.
<mgrwt>
<rscale>  0 0.15249596E+03</rscale>
<asrwt>0</asrwt>
<pdfrwt beam="2">  1        2 0.19453733E+00 0.15895846E+03</pdfrwt>
<pdfrwt beam="1">  1       -2 0.26565927E-02 0.15895846E+03</pdfrwt>
<totfact> 0.91270766E+03</totfact>
</mgrwt>
</event>
<event>
 7    1  0.1422977E-005  0.1296353E+03  0.7546771E-02  0.1243123E+00
          2   -1    0    0  501    0  0.00000000000E+00  0.00000000000E+00  0.18624418210E+04  0.18624418210E+04  0.00000000000E+00 0.  1.
         -2   -1    0    0    0  501 -0.00000000000E+00 -0.00000000000E+00 -0.10392140102E+02  0.10392140102E+02  0.00000000000E+00 0. -1.
         23    2    1    2    0    0 -0.25595349005E+02 -0.22922003939E+02  0.28556532765E+03  0.30099474095E+03  0.88711541346E+02 0.  0.
          5    1    1    2  502    0 -0.84121737464E+01 -0.45406240414E+02  0.36765767637E+03  0.37057623821E+03  0.47000000000E+01 0. -1.
         -5    1    1    2    0  502  0.34007522751E+02  0.68328244353E+02  0.11988266769E+04  0.12012629819E+04  0.47000000000E+01 0. -1.
        -11    1    3    3    0    0  0.17806251192E+02  0.97965952607E+00  0.89055912733E+01  0.19933185150E+02  0.00000000000E+00 0.  1.
         11    1    3    3    0    0 -0.43401600197E+02 -0.23901663465E+02  0.27665973638E+03  0.28106155580E+03  0.00000000000E+00 0. -1.
<mgrwt>
<rscale>  0 0.11998450E+03</rscale>
<asrwt>0</asrwt>
<pdfrwt beam="1">  1        2 0.28652925E+00 0.12963528E+03</pdfrwt>
<pdfrwt beam="2">  1       -2 0.15987923E-02 0.12963528E+03</pdfrwt>
<totfact> 0.92453109E+03</totfact>
</mgrwt>
</event>
<event>
 7    1  0.1422977E-005  0.1485645E+03  0.7546771E-02  0.1210216E+00
          2   -1    0    0  501    0  0.00000000000E+00  0.00000000000E+00  0.17892290529E+03  0.17892290529E+03  0.00000000000E+00 0. -1.
         -2   -1    0    0    0  501 -0.00000000000E+00 -0.00000000000E+00 -0.10470888769E+03  0.10470888769E+03  0.00000000000E+00 0.  1.
         23    2    1    2    0    0  0.80918017847E+01  0.79881842044E+02  0.33382334992E+02  0.12955834314E+03  0.96043729853E+02 0.  0.
          5    1    1    2  502    0 -0.16059972186E+02 -0.67080164830E+02  0.83598897661E+02  0.10848288764E+03  0.47000000000E+01 0.  1.
         -5    1    1    2    0  502  0.79681704011E+01 -0.12801677214E+02 -0.42767215051E+02  0.45590562206E+02  0.47000000000E+01 0.  1.
        -11    1    3    3    0    0 -0.61581911312E+01  0.96962770659E+02  0.10628683999E+02  0.97737767191E+02  0.00000000000E+00 0.  1.
         11    1    3    3    0    0  0.14249992916E+02 -0.17080928615E+02  0.22753650993E+02  0.31820575953E+02  0.00000000000E+00 0. -1.
<mgrwt>
<rscale>  0 0.14233878E+03</rscale>
<asrwt>0</asrwt>
<pdfrwt beam="1">  1        2 0.27526601E-01 0.14856447E+03</pdfrwt>
<pdfrwt beam="2">  1       -2 0.16109060E-01 0.14856447E+03</pdfrwt>
<totfact> 0.56225822E+03</totfact>
</mgrwt>
</event>
<event>
 7    1  0.1422977E-005  0.1263367E+03  0.7546771E-02  0.1249586E+00
          1   -1    0    0  501    0  0.00000000000E+00  0.00000000000E+00  0.11862650262E+04  0.11862650262E+04  0.00000000000E+00 0. -1.
         -1   -1    0    0    0  501 -0.00000000000E+00 -0.00000000000E+00 -0.12290859903E+02  0.12290859903E+02  0.00000000000E+00 0.  1.
         23    2    1    2    0    0 -0.86734080565E+01  0.16001420241E+02  0.24628650832E+03  0.26230519353E+03  0.88406430293E+02 0.  0.
          5    1    1    2  502    0  0.13429750623E+02 -0.63428493328E+02  0.31183568416E+03  0.31853903354E+03  0.47000000000E+01 0.  1.
         -5    1    1    2    0  502 -0.47563425665E+01  0.47427073088E+02  0.61585197384E+03  0.61771165906E+03  0.47000000000E+01 0.  1.
        -11    1    3    3    0    0  0.54265139083E+01  0.51633188834E+02  0.13876931632E+03  0.14816327613E+03  0.00000000000E+00 0. -1.
         11    1    3    3    0    0 -0.14099921965E+02 -0.35631768593E+02  0.10751719200E+03  0.11414191740E+03  0.00000000000E+00 0.  1.
<mgrwt>
<rscale>  0 0.11615067E+03</rscale>
<asrwt>0</asrwt>
<pdfrwt beam="1">  1        1 0.18250222E+00 0.12633673E+03</pdfrwt>
<pdfrwt beam="2">  1       -1 0.18909025E-02 0.12633673E+03</pdfrwt>
<totfact> 0.84283333E+03</totfact>
</mgrwt>
</event>
<event>
 7    1  0.1422977E-005  0.1309040E+03  0.7546771E-02  0.1239098E+00
         -2   -1    0    0    0  501 -0.00000000000E+00  0.00000000000E+00  0.14603925406E+02  0.14603925406E+02  0.00000000000E+00 0.  1.
          2   -1    0    0  501    0  0.00000000000E+00 -0.00000000000E+00 -0.91596703545E+03  0.91596703545E+03  0.00000000000E+00 0. -1.
         23    2    1    2    0    0  0.36633782091E+02  0.13024743318E+02 -0.40838827746E+03  0.42051209189E+03  0.92399980160E+02 0.  0.
          5    1    1    2  502    0 -0.50058142581E+02  0.46487411041E+02 -0.22512071753E+03  0.23530474812E+03  0.47000000000E+01 0. -1.
         -5    1    1    2    0  502  0.13424360489E+02 -0.59512154359E+02 -0.26785411505E+03  0.27475412085E+03  0.47000000000E+01 0. -1.
        -11    1    3    3    0    0  0.60794708060E+02  0.23470731113E+02 -0.35563317587E+03  0.36155473655E+03  0.00000000000E+00 0. -1.
         11    1    3    3    0    0 -0.24160925968E+02 -0.10445987795E+02 -0.52755101592E+02  0.58957355339E+02  0.00000000000E+00 0.  1.
<mgrwt>
<rscale>  0 0.12245667E+03</rscale>
<asrwt>0</asrwt>
<pdfrwt beam="2">  1        2 0.14091802E+00 0.13090403E+03</pdfrwt>
<pdfrwt beam="1">  1       -2 0.22467575E-02 0.13090403E+03</pdfrwt>
<totfact> 0.18353828E+04</totfact>
</mgrwt>
</event>
<event>
 7    1  0.1422977E-005  0.2129005E+03  0.7546771E-02  0.1143080E+00
          1   -1    0    0  501    0  0.00000000000E+00  0.00000000000E+00  0.63809834185E+03  0.63809834185E+03  0.00000000000E+00 0. -1.
         -1   -1    0    0    0  501 -0.00000000000E+00 -0.00000000000E+00 -0.66007774059E+02  0.66007774059E+02  0.00000000000E+00 0.  1.
         23    2    1    2    0    0  0.14283786193E+03  0.96437334939E+02  0.31721221405E+03  0.37200731836E+03  0.89794441893E+02 0.  0.
          5    1    1    2  502    0  0.12174236760E+02 -0.17852757868E+01 -0.57672516313E+01  0.14378819204E+02  0.47000000000E+01 0. -1.
         -5    1    1    2    0  502 -0.15501209869E+03 -0.94652059153E+02  0.26064560537E+03  0.31771997835E+03  0.47000000000E+01 0. -1.
        -11    1    3    3    0    0  0.73235246836E+02  0.64096387318E+02  0.25587661501E+03  0.27376009635E+03  0.00000000000E+00 0.  1.
         11    1    3    3    0    0  0.69602615098E+02  0.32340947622E+02  0.61335599043E+02  0.98247222004E+02  0.00000000000E+00 0. -1.
<mgrwt>
<rscale>  0 0.20809899E+03</rscale>
<asrwt>0</asrwt>
<pdfrwt beam="1">  1        1 0.98168971E-01 0.21290053E+03</pdfrwt>
<pdfrwt beam="2">  1       -1 0.10155043E-01 0.21290053E+03</pdfrwt>
<totfact> 0.19092533E+03</totfact>
</mgrwt>
</event>
<event>
 7    1  0.1422977E-005  0.1452000E+03  0.7546771E-02  0.1216118E+00
         -1   -1    0    0    0  501 -0.00000000000E+00  0.00000000000E+00  0.13893815649E+03  0.13893815649E+03  0.00000000000E+00 0.  1.
          1   -1    0    0  501    0  0.00000000000E+00 -0.00000000000E+00 -0.15837006969E+03  0.15837006969E+03  0.00000000000E+00 0. -1.
         23    2    1    2    0    0 -0.18561366450E+02  0.71590572369E+02  0.59099015770E+02  0.13223207821E+03  0.92319523751E+02 0.  0.
          5    1    1    2  502    0  0.28984362984E+02  0.30480875257E+02 -0.19357836140E+02  0.46540228556E+02  0.47000000000E+01 0. -1.
         -5    1    1    2    0  502 -0.10422996534E+02 -0.10207144763E+03 -0.59173092826E+02  0.11853591942E+03  0.47000000000E+01 0. -1.
        -11    1    3    3    0    0 -0.48436411663E+02  0.22598287705E+02  0.51722467888E+02  0.74377296714E+02  0.00000000000E+00 0.  1.
         11    1    3    3    0    0  0.29875045213E+02  0.48992284664E+02  0.73765478818E+01  0.57854781494E+02  0.00000000000E+00 0. -1.
<mgrwt>
<rscale>  0 0.13794701E+03</rscale>
<asrwt>0</asrwt>
<pdfrwt beam="2">  1        1 0.24364626E-01 0.14519996E+03</pdfrwt>
<pdfrwt beam="1">  1       -1 0.21375101E-01 0.14519996E+03</pdfrwt>
<totfact> 0.34553910E+03</totfact>
</mgrwt>
</event>
<event>
 7    1  0.1422977E-005  0.1554790E+03  0.7546771E-02  0.1205327E+00
         -2   -1    0    0    0  501 -0.00000000000E+00  0.00000000000E+00  0.49271602489E+03  0.49271602489E+03  0.00000000000E+00 0.  1.
          2   -1    0    0  501    0  0.00000000000E+00 -0.00000000000E+00 -0.39595682813E+02  0.39595682813E+02  0.00000000000E+00 0. -1.
         23    2    1    2    0    0  0.18325307251E+02  0.78182546069E+02  0.23499694885E+03  0.26444695332E+03  0.90886180223E+02 0.  0.
          5    1    1    2  502    0 -0.44917147799E+02 -0.61135843389E+01  0.10968837800E+02  0.46875702475E+02  0.47000000000E+01 0. -1.
         -5    1    1    2    0  502  0.26591840548E+02 -0.72068961730E+02  0.20715455543E+03  0.22098905191E+03  0.47000000000E+01 0.  1.
        -11    1    3    3    0    0  0.43408694505E+02  0.72374595235E+01  0.64501385724E+02  0.78084085058E+02  0.00000000000E+00 0.  1.
         11    1    3    3    0    0 -0.25083387255E+02  0.70945086546E+02  0.17049556312E+03  0.18636286826E+03  0.00000000000E+00 0. -1.
<mgrwt>
<rscale>  0 0.14611684E+03</rscale>
<asrwt>0</asrwt>
<pdfrwt beam="2">  1        2 0.60916439E-02 0.15547898E+03</pdfrwt>
<pdfrwt beam="1">  1       -2 0.75802461E-01 0.15547898E+03</pdfrwt>
<totfact> 0.18860739E+03</totfact>
</mgrwt>
</event>
<event>
 7    1  0.1422977E-005  0.1175406E+03  0.7546771E-02  0.1256694E+00
          1   -1    0    0  501    0  0.00000000000E+00  0.00000000000E+00  0.15121532330E+03  0.15121532330E+03  0.00000000000E+00 0. -1.
         -1   -1    0    0    0  501 -0.00000000000E+00 -0.00000000000E+00 -0.12446519766E+03  0.12446519766E+03  0.00000000000E+00 0.  1.
         23    2    1    2    0    0 -0.34555195489E+02  0.61631371452E+01 -0.72894668912E+02  0.12158676421E+03  0.90761570508E+02 0.  0.
          5    1    1    2  502    0  0.68704084974E+02  0.19214409671E+02  0.79072065033E+02  0.10660171809E+03  0.47000000000E+01 0. -1.
         -5    1    1    2    0  502 -0.34148889485E+02 -0.25377546817E+02  0.20572729527E+02  0.47492038656E+02  0.47000000000E+01 0.  1.
        -11    1    3    3    0    0  0.20910608226E+02  0.79282256618E+01  0.77719794968E+01  0.23675176110E+02  0.00000000000E+00 0. -1.
         11    1    3    3    0    0 -0.55465803715E+02 -0.17650885167E+01 -0.80666648409E+02  0.97911588103E+02  0.00000000000E+00 0.  1.
<mgrwt>
<rscale>  0 0.11212000E+03</rscale>
<asrwt>0</asrwt>
<pdfrwt beam="1">  1        1 0.23263896E-01 0.11754063E+03</pdfrwt>
<pdfrwt beam="2">  1       -1 0.19148492E-01 0.11754063E+03</pdfrwt>
<totfact> 0.43183227E+03</totfact>
</mgrwt>
</event>
<event>
 7    1  0.1422977E-005  0.1447683E+03  0.7546771E-02  0.1217090E+00
         -1   -1    0    0    0  501 -0.00000000000E+00  0.00000000000E+00  0.77461958519E+02  0.77461958519E+02  0.00000000000E+00 0.  1.
          1   -1    0    0  501    0  0.00000000000E+00 -0.00000000000E+00 -0.30917647286E+03  0.30917647286E+03  0.00000000000E+00 0. -1.
         23    2    1    2    0    0  0.67758777728E+02 -0.27230832905E+02 -0.42415330502E+01  0.11700566756E+03  0.91321221080E+02 0.  0.
          5    1    1    2  502    0  0.30052790393E+02 -0.18769084685E+02 -0.44627282225E+02  0.57176333121E+02  0.47000000000E+01 0. -1.
         -5    1    1    2    0  502 -0.97811568121E+02  0.45999917590E+02 -0.18284569907E+03  0.21245643069E+03  0.47000000000E+01 0. -1.
        -11    1    3    3    0    0  0.76723097702E+02 -0.12695921399E+02  0.26233611955E+02  0.82072056983E+02  0.00000000000E+00 0.  1.
         11    1    3    3    0    0 -0.89643199744E+01 -0.14534911506E+02 -0.30475145006E+02  0.34933610581E+02  0.00000000000E+00 0. -1.
<mgrwt>
<rscale>  0 0.13724152E+03</rscale>
<asrwt>0</asrwt>
<pdfrwt beam="2">  1        1 0.47565611E-01 0.14476833E+03</pdfrwt>
<pdfrwt beam="1">  1       -1 0.11917224E-01 0.14476833E+03</pdfrwt>
<totfact> 0.37799387E+03</totfact>
</mgrwt>
</event>
<event>
 7    1  0.1422977E-005  0.1524159E+03  0.7546771E-02  0.1205901E+00
          2   -1    0    0  501    0  0.00000000000E+00  0.00000000000E+00  0.60021349617E+03  0.60021349617E+03  0.00000000000E+00 0. -1.
         -2   -1    0    0    0  501 -0.00000000000E+00 -0.00000000000E+00 -0.32883312370E+02  0.32883312370E+02  0.00000000000E+00 0.  1.
         23    2    1    2    0    0 -0.44750203592E+02  0.74849037439E+02  0.22684781818E+03  0.26005679966E+03  0.92545379729E+02 0.  0.
          5    1    1    2  502    0  0.32006402314E+02 -0.53102323463E+02  0.45756940663E+02  0.77201387067E+02  0.47000000000E+01 0.  1.
         -5    1    1    2    0  502  0.12743801278E+02 -0.21746713976E+02  0.29472542496E+03  0.29583862181E+03  0.47000000000E+01 0.  1.
        -11    1    3    3    0    0 -0.57082914585E+02  0.86510461171E+01  0.12839956136E+03  0.14078262355E+03  0.00000000000E+00 0.  1.
         11    1    3    3    0    0  0.12332710993E+02  0.66197991322E+02  0.98448256819E+02  0.11927417611E+03  0.00000000000E+00 0. -1.
<mgrwt>
<rscale>  0 0.14566665E+03</rscale>
<asrwt>0</asrwt>
<pdfrwt beam="1">  1        2 0.92340529E-01 0.15241590E+03</pdfrwt>
<pdfrwt beam="2">  1       -2 0.50589716E-02 0.15241590E+03</pdfrwt>
<totfact> 0.93439051E+03</totfact>
</mgrwt>
</event>
<event>
 7    1  0.1422977E-005  0.1393135E+03  0.7546771E-02  0.1229072E+00
          1   -1    0    0  501    0  0.00000000000E+00  0.00000000000E+00  0.14316018525E+04  0.14316018525E+04  0.00000000000E+00 0. -1.
         -1   -1    0    0    0  501 -0.00000000000E+00 -0.00000000000E+00 -0.34305462789E+02  0.34305462789E+02  0.00000000000E+00 0.  1.
         23    2    1    2    0    0  0.14887707412E+02  0.40490183299E+02  0.54271816257E+02  0.11567649840E+03  0.92598722817E+02 0.  0.
          5    1    1    2  502    0  0.49511698982E+01 -0.68506746884E+02  0.12320646706E+04  0.12339866819E+04  0.47000000000E+01 0. -1.
         -5    1    1    2    0  502 -0.19838877310E+02  0.28016563585E+02  0.11095990285E+03  0.11624413503E+03  0.47000000000E+01 0.  1.
        -11    1    3    3    0    0 -0.29426680784E+02 -0.13089887078E+02  0.22121029048E+02  0.39071915896E+02  0.00000000000E+00 0. -1.
         11    1    3    3    0    0  0.44314388196E+02  0.53580070377E+02  0.32150787209E+02  0.76604582506E+02  0.00000000000E+00 0.  1.
<mgrwt>
<rscale>  0 0.12891686E+03</rscale>
<asrwt>0</asrwt>
<pdfrwt beam="1">  1        1 0.22024639E+00 0.13931351E+03</pdfrwt>
<pdfrwt beam="2">  1       -1 0.52777646E-02 0.13931351E+03</pdfrwt>
<totfact> 0.12966460E+03</totfact>
</mgrwt>
</event>
<event>
 7    1  0.1422977E-005  0.1598551E+03  0.7546771E-02  0.1196662E+00
         -4   -1    0    0    0  501 -0.00000000000E+00  0.00000000000E+00  0.62707074025E+02  0.62707074025E+02  0.00000000000E+00 0.  1.
          4   -1    0    0  501    0  0.00000000000E+00 -0.00000000000E+00 -0.44697863205E+03  0.44697863205E+03  0.00000000000E+00 0. -1.
         23    2    1    2    0    0 -0.30142932505E+02  0.94971229255E+02 -0.58509466475E+02  0.14681574689E+03  0.90572485350E+02 0.  0.
          5    1    1    2  502    0 -0.11093433480E+02  0.12270565091E+02 -0.16118117898E+03  0.16209593916E+03  0.47000000000E+01 0. -1.
         -5    1    1    2    0  502  0.41236365985E+02 -0.10724179435E+03 -0.16458091257E+03  0.20077402002E+03  0.47000000000E+01 0. -1.
        -11    1    3    3    0    0  0.28668774001E+02  0.19848561505E+02  0.54843486453E-01  0.34869284540E+02  0.00000000000E+00 0.  1.
         11    1    3    3    0    0 -0.58811706507E+02  0.75122667750E+02 -0.58564309962E+02  0.11194646235E+03  0.00000000000E+00 0. -1.
<mgrwt>
<rscale>  0 0.15314372E+03</rscale>
<asrwt>0</asrwt>
<pdfrwt beam="2">  1        4 0.68765943E-01 0.15985514E+03</pdfrwt>
<pdfrwt beam="1">  1       -4 0.96472422E-02 0.15985514E+03</pdfrwt>
<totfact> 0.27417284E+02</totfact>
</mgrwt>
</event>
<event>
 7    1  0.1422977E-005  0.1401580E+03  0.7546771E-02  0.1225141E+00
         -2   -1    0    0    0  501 -0.00000000000E+00  0.00000000000E+00  0.42600503657E+02  0.42600503657E+02  0.00000000000E+00 0.  1.
          2   -1    0    0  501    0  0.00000000000E+00 -0.00000000000E+00 -0.36400328712E+03  0.36400328712E+03  0.00000000000E+00 0. -1.
         23    2    1    2    0    0  0.62021037696E+02  0.13134456377E+02 -0.14454818185E+03  0.18094518736E+03  0.88475199296E+02 0.  0.
          5    1    1    2  502    0 -0.46172924417E+02 -0.66655639507E+02 -0.12653721186E+03  0.15036179439E+03  0.47000000000E+01 0. -1.
         -5    1    1    2    0  502 -0.15848113279E+02  0.53521183131E+02 -0.50317389749E+02  0.75296809025E+02  0.47000000000E+01 0. -1.
        -11    1    3    3    0    0  0.39713173932E+02 -0.34783045157E+02 -0.93996557324E+02  0.10780699979E+03  0.00000000000E+00 0. -1.
         11    1    3    3    0    0  0.22307863764E+02  0.47917501534E+02 -0.50551624524E+02  0.73138187570E+02  0.00000000000E+00 0.  1.
<mgrwt>
<rscale>  0 0.13157225E+03</rscale>
<asrwt>0</asrwt>
<pdfrwt beam="2">  1        2 0.56000505E-01 0.14015797E+03</pdfrwt>
<pdfrwt beam="1">  1       -2 0.65539237E-02 0.14015797E+03</pdfrwt>
<totfact> 0.10847946E+04</totfact>
</mgrwt>
</event>
<event>
 7    1  0.1422977E-005  0.1352059E+03  0.7546771E-02  0.1231407E+00
          2   -1    0    0  501    0  0.00000000000E+00  0.00000000000E+00  0.74291655588E+02  0.74291655588E+02  0.00000000000E+00 0. -1.
         -2   -1    0    0    0  501 -0.00000000000E+00 -0.00000000000E+00 -0.19835481204E+03  0.19835481204E+03  0.00000000000E+00 0.  1.
         23    2    1    2    0    0  0.93688491750E+01 -0.50676056473E+02 -0.67520893793E+02  0.12609385831E+03  0.93192016664E+02 0.  0.
          5    1    1    2  502    0 -0.52599100637E+02  0.16550962494E+01 -0.61208886224E+02  0.80858039082E+02  0.47000000000E+01 0.  1.
         -5    1    1    2    0  502  0.43230251462E+02  0.49020960223E+02  0.46666235684E+01  0.65694570234E+02  0.47000000000E+01 0.  1.
        -11    1    3    3    0    0  0.22476893605E+02  0.20225315627E+02 -0.37035562891E+02  0.47811160382E+02  0.00000000000E+00 0.  1.
         11    1    3    3    0    0 -0.13108044430E+02 -0.70901372100E+02 -0.30485330902E+02  0.78282697927E+02  0.00000000000E+00 0. -1.
<mgrwt>
<rscale>  0 0.12737266E+03</rscale>
<asrwt>0</asrwt>
<pdfrwt beam="1">  1        2 0.11429485E-01 0.13520592E+03</pdfrwt>
<pdfrwt beam="2">  1       -2 0.30516125E-01 0.13520592E+03</pdfrwt>
<totfact> 0.51133626E+03</totfact>
</mgrwt>
</event>
<event>
 7    1  0.1422977E-005  0.1691588E+03  0.7546771E-02  0.1185932E+00
          3   -1    0    0  501    0  0.00000000000E+00  0.00000000000E+00  0.91402100139E+03  0.91402100139E+03  0.00000000000E+00 0. -1.
         -3   -1    0    0    0  501 -0.00000000000E+00 -0.00000000000E+00 -0.27697502509E+02  0.27697502509E+02  0.00000000000E+00 0.  1.
         23    2    1    2    0    0  0.11047077919E+03 -0.28019361626E+02  0.32492697266E+03  0.35539030919E+03  0.87953718630E+02 0.  0.
          5    1    1    2  502    0 -0.50907708553E+02  0.46628877366E+01  0.47977499894E+03  0.48251370645E+03  0.47000000000E+01 0.  1.
         -5    1    1    2    0  502 -0.59563070635E+02  0.23356473890E+02  0.81621527283E+02  0.10381448826E+03  0.47000000000E+01 0.  1.
        -11    1    3    3    0    0  0.34993983206E+02  0.89979490485E+01  0.25084231566E+02  0.43985913892E+02  0.00000000000E+00 0.  1.
         11    1    3    3    0    0  0.75476795983E+02 -0.37017310675E+02  0.29984274109E+03  0.31140439529E+03  0.00000000000E+00 0. -1.
<mgrwt>
<rscale>  0 0.16247331E+03</rscale>
<asrwt>0</asrwt>
<pdfrwt beam="1">  1        3 0.14061859E+00 0.16915878E+03</pdfrwt>
<pdfrwt beam="2">  1       -3 0.42611549E-02 0.16915878E+03</pdfrwt>
<totfact> 0.28464640E+02</totfact>
</mgrwt>
</event>
<event>
 7    1  0.1422977E-005  0.1196147E+03  0.7546771E-02  0.1256844E+00
         -1   -1    0    0    0  501 -0.00000000000E+00  0.00000000000E+00  0.23552683357E+02  0.23552683357E+02  0.00000000000E+00 0.  1.
          1   -1    0    0  501    0  0.00000000000E+00 -0.00000000000E+00 -0.57107734710E+03  0.57107734710E+03  0.00000000000E+00 0. -1.
         23    2    1    2    0    0  0.10979611310E+02  0.61048774920E+01 -0.12338559275E+03  0.15394689601E+03  0.91202088236E+02 0.  0.
          5    1    1    2  502    0 -0.39598163321E+02 -0.29665743272E+02 -0.37826797120E+03  0.38151909375E+03  0.47000000000E+01 0. -1.
         -5    1    1    2    0  502  0.28618552011E+02  0.23560865780E+02 -0.45871099803E+02  0.59164040705E+02  0.47000000000E+01 0.  1.
        -11    1    3    3    0    0 -0.15661406609E+02 -0.37550464430E+02 -0.49238362570E+02  0.63872790642E+02  0.00000000000E+00 0. -1.
         11    1    3    3    0    0  0.26641017919E+02  0.43655341922E+02 -0.74147230178E+02  0.90074105365E+02  0.00000000000E+00 0.  1.
<mgrwt>
<rscale>  0 0.11203661E+03</rscale>
<asrwt>0</asrwt>
<pdfrwt beam="2">  1        1 0.87858054E-01 0.11961469E+03</pdfrwt>
<pdfrwt beam="1">  1       -1 0.36234897E-02 0.11961469E+03</pdfrwt>
<totfact> 0.10153146E+04</totfact>
</mgrwt>
</event>
<event>
 7    1  0.1422977E-005  0.1211601E+03  0.7546771E-02  0.1248574E+00
          1   -1    0    0  501    0  0.00000000000E+00  0.00000000000E+00  0.11376938181E+03  0.11376938181E+03  0.00000000000E+00 0. -1.
         -1   -1    0    0    0  501 -0.00000000000E+00 -0.00000000000E+00 -0.11183854305E+03  0.11183854305E+03  0.00000000000E+00 0.  1.
         23    2    1    2    0    0 -0.33156239822E+02 -0.37199392426E+02 -0.45483354800E+00  0.10442433525E+03  0.91766572798E+02 0.  0.
          5    1    1    2  502    0  0.52345986364E+02 -0.15919329540E+02  0.24778553594E+02  0.60246112403E+02  0.47000000000E+01 0. -1.
         -5    1    1    2    0  502 -0.19189746542E+02  0.53118721967E+02 -0.22392881280E+02  0.60937477202E+02  0.47000000000E+01 0.  1.
        -11    1    3    3    0    0 -0.41610012403E+02 -0.46543584845E+02 -0.32216915831E+02  0.70254025423E+02  0.00000000000E+00 0. -1.
         11    1    3    3    0    0  0.84537725814E+01  0.93441924190E+01  0.31762082283E+02  0.34170309828E+02  0.00000000000E+00 0.  1.
<mgrwt>
<rscale>  0 0.11673985E+03</rscale>
<asrwt>0</asrwt>
<pdfrwt beam="1">  1        1 0.17502982E-01 0.12116010E+03</pdfrwt>
<pdfrwt beam="2">  1       -1 0.17205930E-01 0.12116010E+03</pdfrwt>
<totfact> 0.73502777E+03</totfact>
</mgrwt>
</event>
<event>
 7    1  0.1422977E-005  0.2400283E+03  0.7546771E-02  0.1122564E+00
         -2   -1    0    0    0  501 -0.00000000000E+00  0.00000000000E+00  0.80845896168E+02  0.80845896168E+02  0.00000000000E+00 0.  1.
          2   -1    0    0  501    0  0.00000000000E+00 -0.00000000000E+00 -0.73415546576E+03  0.73415546576E+03  0.00000000000E+00 0. -1.
         23    2    1    2    0    0 -0.20291521580E+03  0.28548763528E+02 -0.19181533361E+03  0.29481819114E+03  0.90194384063E+02 0.  0.
          5    1    1    2  502    0  0.21721681342E+03 -0.17959188431E+02 -0.39476938079E+03  0.45096632966E+03  0.47000000000E+01 0.  1.
         -5    1    1    2    0  502 -0.14301597615E+02 -0.10589575097E+02 -0.66724855194E+02  0.69216841128E+02  0.47000000000E+01 0.  1.
        -11    1    3    3    0    0 -0.40002139677E+02 -0.21023730812E+02 -0.11144948540E+02  0.46544369305E+02  0.00000000000E+00 0.  1.
         11    1    3    3    0    0 -0.16291307612E+03  0.49572494340E+02 -0.18067038507E+03  0.24827382184E+03  0.00000000000E+00 0. -1.
<mgrwt>
<rscale>  0 0.23588661E+03</rscale>
<asrwt>0</asrwt>
<pdfrwt beam="2">  1        2 0.11294699E+00 0.24002833E+03</pdfrwt>
<pdfrwt beam="1">  1       -2 0.12437830E-01 0.24002833E+03</pdfrwt>
<totfact> 0.18399949E+03</totfact>
</mgrwt>
</event>
<event>
 7    1  0.1422977E-005  0.1331733E+03  0.7546771E-02  0.1236352E+00
          1   -1    0    0  501    0  0.00000000000E+00  0.00000000000E+00  0.75845479122E+02  0.75845479122E+02  0.00000000000E+00 0. -1.
         -1   -1    0    0    0  501 -0.00000000000E+00 -0.00000000000E+00 -0.21326146962E+03  0.21326146962E+03  0.00000000000E+00 0.  1.
         23    2    1    2    0    0 -0.35016848656E+02  0.29671863169E+02 -0.11702490694E+03  0.15438163132E+03  0.89622877055E+02 0.  0.
          5    1    1    2  502    0  0.54329092804E+02 -0.30764328626E+01 -0.61257622907E+02  0.82071317330E+02  0.47000000000E+01 0. -1.
         -5    1    1    2    0  502 -0.19312244148E+02 -0.26595430306E+02  0.40866539348E+02  0.52654000090E+02  0.47000000000E+01 0. -1.
        -11    1    3    3    0    0 -0.45233843658E+02  0.60213856595E+01 -0.13338276562E+02  0.47542268762E+02  0.00000000000E+00 0. -1.
         11    1    3    3    0    0  0.10216995002E+02  0.23650477510E+02 -0.10368663037E+03  0.10683936256E+03  0.00000000000E+00 0.  1.
<mgrwt>
<rscale>  0 0.12418278E+03</rscale>
<asrwt>0</asrwt>
<pdfrwt beam="1">  1        1 0.11668535E-01 0.13317325E+03</pdfrwt>
<pdfrwt beam="2">  1       -1 0.32809456E-01 0.13317325E+03</pdfrwt>
<totfact> 0.43589457E+03</totfact>
</mgrwt>
</event>
<event>
 7    1  0.1422977E-005  0.1708561E+03  0.7546771E-02  0.1183427E+00
         -2   -1    0    0    0  501 -0.00000000000E+00  0.00000000000E+00  0.29003661760E+02  0.29003661760E+02  0.00000000000E+00 0.  1.
          2   -1    0    0  501    0  0.00000000000E+00 -0.00000000000E+00 -0.88336200348E+03  0.88336200348E+03  0.00000000000E+00 0. -1.
         23    2    1    2    0    0  0.46625137338E+02 -0.10668949301E+03 -0.35198617940E+03  0.38173433643E+03  0.90941089587E+02 0.  0.
          5    1    1    2  502    0 -0.20585937910E+02 -0.93930666738E+01 -0.12054594553E+02  0.26065567153E+02  0.47000000000E+01 0. -1.
         -5    1    1    2    0  502 -0.26039199428E+02  0.11608255968E+03 -0.49031756777E+03  0.50456576166E+03  0.47000000000E+01 0. -1.
        -11    1    3    3    0    0  0.22726700269E+02 -0.11392317493E+03 -0.23539151379E+03  0.26249601417E+03  0.00000000000E+00 0.  1.
         11    1    3    3    0    0  0.23898437068E+02  0.72336819162E+01 -0.11659466561E+03  0.11923832227E+03  0.00000000000E+00 0. -1.
<mgrwt>
<rscale>  0 0.16475810E+03</rscale>
<asrwt>0</asrwt>
<pdfrwt beam="2">  1        2 0.13590184E+00 0.17085613E+03</pdfrwt>
<pdfrwt beam="1">  1       -2 0.44621019E-02 0.17085613E+03</pdfrwt>
<totfact> 0.70975424E+03</totfact>
</mgrwt>
</event>
<event>
 7    1  0.1422977E-005  0.1643078E+03  0.7546771E-02  0.1190649E+00
         -2   -1    0    0    0  501 -0.00000000000E+00  0.00000000000E+00  0.47260355665E+02  0.47260355665E+02  0.00000000000E+00 0. -1.
          2   -1    0    0  501    0  0.00000000000E+00 -0.00000000000E+00 -0.51200809303E+03  0.51200809303E+03  0.00000000000E+00 0.  1.
         23    2    1    2    0    0  0.35569898436E+02 -0.10053437835E+03 -0.16435239165E+03  0.21687330932E+03  0.93005079154E+02 0.  0.
          5    1    1    2  502    0 -0.54754287047E+02 -0.65223999687E+01 -0.10702989395E+03  0.12049092020E+03  0.47000000000E+01 0. -1.
         -5    1    1    2    0  502  0.19184388611E+02  0.10705677832E+03 -0.19336545177E+03  0.22190421918E+03  0.47000000000E+01 0. -1.
        -11    1    3    3    0    0 -0.31935412705E+02 -0.29206270950E+02 -0.51793592077E+02  0.67494096243E+02  0.00000000000E+00 0.  1.
         11    1    3    3    0    0  0.67505311141E+02 -0.71328107405E+02 -0.11255879957E+03  0.14937921308E+03  0.00000000000E+00 0. -1.
<mgrwt>
<rscale>  0 0.15828255E+03</rscale>
<asrwt>0</asrwt>
<pdfrwt beam="2">  1        2 0.78770478E-01 0.16430784E+03</pdfrwt>
<pdfrwt beam="1">  1       -2 0.72708237E-02 0.16430784E+03</pdfrwt>
<totfact> 0.64587106E+03</totfact>
</mgrwt>
</event>
<event>
 7    1  0.1422977E-005  0.1326517E+03  0.7546771E-02  0.1239030E+00
          1   -1    0    0  501    0  0.00000000000E+00  0.00000000000E+00  0.83192025608E+03  0.83192025608E+03  0.00000000000E+00 0. -1.
         -1   -1    0    0    0  501 -0.00000000000E+00 -0.00000000000E+00 -0.24339007690E+02  0.24339007690E+02  0.00000000000E+00 0.  1.
         23    2    1    2    0    0 -0.26250852796E+01  0.44326857023E+02  0.11057925319E+03  0.14674658249E+03  0.85644771642E+02 0.  0.
          5    1    1    2  502    0  0.29879874991E+02  0.33629575180E+02  0.34332406855E+03  0.34629071790E+03  0.47000000000E+01 0. -1.
         -5    1    1    2    0  502 -0.27254789712E+02 -0.77956432204E+02  0.35367792665E+03  0.36322196338E+03  0.47000000000E+01 0. -1.
        -11    1    3    3    0    0  0.15775140853E+02  0.35335357845E+02  0.11859920094E+03  0.12475260738E+03  0.00000000000E+00 0. -1.
         11    1    3    3    0    0 -0.18400226133E+02  0.89914991782E+01 -0.80199477541E+01  0.21993975111E+02  0.00000000000E+00 0.  1.
<mgrwt>
<rscale>  0 0.12249955E+03</rscale>
<asrwt>0</asrwt>
<pdfrwt beam="1">  1        1 0.12798771E+00 0.13265166E+03</pdfrwt>
<pdfrwt beam="2">  1       -1 0.37444634E-02 0.13265166E+03</pdfrwt>
<totfact> 0.57011424E+03</totfact>
</mgrwt>
</event>
<event>
 7    1  0.1422977E-005  0.1296077E+03  0.7546771E-02  0.1243093E+00
         -2   -1    0    0    0  501 -0.00000000000E+00  0.00000000000E+00  0.57240547174E+02  0.57240547174E+02  0.00000000000E+00 0.  1.
          2   -1    0    0  501    0  0.00000000000E+00 -0.00000000000E+00 -0.23118487022E+03  0.23118487022E+03  0.00000000000E+00 0. -1.
         23    2    1    2    0    0 -0.24432683668E+02  0.23940064817E+02 -0.44099949537E+02  0.10496499116E+03  0.88897475138E+02 0.  0.
          5    1    1    2  502    0  0.43013204782E+02  0.13384756673E+02  0.17631125777E+01  0.45326438893E+02  0.47000000000E+01 0.  1.
         -5    1    1    2    0  502 -0.18580521114E+02 -0.37324821490E+02 -0.13160748609E+03  0.13813398734E+03  0.47000000000E+01 0.  1.
        -11    1    3    3    0    0  0.89478154213E+00 -0.30697169973E+02 -0.67216283117E+00  0.30717563075E+02  0.00000000000E+00 0.  1.
         11    1    3    3    0    0 -0.25327465210E+02  0.54637234790E+02 -0.43427786706E+02  0.74247428088E+02  0.00000000000E+00 0. -1.
<mgrwt>
<rscale>  0 0.12000273E+03</rscale>
<asrwt>0</asrwt>
<pdfrwt beam="2">  1        2 0.35566903E-01 0.12960774E+03</pdfrwt>
<pdfrwt beam="1">  1       -2 0.88062381E-02 0.12960774E+03</pdfrwt>
<totfact> 0.11083972E+04</totfact>
</mgrwt>
</event>
<event>
 7    1  0.1422977E-005  0.1260274E+03  0.7546771E-02  0.1245014E+00
         -3   -1    0    0    0  501 -0.00000000000E+00  0.00000000000E+00  0.16869782506E+03  0.16869782506E+03  0.00000000000E+00 0.  1.
          3   -1    0    0  501    0  0.00000000000E+00 -0.00000000000E+00 -0.90679248939E+02  0.90679248939E+02  0.00000000000E+00 0. -1.
         23    2    1    2    0    0  0.14716343458E+01 -0.38206694620E+02  0.88001403878E+02  0.13295489430E+03  0.92037164303E+02 0.  0.
          5    1    1    2  502    0 -0.31192268783E+02 -0.27645825838E+02 -0.29687113272E+02  0.51387391571E+02  0.47000000000E+01 0. -1.
         -5    1    1    2    0  502  0.29720634437E+02  0.65852520457E+02  0.19704285517E+02  0.75034788129E+02  0.47000000000E+01 0.  1.
        -11    1    3    3    0    0  0.31652636558E+02  0.59924403046E+01  0.69020077559E+02  0.76168036919E+02  0.00000000000E+00 0.  1.
         11    1    3    3    0    0 -0.30181002212E+02 -0.44199134924E+02  0.18981326319E+02  0.56786857383E+02  0.00000000000E+00 0. -1.
<mgrwt>
<rscale>  0 0.11884544E+03</rscale>
<asrwt>0</asrwt>
<pdfrwt beam="2">  1        3 0.13950654E-01 0.12602742E+03</pdfrwt>
<pdfrwt beam="1">  1       -3 0.25953512E-01 0.12602742E+03</pdfrwt>
<totfact> 0.13401305E+03</totfact>
</mgrwt>
</event>
<event>
 7    1  0.1422977E-005  0.2197019E+03  0.7546771E-02  0.1134105E+00
          1   -1    0    0  501    0  0.00000000000E+00  0.00000000000E+00  0.18423088291E+02  0.18423088291E+02  0.00000000000E+00 0. -1.
         -1   -1    0    0    0  501 -0.00000000000E+00 -0.00000000000E+00 -0.65500602695E+03  0.65500602695E+03  0.00000000000E+00 0.  1.
         23    2    1    2    0    0  0.13905959239E+02  0.13315229807E+01 -0.31277887241E+03  0.32605239883E+03  0.91018652500E+02 0.  0.
          5    1    1    2  502    0  0.49616160114E+02  0.25657777291E+02 -0.16123086657E+03  0.17069729703E+03  0.47000000000E+01 0.  1.
         -5    1    1    2    0  502 -0.63522119353E+02 -0.26989300272E+02 -0.16257319969E+03  0.17667941938E+03  0.47000000000E+01 0.  1.
        -11    1    3    3    0    0  0.52579912831E+02 -0.37709481747E+01 -0.19382379518E+03  0.20086445893E+03  0.00000000000E+00 0.  1.
         11    1    3    3    0    0 -0.38673953592E+02  0.51024711554E+01 -0.11895507723E+03  0.12518793990E+03  0.00000000000E+00 0. -1.
<mgrwt>
<rscale>  0 0.21970192E+03</rscale>
<asrwt>0</asrwt>
<pdfrwt beam="1">  1        1 0.28343212E-02 0.21970192E+03</pdfrwt>
<pdfrwt beam="2">  1       -1 0.10077016E+00 0.21970192E+03</pdfrwt>
<totfact> 0.36138085E+03</totfact>
</mgrwt>
</event>
<event>
 7    1  0.1422977E-005  0.1271612E+03  0.7546771E-02  0.1242610E+00
         -1   -1    0    0    0  501 -0.00000000000E+00  0.00000000000E+00  0.15101752156E+02  0.15101752156E+02  0.00000000000E+00 0.  1.
          1   -1    0    0  501    0  0.00000000000E+00 -0.00000000000E+00 -0.86826573213E+03  0.86826573213E+03  0.00000000000E+00 0. -1.
         23    2    1    2    0    0 -0.20497053086E+02  0.11245474258E+02 -0.37485684580E+03  0.38844559236E+03  0.99124837964E+02 0.  0.
          5    1    1    2  502    0  0.27144093794E+02  0.49386392144E+02 -0.13761822587E+03  0.14878401677E+03  0.47000000000E+01 0.  1.
         -5    1    1    2    0  502 -0.66470407084E+01 -0.60631866402E+02 -0.34068890831E+03  0.34613787516E+03  0.47000000000E+01 0.  1.
        -11    1    3    3    0    0  0.27408014995E+02  0.33566333510E+02 -0.10732376924E+03  0.11574234089E+03  0.00000000000E+00 0.  1.
         11    1    3    3    0    0 -0.47905068081E+02 -0.22320859252E+02 -0.26753307656E+03  0.27270325146E+03  0.00000000000E+00 0. -1.
<mgrwt>
<rscale>  0 0.12029578E+03</rscale>
<asrwt>0</asrwt>
<pdfrwt beam="2">  1        1 0.13357940E+00 0.12716118E+03</pdfrwt>
<pdfrwt beam="1">  1       -1 0.23233456E-02 0.12716118E+03</pdfrwt>
<totfact> 0.10656386E+04</totfact>
</mgrwt>
</event>
<event>
 7    1  0.1422977E-005  0.1687578E+03  0.7546771E-02  0.1185759E+00
         -3   -1    0    0    0  501 -0.00000000000E+00  0.00000000000E+00  0.12049437973E+03  0.12049437973E+03  0.00000000000E+00 0.  1.
          3   -1    0    0  501    0  0.00000000000E+00 -0.00000000000E+00 -0.21053394787E+03  0.21053394787E+03  0.00000000000E+00 0. -1.
         23    2    1    2    0    0  0.44603598507E+02 -0.10423679652E+03 -0.14937589984E+02  0.14631370619E+03  0.91267618997E+02 0.  0.
          5    1    1    2  502    0  0.53543431740E+01  0.10538643687E+03 -0.82438671995E+02  0.13398953208E+03  0.47000000000E+01 0.  1.
         -5    1    1    2    0  502 -0.49957941681E+02 -0.11496403552E+01  0.73366938415E+01  0.50725089319E+02  0.47000000000E+01 0.  1.
        -11    1    3    3    0    0  0.58569906942E+02 -0.10917570597E+03  0.18716549213E+01  0.12390832041E+03  0.00000000000E+00 0. -1.
         11    1    3    3    0    0 -0.13966308435E+02  0.49389094564E+01 -0.16809244906E+02  0.22405385786E+02  0.00000000000E+00 0.  1.
<mgrwt>
<rscale>  0 0.16262986E+03</rscale>
<asrwt>0</asrwt>
<pdfrwt beam="2">  1        3 0.32389838E-01 0.16875777E+03</pdfrwt>
<pdfrwt beam="1">  1       -3 0.18537597E-01 0.16875777E+03</pdfrwt>
<totfact> 0.57015698E+02</totfact>
</mgrwt>
</event>
<event>
 6    1  0.1422977E-005  0.1569290E+03  0.7546771E-02  0.1194023E+00
         -2   -1    0    0    0  501 -0.00000000000E+00  0.00000000000E+00  0.92568917725E+02  0.92568917725E+02  0.00000000000E+00 0.  1.
          2   -1    0    0  501    0  0.00000000000E+00 -0.00000000000E+00 -0.32908204990E+03  0.32908204990E+03  0.00000000000E+00 0. -1.
          5    1    1    2  502    0  0.14045203039E+02 -0.84159324383E+02 -0.17372423244E+03  0.19360335365E+03  0.47000000000E+01 0.  1.
         -5    1    1    2    0  502  0.48197577228E+02  0.27228203451E+02 -0.42216152012E+02  0.69775891284E+02  0.47000000000E+01 0.  1.
        -11    1    1    2    0    0  0.71552183287E+01 -0.35894401894E+02  0.10874259063E+02  0.38181864109E+02  0.00000000000E+00 0.  1.
         11    1    1    2    0    0 -0.69397998595E+02  0.92825522826E+02 -0.31447006783E+02  0.12008985857E+03  0.00000000000E+00 0. -1.
<mgrwt>
<rscale>  0 0.15537183E+03</rscale>
<asrwt>0</asrwt>
<pdfrwt beam="2">  1        2 0.50628008E-01 0.15692897E+03</pdfrwt>
<pdfrwt beam="1">  1       -2 0.14241372E-01 0.15692897E+03</pdfrwt>
<totfact> 0.35883869E+03</totfact>
</mgrwt>
</event>
<event>
 7    1  0.1422977E-005  0.1497852E+03  0.7546771E-02  0.1207917E+00
         -2   -1    0    0    0  501 -0.00000000000E+00  0.00000000000E+00  0.13443282345E+03  0.13443282345E+03  0.00000000000E+00 0.  1.
          2   -1    0    0  501    0  0.00000000000E+00 -0.00000000000E+00 -0.18697319096E+03  0.18697319096E+03  0.00000000000E+00 0. -1.
         23    2    1    2    0    0 -0.22097453630E+02 -0.87769874431E+02  0.52321144662E+02  0.13856303070E+03  0.90941536070E+02 0.  0.
          5    1    1    2  502    0  0.53080528421E+02  0.29953622579E+02 -0.99608689924E+02  0.11687062553E+03  0.47000000000E+01 0. -1.
         -5    1    1    2    0  502 -0.30983074791E+02  0.57816251853E+02 -0.52528222467E+01  0.65972358176E+02  0.47000000000E+01 0.  1.
        -11    1    3    3    0    0 -0.57626004134E+02 -0.48266606698E+02  0.31312136643E+02  0.81430163795E+02  0.00000000000E+00 0.  1.
         11    1    3    3    0    0  0.35528550504E+02 -0.39503267733E+02  0.21009008020E+02  0.57132866903E+02  0.00000000000E+00 0. -1.
<mgrwt>
<rscale>  0 0.14409961E+03</rscale>
<asrwt>0</asrwt>
<pdfrwt beam="2">  1        2 0.28765106E-01 0.14978525E+03</pdfrwt>
<pdfrwt beam="1">  1       -2 0.20681973E-01 0.14978525E+03</pdfrwt>
<totfact> 0.35267313E+03</totfact>
</mgrwt>
</event>
<event>
 7    1  0.1422977E-005  0.1404537E+03  0.7546771E-02  0.1227831E+00
          2   -1    0    0  501    0  0.00000000000E+00  0.00000000000E+00  0.14859587827E+03  0.14859587827E+03  0.00000000000E+00 0. -1.
         -2   -1    0    0    0  501 -0.00000000000E+00 -0.00000000000E+00 -0.99529363021E+02  0.99529363021E+02  0.00000000000E+00 0.  1.
         23    2    1    2    0    0  0.32007745843E+02  0.34013036020E+02  0.28467149890E+02  0.10616901363E+03  0.90995046121E+02 0.  0.
          5    1    1    2  502    0 -0.46767981563E+02  0.11581717566E+02  0.61854799573E+02  0.78546078906E+02  0.47000000000E+01 0. -1.
         -5    1    1    2    0  502  0.14760235720E+02 -0.45594753587E+02 -0.41255434215E+02  0.63410148757E+02  0.47000000000E+01 0.  1.
        -11    1    3    3    0    0 -0.31632674009E+02  0.93275508573E+01  0.16467311545E+02  0.36861926421E+02  0.00000000000E+00 0. -1.
         11    1    3    3    0    0  0.63640419852E+02  0.24685485163E+02  0.11999838344E+02  0.69307087206E+02  0.00000000000E+00 0.  1.
<mgrwt>
<rscale>  0 0.12974750E+03</rscale>
<asrwt>0</asrwt>
<pdfrwt beam="1">  1        2 0.22860904E-01 0.14045368E+03</pdfrwt>
<pdfrwt beam="2">  1       -2 0.15312210E-01 0.14045368E+03</pdfrwt>
<totfact> 0.74757451E+03</totfact>
</mgrwt>
</event>
<event>
 7    1  0.1422977E-005  0.1499595E+03  0.7546771E-02  0.1210005E+00
         -2   -1    0    0    0  501 -0.00000000000E+00  0.00000000000E+00  0.50437281619E+02  0.50437281619E+02  0.00000000000E+00 0.  1.
          2   -1    0    0  501    0  0.00000000000E+00 -0.00000000000E+00 -0.70676899066E+03  0.70676899066E+03  0.00000000000E+00 0. -1.
         23    2    1    2    0    0 -0.71276260078E+02 -0.42226615423E+02 -0.49152074237E+02  0.13178245484E+03  0.89929398427E+02 0.  0.
          5    1    1    2  502    0  0.53811892110E+02  0.15446764539E+02 -0.58133930311E+03  0.58404776997E+03  0.47000000000E+01 0.  1.
         -5    1    1    2    0  502  0.17464367968E+02  0.26779850883E+02 -0.25840331693E+02  0.41376047466E+02  0.47000000000E+01 0.  1.
        -11    1    3    3    0    0 -0.18248479757E+01 -0.51868781585E+02 -0.25124664500E+02  0.57662373689E+02  0.00000000000E+00 0. -1.
         11    1    3    3    0    0 -0.69451412102E+02  0.96421661626E+01 -0.24027409737E+02  0.74120081152E+02  0.00000000000E+00 0.  1.
<mgrwt>
<rscale>  0 0.14249941E+03</rscale>
<asrwt>0</asrwt>
<pdfrwt beam="2">  1        2 0.10873369E+00 0.14995947E+03</pdfrwt>
<pdfrwt beam="1">  1       -2 0.77595815E-02 0.14995947E+03</pdfrwt>
<totfact> 0.40181267E+03</totfact>
</mgrwt>
</event>
<event>
 7    1  0.1422977E-005  0.1274286E+03  0.7546771E-02  0.1243657E+00
          1   -1    0    0  501    0  0.00000000000E+00  0.00000000000E+00  0.41260215807E+03  0.41260215807E+03  0.00000000000E+00 0. -1.
         -1   -1    0    0    0  501 -0.00000000000E+00 -0.00000000000E+00 -0.59492128044E+02  0.59492128044E+02  0.00000000000E+00 0.  1.
         23    2    1    2    0    0 -0.20866766505E+02  0.13430014147E+02  0.25793717359E+01  0.99120035973E+02  0.95928833770E+02 0.  0.
          5    1    1    2  502    0 -0.35596972225E+02  0.35430625868E+02  0.10869290362E+03  0.11982783891E+03  0.47000000000E+01 0.  1.
         -5    1    1    2    0  502  0.56463738730E+02 -0.48860640014E+02  0.24183775467E+03  0.25314641123E+03  0.47000000000E+01 0.  1.
        -11    1    3    3    0    0 -0.48571885461E+02  0.58717871398E+01  0.31639255879E+02  0.58264469911E+02  0.00000000000E+00 0. -1.
         11    1    3    3    0    0  0.27705118956E+02  0.75582270071E+01 -0.29059884143E+02  0.40855566062E+02  0.00000000000E+00 0.  1.
<mgrwt>
<rscale>  0 0.11966132E+03</rscale>
<asrwt>0</asrwt>
<pdfrwt beam="1">  1        1 0.63477253E-01 0.12742860E+03</pdfrwt>
<pdfrwt beam="2">  1       -1 0.91526353E-02 0.12742860E+03</pdfrwt>
<totfact> 0.39222523E+03</totfact>
</mgrwt>
</event>
<event>
 7    1  0.1422977E-005  0.1391774E+03  0.7546771E-02  0.1225406E+00
         -3   -1    0    0    0  501 -0.00000000000E+00  0.00000000000E+00  0.66195975741E+02  0.66195975741E+02  0.00000000000E+00 0. -1.
          3   -1    0    0  501    0  0.00000000000E+00 -0.00000000000E+00 -0.23772692771E+03  0.23772692771E+03  0.00000000000E+00 0.  1.
         23    2    1    2    0    0 -0.36131325928E+02 -0.49403280647E+02 -0.61505946695E+02  0.12650857515E+03  0.92061290761E+02 0.  0.
          5    1    1    2  502    0  0.11670648508E+02  0.67589861940E+02 -0.61129959330E+01  0.69022113796E+02  0.47000000000E+01 0.  1.
         -5    1    1    2    0  502  0.24460677420E+02 -0.18186581293E+02 -0.10391200934E+03  0.10839221450E+03  0.47000000000E+01 0.  1.
        -11    1    3    3    0    0 -0.23683278536E+02 -0.23928984954E+02 -0.83884120752E+02  0.90388272013E+02  0.00000000000E+00 0.  1.
         11    1    3    3    0    0 -0.12448047392E+02 -0.25474295693E+02  0.22378174057E+02  0.36120303141E+02  0.00000000000E+00 0. -1.
<mgrwt>
<rscale>  0 0.13139135E+03</rscale>
<asrwt>0</asrwt>
<pdfrwt beam="2">  1        3 0.36573373E-01 0.13917738E+03</pdfrwt>
<pdfrwt beam="1">  1       -3 0.10183996E-01 0.13917738E+03</pdfrwt>
<totfact> 0.12215211E+03</totfact>
</mgrwt>
</event>
<event>
 7    1  0.1422977E-005  0.1380567E+03  0.7546771E-02  0.1227499E+00
          1   -1    0    0  501    0  0.00000000000E+00  0.00000000000E+00  0.98724195216E+03  0.98724195216E+03  0.00000000000E+00 0. -1.
         -1   -1    0    0    0  501 -0.00000000000E+00 -0.00000000000E+00 -0.15997984165E+02  0.15997984165E+02  0.00000000000E+00 0.  1.
         23    2    1    2    0    0 -0.53513412856E+02  0.23901399204E+02  0.33217521019E+03  0.34942916278E+03  0.91243669890E+02 0.  0.
          5    1    1    2  502    0  0.84525240741E+02 -0.32676981339E+02  0.30649723974E+03  0.31964816502E+03  0.47000000000E+01 0. -1.
         -5    1    1    2    0  502 -0.31011827885E+02  0.87755821353E+01  0.33257151806E+03  0.33416260852E+03  0.47000000000E+01 0. -1.
        -11    1    3    3    0    0 -0.50598322391E+02  0.51409965477E+02  0.29112529093E+03  0.29992850781E+03  0.00000000000E+00 0.  1.
         11    1    3    3    0    0 -0.29150904642E+01 -0.27508566273E+02  0.41049919266E+02  0.49500654971E+02  0.00000000000E+00 0. -1.
<mgrwt>
<rscale>  0 0.12997078E+03</rscale>
<asrwt>0</asrwt>
<pdfrwt beam="1">  1        1 0.15188333E+00 0.13805669E+03</pdfrwt>
<pdfrwt beam="2">  1       -1 0.24612291E-02 0.13805669E+03</pdfrwt>
<totfact> 0.80050836E+03</totfact>
</mgrwt>
</event>
<event>
 7    1  0.1422977E-005  0.1264232E+03  0.7546771E-02  0.1246876E+00
         -1   -1    0    0    0  501 -0.00000000000E+00  0.00000000000E+00  0.11307176187E+03  0.11307176187E+03  0.00000000000E+00 0.  1.
          1   -1    0    0  501    0  0.00000000000E+00 -0.00000000000E+00 -0.10852996987E+03  0.10852996987E+03  0.00000000000E+00 0. -1.
         23    2    1    2    0    0 -0.76554021034E+01  0.17268308915E+02  0.37926609729E+01  0.95176275097E+02  0.93205897828E+02 0.  0.
          5    1    1    2  502    0  0.13566450812E+02  0.35013550890E+02 -0.43399476688E+02  0.57581263536E+02  0.47000000000E+01 0.  1.
         -5    1    1    2    0  502 -0.59110487083E+01 -0.52281859805E+02  0.44148607711E+02  0.68844193105E+02  0.47000000000E+01 0.  1.
        -11    1    3    3    0    0  0.12482954196E+02 -0.36020517772E+02  0.22417060441E+01  0.38188049074E+02  0.00000000000E+00 0.  1.
         11    1    3    3    0    0 -0.20138356300E+02  0.53288826687E+02  0.15509549289E+01  0.56988226024E+02  0.00000000000E+00 0. -1.
<mgrwt>
<rscale>  0 0.11773785E+03</rscale>
<asrwt>0</asrwt>
<pdfrwt beam="2">  1        1 0.16696918E-01 0.12642324E+03</pdfrwt>
<pdfrwt beam="1">  1       -1 0.17395656E-01 0.12642324E+03</pdfrwt>
<totfact> 0.76985560E+03</totfact>
</mgrwt>
</event>
<event>
 6    1  0.1422977E-005  0.1451517E+03  0.7546771E-02  0.1229264E+00
          1   -1    0    0  501    0  0.00000000000E+00  0.00000000000E+00  0.19538927544E+04  0.19538927544E+04  0.00000000000E+00 0. -1.
         -1   -1    0    0    0  501 -0.00000000000E+00 -0.00000000000E+00 -0.81368553818E+01  0.81368553818E+01  0.00000000000E+00 0.  1.
          5    1    1    2  502    0  0.37678537662E+02 -0.79851194106E+02  0.62856960495E+03  0.63475800402E+03  0.47000000000E+01 0.  1.
         -5    1    1    2    0  502 -0.35391095855E+02  0.61027679838E+01  0.88899121282E+03  0.88972874513E+03  0.47000000000E+01 0.  1.
        -11    1    1    2    0    0 -0.25157988142E+02  0.50597921375E+02  0.24064020430E+03  0.24718572358E+03  0.00000000000E+00 0.  1.
         11    1    1    2    0    0  0.22870546334E+02  0.23150504747E+02  0.18755487692E+03  0.19035713702E+03  0.00000000000E+00 0. -1.
<mgrwt>
<rscale>  0 0.12878890E+03</rscale>
<asrwt>0</asrwt>
<pdfrwt beam="1">  1        1 0.30059851E+00 0.14515169E+03</pdfrwt>
<pdfrwt beam="2">  1       -1 0.12518255E-02 0.14515169E+03</pdfrwt>
<totfact> 0.48601279E+03</totfact>
</mgrwt>
</event>
<event>
 7    1  0.1422977E-005  0.1696961E+03  0.7546771E-02  0.1184884E+00
         -2   -1    0    0    0  501 -0.00000000000E+00  0.00000000000E+00  0.75161336975E+02  0.75161336975E+02  0.00000000000E+00 0. -1.
          2   -1    0    0  501    0  0.00000000000E+00 -0.00000000000E+00 -0.33145164118E+03  0.33145164118E+03  0.00000000000E+00 0.  1.
         23    2    1    2    0    0 -0.10641365261E+03 -0.42986142747E+02 -0.12027317943E+03  0.18913327719E+03  0.90189161868E+02 0.  0.
          5    1    1    2  502    0  0.43663342398E+02  0.70248600700E+02 -0.24200042034E+02  0.86308084234E+02  0.47000000000E+01 0. -1.
         -5    1    1    2    0  502  0.62750310209E+02 -0.27262457953E+02 -0.11181708274E+03  0.13117161673E+03  0.47000000000E+01 0. -1.
        -11    1    3    3    0    0 -0.10633556350E+03 -0.71543446880E+01 -0.70422606831E+02  0.12774106727E+03  0.00000000000E+00 0. -1.
         11    1    3    3    0    0 -0.78089104846E-01 -0.35831798059E+02 -0.49850572604E+02  0.61392209921E+02  0.00000000000E+00 0.  1.
<mgrwt>
<rscale>  0 0.16342406E+03</rscale>
<asrwt>0</asrwt>
<pdfrwt beam="2">  1        2 0.50992561E-01 0.16969609E+03</pdfrwt>
<pdfrwt beam="1">  1       -2 0.11563283E-01 0.16969609E+03</pdfrwt>
<totfact> 0.50035668E+03</totfact>
</mgrwt>
</event>
<event>
 7    1  0.1422977E-005  0.1756810E+03  0.7546771E-02  0.1177916E+00
          2   -1    0    0  501    0  0.00000000000E+00  0.00000000000E+00  0.55918542483E+02  0.55918542483E+02  0.00000000000E+00 0. -1.
         -2   -1    0    0    0  501 -0.00000000000E+00 -0.00000000000E+00 -0.48601815365E+03  0.48601815365E+03  0.00000000000E+00 0.  1.
         23    2    1    2    0    0  0.27782284021E+02 -0.12027822604E+03 -0.19064752642E+03  0.24494996052E+03  0.91734927161E+02 0.  0.
          5    1    1    2  502    0 -0.59240102827E+02  0.73958565228E+02 -0.21634132318E+03  0.23623064422E+03  0.47000000000E+01 0.  1.
         -5    1    1    2    0  502  0.31457818806E+02  0.46319660811E+02 -0.23110761566E+02  0.60756091397E+02  0.47000000000E+01 0.  1.
        -11    1    3    3    0    0 -0.47776767285E+01 -0.11944595572E+03 -0.16355500541E+03  0.20258430919E+03  0.00000000000E+00 0.  1.
         11    1    3    3    0    0  0.32559960749E+02 -0.83227031715E+00 -0.27092521011E+02  0.42365651330E+02  0.00000000000E+00 0. -1.
<mgrwt>
<rscale>  0 0.16993456E+03</rscale>
<asrwt>0</asrwt>
<pdfrwt beam="1">  1        2 0.86028529E-02 0.17568102E+03</pdfrwt>
<pdfrwt beam="2">  1       -2 0.74772022E-01 0.17568102E+03</pdfrwt>
<totfact> 0.12588242E+03</totfact>
</mgrwt>
</event>
<event>
 7    1  0.1422977E-005  0.1260282E+03  0.7546771E-02  0.1255764E+00
         -2   -1    0    0    0  501 -0.00000000000E+00  0.00000000000E+00  0.91435222244E+02  0.91435222244E+02  0.00000000000E+00 0.  1.
          2   -1    0    0  501    0  0.00000000000E+00 -0.00000000000E+00 -0.13147847847E+03  0.13147847847E+03  0.00000000000E+00 0. -1.
         23    2    1    2    0    0  0.13103833403E+02 -0.92690575017E+01  0.20667723580E+02  0.83024703178E+02  0.78792897288E+02 0.  0.
          5    1    1    2  502    0 -0.55691201837E+02  0.13922027755E+02  0.86358950570E+01  0.58240892012E+02  0.47000000000E+01 0.  1.
         -5    1    1    2    0  502  0.42587368434E+02 -0.46529702529E+01 -0.69346874862E+02  0.81648105522E+02  0.47000000000E+01 0.  1.
        -11    1    3    3    0    0 -0.81820889190E+00  0.11018593350E+02  0.46237401507E+02  0.47539206591E+02  0.00000000000E+00 0.  1.
         11    1    3    3    0    0  0.13922042295E+02 -0.20287650852E+02 -0.25569677927E+02  0.35485496587E+02  0.00000000000E+00 0. -1.
<mgrwt>
<rscale>  0 0.11263668E+03</rscale>
<asrwt>0</asrwt>
<pdfrwt beam="2">  1        2 0.20227458E-01 0.12602821E+03</pdfrwt>
<pdfrwt beam="1">  1       -2 0.14066957E-01 0.12602821E+03</pdfrwt>
<totfact> 0.97638500E+03</totfact>
</mgrwt>
</event>
<event>
 7    1  0.1422977E-005  0.1484063E+03  0.7546771E-02  0.1212056E+00
          1   -1    0    0  501    0  0.00000000000E+00  0.00000000000E+00  0.74004302311E+03  0.74004302311E+03  0.00000000000E+00 0. -1.
         -1   -1    0    0    0  501 -0.00000000000E+00 -0.00000000000E+00 -0.30246721988E+02  0.30246721988E+02  0.00000000000E+00 0.  1.
         23    2    1    2    0    0 -0.34696633561E+02 -0.72084043786E+02  0.15786597709E+03  0.19875538567E+03  0.90454800108E+02 0.  0.
          5    1    1    2  502    0  0.41749597850E+02 -0.23743361029E+01  0.39917764462E+03  0.40138952198E+03  0.47000000000E+01 0.  1.
         -5    1    1    2    0  502 -0.70529642891E+01  0.74458379889E+02  0.15275267942E+03  0.17014483745E+03  0.47000000000E+01 0.  1.
        -11    1    3    3    0    0 -0.17340216223E+02  0.18932766995E+02  0.52518248892E+02  0.58457670425E+02  0.00000000000E+00 0.  1.
         11    1    3    3    0    0 -0.17356417338E+02 -0.91016810781E+02  0.10534772819E+03  0.14029771525E+03  0.00000000000E+00 0. -1.
<mgrwt>
<rscale>  0 0.14095050E+03</rscale>
<asrwt>0</asrwt>
<pdfrwt beam="1">  1        1 0.11385276E+00 0.14840634E+03</pdfrwt>
<pdfrwt beam="2">  1       -1 0.46533424E-02 0.14840634E+03</pdfrwt>
<totfact> 0.49585699E+03</totfact>
</mgrwt>
</event>
<event>
 7    1  0.1422977E-005  0.1967896E+03  0.7546771E-02  0.1156825E+00
          1   -1    0    0  501    0  0.00000000000E+00  0.00000000000E+00  0.47826524708E+03  0.47826524708E+03  0.00000000000E+00 0. -1.
         -1   -1    0    0    0  501 -0.00000000000E+00 -0.00000000000E+00 -0.73642578012E+02  0.73642578012E+02  0.00000000000E+00 0.  1.
         23    2    1    2    0    0 -0.79147639812E+02  0.12975635043E+03  0.21089031504E+03  0.27575867036E+03  0.92016628586E+02 0.  0.
          5    1    1    2  502    0  0.87598207821E+02 -0.14107829115E+03  0.13069134121E+03  0.21137371387E+03  0.47000000000E+01 0. -1.
         -5    1    1    2    0  502 -0.84505680092E+01  0.11321940724E+02  0.63041012828E+02  0.64775440869E+02  0.47000000000E+01 0. -1.
        -11    1    3    3    0    0 -0.55811650720E+02  0.10216816326E+03  0.83301280676E+02  0.14315158854E+03  0.00000000000E+00 0.  1.
         11    1    3    3    0    0 -0.23335989092E+02  0.27588187169E+02  0.12758903436E+03  0.13260708181E+03  0.00000000000E+00 0. -1.
<mgrwt>
<rscale>  0 0.19182607E+03</rscale>
<asrwt>0</asrwt>
<pdfrwt beam="1">  1        1 0.73579267E-01 0.19678956E+03</pdfrwt>
<pdfrwt beam="2">  1       -1 0.11329628E-01 0.19678956E+03</pdfrwt>
<totfact> 0.23776808E+03</totfact>
</mgrwt>
</event>
<event>
 7    1  0.1422977E-005  0.1233906E+03  0.7546771E-02  0.1246508E+00
         -2   -1    0    0    0  501 -0.00000000000E+00  0.00000000000E+00  0.20611701808E+03  0.20611701808E+03  0.00000000000E+00 0.  1.
          2   -1    0    0  501    0  0.00000000000E+00 -0.00000000000E+00 -0.10298973558E+03  0.10298973558E+03  0.00000000000E+00 0. -1.
         23    2    1    2    0    0  0.45888845637E+02 -0.97145717351E+01  0.14580656321E+03  0.17854346453E+03  0.91749963446E+02 0.  0.
          5    1    1    2  502    0 -0.70148958288E+02  0.33360451924E+02 -0.53791664693E+02  0.94601423308E+02  0.47000000000E+01 0. -1.
         -5    1    1    2    0  502  0.24260112651E+02 -0.23645880189E+02  0.11112383986E+02  0.35961865825E+02  0.47000000000E+01 0.  1.
        -11    1    3    3    0    0  0.20830625214E+02  0.41000323679E+02  0.74089835014E+02  0.87202323025E+02  0.00000000000E+00 0. -1.
         11    1    3    3    0    0  0.25058220423E+02 -0.50714895415E+02  0.71716728195E+02  0.91341141501E+02  0.00000000000E+00 0.  1.
<mgrwt>
<rscale>  0 0.11795548E+03</rscale>
<asrwt>0</asrwt>
<pdfrwt beam="2">  1        2 0.15844575E-01 0.12339065E+03</pdfrwt>
<pdfrwt beam="1">  1       -2 0.31710310E-01 0.12339065E+03</pdfrwt>
<totfact> 0.32212341E+03</totfact>
</mgrwt>
</event>
<event>
 7    1  0.1422977E-005  0.1643439E+03  0.7546771E-02  0.1204775E+00
         -2   -1    0    0    0  501 -0.00000000000E+00  0.00000000000E+00  0.45335940312E+02  0.45335940312E+02  0.00000000000E+00 0.  1.
          2   -1    0    0  501    0  0.00000000000E+00 -0.00000000000E+00 -0.41972349575E+03  0.41972349575E+03  0.00000000000E+00 0. -1.
         23    2    1    2    0    0  0.16500969343E+02  0.46045067397E+02 -0.94366485435E+02  0.14037385600E+03  0.91691633503E+02 0.  0.
          5    1    1    2  502    0  0.26357210865E+02 -0.68912895198E+02 -0.26269032994E+03  0.27289556451E+03  0.47000000000E+01 0. -1.
         -5    1    1    2    0  502 -0.42858180208E+02  0.22867827801E+02 -0.17330740068E+02  0.51790015547E+02  0.47000000000E+01 0.  1.
        -11    1    3    3    0    0  0.24035505926E+02  0.72265029658E+02 -0.75239783975E+02  0.10705589731E+03  0.00000000000E+00 0.  1.
         11    1    3    3    0    0 -0.75345365832E+01 -0.26219962261E+02 -0.19126701460E+02  0.33317958689E+02  0.00000000000E+00 0. -1.
<mgrwt>
<rscale>  0 0.14655213E+03</rscale>
<asrwt>0</asrwt>
<pdfrwt beam="2">  1        2 0.64572845E-01 0.16434393E+03</pdfrwt>
<pdfrwt beam="1">  1       -2 0.69747601E-02 0.16434393E+03</pdfrwt>
<totfact> 0.85583053E+03</totfact>
</mgrwt>
</event>
<event>
 7    1  0.1422977E-005  0.3227655E+03  0.7546771E-02  0.1075757E+00
          1   -1    0    0  501    0  0.00000000000E+00  0.00000000000E+00  0.14510975404E+04  0.14510975404E+04  0.00000000000E+00 0. -1.
         -1   -1    0    0    0  501 -0.00000000000E+00 -0.00000000000E+00 -0.12726985070E+03  0.12726985070E+03  0.00000000000E+00 0.  1.
         23    2    1    2    0    0 -0.35492947345E+02  0.29545537683E+03  0.12210038191E+03  0.33404986930E+03  0.90150889668E+02 0.  0.
          5    1    1    2  502    0  0.22319204272E+02 -0.22043841854E+03  0.10642702915E+04  0.10870991613E+04  0.47000000000E+01 0. -1.
         -5    1    1    2    0  502  0.13173743073E+02 -0.75016958289E+02  0.13745701634E+03  0.15721836050E+03  0.47000000000E+01 0. -1.
        -11    1    3    3    0    0  0.57678199696E+01  0.14739938734E+03  0.10131226216E+03  0.17895256801E+03  0.00000000000E+00 0. -1.
         11    1    3    3    0    0 -0.41260767315E+02  0.14805598949E+03  0.20788119751E+02  0.15509730129E+03  0.00000000000E+00 0.  1.
<mgrwt>
<rscale>  0 0.31976643E+03</rscale>
<asrwt>0</asrwt>
<pdfrwt beam="1">  1        1 0.22324576E+00 0.32276551E+03</pdfrwt>
<pdfrwt beam="2">  1       -1 0.19579978E-01 0.32276551E+03</pdfrwt>
<totfact> 0.16065768E+02</totfact>
</mgrwt>
</event>
<event>
 7    1  0.1422977E-005  0.1442561E+03  0.7546771E-02  0.1217091E+00
          1   -1    0    0  501    0  0.00000000000E+00  0.00000000000E+00  0.55310095691E+03  0.55310095691E+03  0.00000000000E+00 0. -1.
         -1   -1    0    0    0  501 -0.00000000000E+00 -0.00000000000E+00 -0.31130919058E+02  0.31130919058E+02  0.00000000000E+00 0.  1.
         23    2    1    2    0    0 -0.26255286814E+02  0.67014630490E+02  0.23739651182E+03  0.26518340398E+03  0.93727440701E+02 0.  0.
          5    1    1    2  502    0  0.27235225126E+02 -0.82673497037E+02  0.95636336649E+02  0.12940271824E+03  0.47000000000E+01 0.  1.
         -5    1    1    2    0  502 -0.97993831227E+00  0.15658866548E+02  0.18893718939E+03  0.18964575375E+03  0.47000000000E+01 0.  1.
        -11    1    3    3    0    0  0.15414402956E+02  0.60193254481E+02  0.19767987702E+03  0.20721526363E+03  0.00000000000E+00 0. -1.
         11    1    3    3    0    0 -0.41669689770E+02  0.68213760082E+01  0.39716634795E+02  0.57968140350E+02  0.00000000000E+00 0.  1.
<mgrwt>
<rscale>  0 0.13724021E+03</rscale>
<asrwt>0</asrwt>
<pdfrwt beam="1">  1        1 0.85092447E-01 0.14425615E+03</pdfrwt>
<pdfrwt beam="2">  1       -1 0.47893726E-02 0.14425615E+03</pdfrwt>
<totfact> 0.71201538E+03</totfact>
</mgrwt>
</event>
<event>
 7    1  0.1422977E-005  0.2322003E+03  0.7546771E-02  0.1125101E+00
          2   -1    0    0  501    0  0.00000000000E+00  0.00000000000E+00  0.92819696295E+03  0.92819696295E+03  0.00000000000E+00 0. -1.
         -2   -1    0    0    0  501 -0.00000000000E+00 -0.00000000000E+00 -0.14521969567E+02  0.14521969567E+02  0.00000000000E+00 0.  1.
         23    2    1    2    0    0  0.46630018687E+02  0.24377757104E+02  0.32962763521E+03  0.34313007657E+03  0.79468470909E+02 0.  0.
          5    1    1    2  502    0 -0.85674079309E+02 -0.27316890665E+02  0.47884575350E+03  0.48723875669E+03  0.47000000000E+01 0.  1.
         -5    1    1    2    0  502  0.39044060622E+02  0.29391335608E+01  0.10520160468E+03  0.11235009926E+03  0.47000000000E+01 0.  1.
        -11    1    3    3    0    0  0.27173952559E+02 -0.21514603212E+02  0.63204277907E+02  0.72083858074E+02  0.00000000000E+00 0.  1.
         11    1    3    3    0    0  0.19456066128E+02  0.45892360316E+02  0.26642335730E+03  0.27104621849E+03  0.00000000000E+00 0. -1.
<mgrwt>
<rscale>  0 0.23220033E+03</rscale>
<asrwt>0</asrwt>
<pdfrwt beam="1">  1        2 0.14279949E+00 0.23220033E+03</pdfrwt>
<pdfrwt beam="2">  1       -2 0.22341499E-02 0.23220033E+03</pdfrwt>
<totfact> 0.18888937E+04</totfact>
</mgrwt>
</event>
<event>
 7    1  0.1422977E-005  0.1810154E+03  0.7546771E-02  0.1172467E+00
         -2   -1    0    0    0  501 -0.00000000000E+00  0.00000000000E+00  0.13526609832E+03  0.13526609832E+03  0.00000000000E+00 0.  1.
          2   -1    0    0  501    0  0.00000000000E+00 -0.00000000000E+00 -0.23257896240E+03  0.23257896240E+03  0.00000000000E+00 0. -1.
         23    2    1    2    0    0  0.10811058565E+03  0.73838156342E+02  0.64210014888E+01  0.15921308659E+03  0.90374806327E+02 0.  0.
          5    1    1    2  502    0 -0.61071857649E+02  0.25095536153E+02 -0.63809834047E+02  0.91942061390E+02  0.47000000000E+01 0.  1.
         -5    1    1    2    0  502 -0.47038727999E+02 -0.98933692496E+02 -0.39924031529E+02  0.11668991274E+03  0.47000000000E+01 0.  1.
        -11    1    3    3    0    0  0.59340708099E+02  0.81896714830E+02  0.28500920803E+02  0.10507470687E+03  0.00000000000E+00 0.  1.
         11    1    3    3    0    0  0.48769877549E+02 -0.80585584878E+01 -0.22079919314E+02  0.54138379713E+02  0.00000000000E+00 0. -1.
<mgrwt>
<rscale>  0 0.17526412E+03</rscale>
<asrwt>0</asrwt>
<pdfrwt beam="2">  1        2 0.35781378E-01 0.18101543E+03</pdfrwt>
<pdfrwt beam="1">  1       -2 0.20810169E-01 0.18101543E+03</pdfrwt>
<totfact> 0.27785045E+03</totfact>
</mgrwt>
</event>
<event>
 7    1  0.1422977E-005  0.1380658E+03  0.7546771E-02  0.1227721E+00
         -2   -1    0    0    0  501 -0.00000000000E+00  0.00000000000E+00  0.93618154194E+02  0.93618154194E+02  0.00000000000E+00 0.  1.
          2   -1    0    0  501    0  0.00000000000E+00 -0.00000000000E+00 -0.17635557619E+03  0.17635557619E+03  0.00000000000E+00 0. -1.
         23    2    1    2    0    0  0.22936384319E+02  0.53952920866E+02  0.20609209428E+01  0.10794620590E+03  0.90615344053E+02 0.  0.
          5    1    1    2  502    0 -0.63643896826E+02  0.73039551826E+01 -0.43036515524E+02  0.77318335684E+02  0.47000000000E+01 0.  1.
         -5    1    1    2    0  502  0.40707512507E+02 -0.61256876049E+02 -0.41761827414E+02  0.84709188797E+02  0.47000000000E+01 0.  1.
        -11    1    3    3    0    0 -0.34747867598E+02  0.28199713531E+02  0.12945245089E+01  0.44769564880E+02  0.00000000000E+00 0.  1.
         11    1    3    3    0    0  0.57684251917E+02  0.25753207336E+02  0.76639643392E+00  0.63176641022E+02  0.00000000000E+00 0. -1.
<mgrwt>
<rscale>  0 0.12982149E+03</rscale>
<asrwt>0</asrwt>
<pdfrwt beam="2">  1        2 0.27131627E-01 0.13806578E+03</pdfrwt>
<pdfrwt beam="1">  1       -2 0.14402793E-01 0.13806578E+03</pdfrwt>
<totfact> 0.68297792E+03</totfact>
</mgrwt>
</event>
<event>
 7    1  0.1422977E-005  0.1643792E+03  0.7546771E-02  0.1190781E+00
         -2   -1    0    0    0  501 -0.00000000000E+00  0.00000000000E+00  0.67061933714E+02  0.67061933714E+02  0.00000000000E+00 0.  1.
          2   -1    0    0  501    0  0.00000000000E+00 -0.00000000000E+00 -0.35368276444E+03  0.35368276444E+03  0.00000000000E+00 0. -1.
         23    2    1    2    0    0  0.82384201317E+02 -0.67864394045E+02 -0.16036564000E+03  0.21347461048E+03  0.91986619779E+02 0.  0.
          5    1    1    2  502    0 -0.69728521488E+01  0.32822109550E+02  0.19721835144E+02  0.39203983520E+02  0.47000000000E+01 0.  1.
         -5    1    1    2    0  502 -0.75411349168E+02  0.35042284495E+02 -0.14597702586E+03  0.16806610415E+03  0.47000000000E+01 0.  1.
        -11    1    3    3    0    0  0.72544889734E+02 -0.70699301684E+01 -0.11809695997E+03  0.13877909386E+03  0.00000000000E+00 0. -1.
         11    1    3    3    0    0  0.98393115831E+01 -0.60794463877E+02 -0.42268680036E+02  0.74695516616E+02  0.00000000000E+00 0.  1.
<mgrwt>
<rscale>  0 0.15816736E+03</rscale>
<asrwt>0</asrwt>
<pdfrwt beam="2">  1        2 0.54412733E-01 0.16437918E+03</pdfrwt>
<pdfrwt beam="1">  1       -2 0.10317221E-01 0.16437918E+03</pdfrwt>
<totfact> 0.55872813E+03</totfact>
</mgrwt>
</event>
<event>
 7    1  0.1422977E-005  0.1470922E+03  0.7546771E-02  0.1214437E+00
         -1   -1    0    0    0  501 -0.00000000000E+00  0.00000000000E+00  0.42967206295E+02  0.42967206295E+02  0.00000000000E+00 0.  1.
          1   -1    0    0  501    0  0.00000000000E+00 -0.00000000000E+00 -0.45295899401E+03  0.45295899401E+03  0.00000000000E+00 0. -1.
         23    2    1    2    0    0  0.28988644639E+02 -0.71973659374E+02 -0.10745097352E+03  0.15952308139E+03  0.88776982507E+02 0.  0.
          5    1    1    2  502    0  0.46666168075E+02  0.22783882913E+02 -0.15343470251E+03  0.16205287563E+03  0.47000000000E+01 0. -1.
         -5    1    1    2    0  502 -0.75654812713E+02  0.49189776461E+02 -0.14910611168E+03  0.17435024329E+03  0.47000000000E+01 0. -1.
        -11    1    3    3    0    0 -0.53109397622E+01 -0.74309015453E+02 -0.41822224836E+02  0.85434971464E+02  0.00000000000E+00 0.  1.
         11    1    3    3    0    0  0.34299584401E+02  0.23353560800E+01 -0.65628748683E+02  0.74088109922E+02  0.00000000000E+00 0. -1.
<mgrwt>
<rscale>  0 0.13917989E+03</rscale>
<asrwt>0</asrwt>
<pdfrwt beam="2">  1        1 0.69685998E-01 0.14709220E+03</pdfrwt>
<pdfrwt beam="1">  1       -1 0.66103395E-02 0.14709220E+03</pdfrwt>
<totfact> 0.57299726E+03</totfact>
</mgrwt>
</event>
<event>
 7    1  0.1422977E-005  0.1551982E+03  0.7546771E-02  0.1203079E+00
          2   -1    0    0  501    0  0.00000000000E+00  0.00000000000E+00  0.35103719232E+03  0.35103719232E+03  0.00000000000E+00 0. -1.
         -2   -1    0    0    0  501 -0.00000000000E+00 -0.00000000000E+00 -0.81686246741E+02  0.81686246741E+02  0.00000000000E+00 0.  1.
         23    2    1    2    0    0 -0.20318257417E+02  0.89721484076E+02  0.73534492195E+01  0.12820877461E+03  0.88997979654E+02 0.  0.
          5    1    1    2  502    0 -0.42676638272E+02 -0.52642699937E+02  0.19011631854E+03  0.20188822127E+03  0.47000000000E+01 0. -1.
         -5    1    1    2    0  502  0.62994895689E+02 -0.37078784139E+02  0.71881177822E+02  0.10262644319E+03  0.47000000000E+01 0. -1.
        -11    1    3    3    0    0 -0.76354879683E+01  0.58671852795E+02 -0.39095317600E+02  0.70916365143E+02  0.00000000000E+00 0.  1.
         11    1    3    3    0    0 -0.12682769449E+02  0.31049631281E+02  0.46448766819E+02  0.57292409468E+02  0.00000000000E+00 0. -1.
<mgrwt>
<rscale>  0 0.14789914E+03</rscale>
<asrwt>0</asrwt>
<pdfrwt beam="1">  1        2 0.54005721E-01 0.15519824E+03</pdfrwt>
<pdfrwt beam="2">  1       -2 0.12567115E-01 0.15519824E+03</pdfrwt>
<totfact> 0.40994528E+03</totfact>
</mgrwt>
</event>
<event>
 7    1  0.1422977E-005  0.1504720E+03  0.7546771E-02  0.1209006E+00
         -3   -1    0    0    0  501 -0.00000000000E+00  0.00000000000E+00  0.85641783860E+02  0.85641783860E+02  0.00000000000E+00 0.  1.
          3   -1    0    0  501    0  0.00000000000E+00 -0.00000000000E+00 -0.29698683830E+03  0.29698683830E+03  0.00000000000E+00 0. -1.
         23    2    1    2    0    0  0.63834233913E+02 -0.54265988909E+02 -0.55483712472E+00  0.12364145661E+03  0.90924666497E+02 0.  0.
          5    1    1    2  502    0 -0.87590570840E+02  0.46114223158E+02 -0.21134900869E+03  0.23342905378E+03  0.47000000000E+01 0. -1.
         -5    1    1    2    0  502  0.23756336927E+02  0.81517657510E+01  0.55879137384E+00  0.25558111762E+02  0.47000000000E+01 0. -1.
        -11    1    3    3    0    0  0.44276118511E+02 -0.17633847480E+02  0.42476814355E+02  0.63840480928E+02  0.00000000000E+00 0.  1.
         11    1    3    3    0    0  0.19558115402E+02 -0.36632141429E+02 -0.43031651480E+02  0.59800975685E+02  0.00000000000E+00 0. -1.
<mgrwt>
<rscale>  0 0.14326226E+03</rscale>
<asrwt>0</asrwt>
<pdfrwt beam="2">  1        3 0.45690283E-01 0.15047204E+03</pdfrwt>
<pdfrwt beam="1">  1       -3 0.13175659E-01 0.15047204E+03</pdfrwt>
<totfact> 0.52195746E+02</totfact>
</mgrwt>
</event>
<event>
 7    1  0.1422977E-005  0.2426310E+03  0.7546771E-02  0.1120735E+00
          2   -1    0    0  501    0  0.00000000000E+00  0.00000000000E+00  0.23265564519E+03  0.23265564519E+03  0.00000000000E+00 0. -1.
         -2   -1    0    0    0  501 -0.00000000000E+00 -0.00000000000E+00 -0.25864857898E+03  0.25864857898E+03  0.00000000000E+00 0.  1.
         23    2    1    2    0    0 -0.66207314985E+02  0.19712656156E+03 -0.83849394882E+02  0.24187054948E+03  0.90710263229E+02 0.  0.
          5    1    1    2  502    0  0.12810572174E+02 -0.69079450740E+02 -0.38692482219E+02  0.80344753744E+02  0.47000000000E+01 0.  1.
         -5    1    1    2    0  502  0.53396742811E+02 -0.12804711082E+03  0.96548943306E+02  0.16908892094E+03  0.47000000000E+01 0.  1.
        -11    1    3    3    0    0 -0.62840976063E+01  0.83217843817E+02  0.78697636580E+01  0.83825011735E+02  0.00000000000E+00 0. -1.
         11    1    3    3    0    0 -0.59923217379E+02  0.11390871774E+03 -0.91719158540E+02  0.15804553775E+03  0.00000000000E+00 0.  1.
<mgrwt>
<rscale>  0 0.23859131E+03</rscale>
<asrwt>0</asrwt>
<pdfrwt beam="1">  1        2 0.35793176E-01 0.24263097E+03</pdfrwt>
<pdfrwt beam="2">  1       -2 0.39792089E-01 0.24263097E+03</pdfrwt>
<totfact> 0.86865853E+02</totfact>
</mgrwt>
</event>
<event>
 7    1  0.1422977E-005  0.1776322E+03  0.7546771E-02  0.1175608E+00
         -2   -1    0    0    0  501 -0.00000000000E+00  0.00000000000E+00  0.12626970033E+03  0.12626970033E+03  0.00000000000E+00 0. -1.
          2   -1    0    0  501    0  0.00000000000E+00 -0.00000000000E+00 -0.22495105241E+03  0.22495105241E+03  0.00000000000E+00 0.  1.
         23    2    1    2    0    0 -0.12443795755E+03  0.21050610570E+02 -0.68388396026E+02  0.17102405751E+03  0.92974846347E+02 0.  0.
          5    1    1    2  502    0  0.14991497437E+03 -0.13235540371E+02 -0.25858243885E+02  0.15277571091E+03  0.47000000000E+01 0.  1.
         -5    1    1    2    0  502 -0.25477016820E+02 -0.78150701997E+01 -0.44347121678E+01  0.27420984306E+02  0.47000000000E+01 0.  1.
        -11    1    3    3    0    0 -0.58358034663E+02  0.56956374200E+02 -0.36249825716E+02  0.89239781691E+02  0.00000000000E+00 0.  1.
         11    1    3    3    0    0 -0.66079922885E+02 -0.35905763630E+02 -0.32138570310E+02  0.81784275823E+02  0.00000000000E+00 0. -1.
<mgrwt>
<rscale>  0 0.17216578E+03</rscale>
<asrwt>0</asrwt>
<pdfrwt beam="2">  1        2 0.34607854E-01 0.17763216E+03</pdfrwt>
<pdfrwt beam="1">  1       -2 0.19426108E-01 0.17763216E+03</pdfrwt>
<totfact> 0.32361799E+03</totfact>
</mgrwt>
</event>
<event>
 7    1  0.1422977E-005  0.2134074E+03  0.7546771E-02  0.1142431E+00
          2   -1    0    0  501    0  0.00000000000E+00  0.00000000000E+00  0.68426230368E+03  0.68426230368E+03  0.00000000000E+00 0. -1.
         -2   -1    0    0    0  501 -0.00000000000E+00 -0.00000000000E+00 -0.11662061507E+03  0.11662061507E+03  0.00000000000E+00 0.  1.
         23    2    1    2    0    0  0.91869346841E+02  0.14654934451E+03  0.16471413380E+01  0.19599240386E+03  0.92160848681E+02 0.  0.
          5    1    1    2  502    0  0.31269615903E+02 -0.35012193194E+02  0.12855781954E+03  0.13694102933E+03  0.47000000000E+01 0.  1.
         -5    1    1    2    0  502 -0.12313896274E+03 -0.11153715131E+03  0.43743672774E+03  0.46794948557E+03  0.47000000000E+01 0.  1.
        -11    1    3    3    0    0  0.66280856756E+02  0.30634155923E+02 -0.19129232928E+02  0.75481991454E+02  0.00000000000E+00 0.  1.
         11    1    3    3    0    0  0.25588490085E+02  0.11591518859E+03  0.20776374266E+02  0.12051041240E+03  0.00000000000E+00 0. -1.
<mgrwt>
<rscale>  0 0.20891183E+03</rscale>
<asrwt>0</asrwt>
<pdfrwt beam="1">  1        2 0.10527112E+00 0.21340737E+03</pdfrwt>
<pdfrwt beam="2">  1       -2 0.17941634E-01 0.21340737E+03</pdfrwt>
<totfact> 0.10929695E+03</totfact>
</mgrwt>
</event>
<event>
 7    1  0.1422977E-005  0.1322317E+03  0.7546771E-02  0.1238951E+00
          1   -1    0    0  501    0  0.00000000000E+00  0.00000000000E+00  0.42701437870E+03  0.42701437870E+03  0.00000000000E+00 0. -1.
         -1   -1    0    0    0  501 -0.00000000000E+00 -0.00000000000E+00 -0.31689894260E+02  0.31689894260E+02  0.00000000000E+00 0.  1.
         23    2    1    2    0    0  0.40375769459E+02 -0.15502803926E+02  0.20408754828E+03  0.22620310886E+03  0.87439003905E+02 0.  0.
          5    1    1    2  502    0 -0.79658498563E+02  0.32622765782E+02  0.10314596138E+03  0.13442804986E+03  0.47000000000E+01 0. -1.
         -5    1    1    2    0  502  0.39282729104E+02 -0.17119961856E+02  0.88090974779E+02  0.98073114243E+02  0.47000000000E+01 0. -1.
        -11    1    3    3    0    0  0.42058700609E+02 -0.45610530938E+02  0.16849227301E+03  0.17955194483E+03  0.00000000000E+00 0. -1.
         11    1    3    3    0    0 -0.16829311504E+01  0.30107727012E+02  0.35595275273E+02  0.46651164025E+02  0.00000000000E+00 0.  1.
<mgrwt>
<rscale>  0 0.12254884E+03</rscale>
<asrwt>0</asrwt>
<pdfrwt beam="1">  1        1 0.65694516E-01 0.13223171E+03</pdfrwt>
<pdfrwt beam="2">  1       -1 0.48753687E-02 0.13223171E+03</pdfrwt>
<totfact> 0.96526185E+03</totfact>
</mgrwt>
</event>
<event>
 7    1  0.1422977E-005  0.1950109E+03  0.7546771E-02  0.1158789E+00
         -1   -1    0    0    0  501 -0.00000000000E+00  0.00000000000E+00  0.12909139203E+03  0.12909139203E+03  0.00000000000E+00 0.  1.
          1   -1    0    0  501    0  0.00000000000E+00 -0.00000000000E+00 -0.26427730839E+03  0.26427730839E+03  0.00000000000E+00 0. -1.
         23    2    1    2    0    0 -0.14259291367E+03  0.45504737878E+02 -0.65203897526E+02  0.18618099286E+03  0.89489628735E+02 0.  0.
          5    1    1    2  502    0  0.81799437932E+02 -0.69048849856E+02  0.55599630628E+01  0.10729349888E+03  0.47000000000E+01 0. -1.
         -5    1    1    2    0  502  0.60793475734E+02  0.23544111978E+02 -0.75541981899E+02  0.99894208691E+02  0.47000000000E+01 0. -1.
        -11    1    3    3    0    0 -0.64991709681E+02  0.46073485400E+02 -0.73171140164E+02  0.10816979309E+03  0.00000000000E+00 0. -1.
         11    1    3    3    0    0 -0.77601203985E+02 -0.56874752213E+00  0.79672426384E+01  0.78011199766E+02  0.00000000000E+00 0.  1.
<mgrwt>
<rscale>  0 0.18963762E+03</rscale>
<asrwt>0</asrwt>
<pdfrwt beam="2">  1        1 0.40658047E-01 0.19501093E+03</pdfrwt>
<pdfrwt beam="1">  1       -1 0.19860214E-01 0.19501093E+03</pdfrwt>
<totfact> 0.20750460E+03</totfact>
</mgrwt>
</event>
<event>
 7    1  0.1422977E-005  0.1452195E+03  0.7546771E-02  0.1215352E+00
         -2   -1    0    0    0  501 -0.00000000000E+00  0.00000000000E+00  0.35406701239E+03  0.35406701239E+03  0.00000000000E+00 0.  1.
          2   -1    0    0  501    0  0.00000000000E+00 -0.00000000000E+00 -0.50525225707E+02  0.50525225707E+02  0.00000000000E+00 0. -1.
         23    2    1    2    0    0  0.70723945730E+02  0.21451242750E+02  0.16290235715E+03  0.20243354294E+03  0.94763542699E+02 0.  0.
          5    1    1    2  502    0 -0.10269232691E+02  0.47315112610E+01  0.13534566345E+03  0.13589842882E+03  0.47000000000E+01 0.  1.
         -5    1    1    2    0  502 -0.60454713039E+02 -0.26182754011E+02  0.52937660727E+01  0.66260266340E+02  0.47000000000E+01 0.  1.
        -11    1    3    3    0    0 -0.11964361613E+02  0.13878821792E+02  0.90282700710E+02  0.92123469814E+02  0.00000000000E+00 0.  1.
         11    1    3    3    0    0  0.82688307343E+02  0.75724209582E+01  0.72619656443E+02  0.11031007312E+03  0.00000000000E+00 0. -1.
<mgrwt>
<rscale>  0 0.13850729E+03</rscale>
<asrwt>0</asrwt>
<pdfrwt beam="2">  1        2 0.77731119E-02 0.14521945E+03</pdfrwt>
<pdfrwt beam="1">  1       -2 0.54471847E-01 0.14521945E+03</pdfrwt>
<totfact> 0.27450927E+03</totfact>
</mgrwt>
</event>
<event>
 7    1  0.1422977E-005  0.1820807E+03  0.7546771E-02  0.1171232E+00
          2   -1    0    0  501    0  0.00000000000E+00  0.00000000000E+00  0.15538188312E+04  0.15538188312E+04  0.00000000000E+00 0. -1.
         -2   -1    0    0    0  501 -0.00000000000E+00 -0.00000000000E+00 -0.20132572317E+02  0.20132572317E+02  0.00000000000E+00 0.  1.
         23    2    1    2    0    0 -0.59496408997E+02  0.11827207512E+03  0.52868804911E+03  0.55259212572E+03  0.91207991396E+02 0.  0.
          5    1    1    2  502    0  0.98150697325E+02 -0.74321500068E+02  0.66045432676E+03  0.67184764084E+03  0.47000000000E+01 0.  1.
         -5    1    1    2    0  502 -0.38654288328E+02 -0.43950575052E+02  0.34454388298E+03  0.34951163694E+03  0.47000000000E+01 0.  1.
        -11    1    3    3    0    0 -0.58755234028E+02  0.25098994152E+02  0.15933451994E+03  0.17166719628E+03  0.00000000000E+00 0.  1.
         11    1    3    3    0    0 -0.74117496938E+00  0.93173080968E+02  0.36935352917E+03  0.38092492944E+03  0.00000000000E+00 0. -1.
<mgrwt>
<rscale>  0 0.17650181E+03</rscale>
<asrwt>0</asrwt>
<pdfrwt beam="1">  1        2 0.23904896E+00 0.18208068E+03</pdfrwt>
<pdfrwt beam="2">  1       -2 0.30973200E-02 0.18208068E+03</pdfrwt>
<totfact> 0.51198642E+03</totfact>
</mgrwt>
</event>
<event>
 7    1  0.1422977E-005  0.1349311E+03  0.7546771E-02  0.1234176E+00
          2   -1    0    0  501    0  0.00000000000E+00  0.00000000000E+00  0.11636380867E+04  0.11636380867E+04  0.00000000000E+00 0. -1.
         -2   -1    0    0    0  501 -0.00000000000E+00 -0.00000000000E+00 -0.25722161864E+02  0.25722161864E+02  0.00000000000E+00 0.  1.
         23    2    1    2    0    0 -0.32447213027E+02 -0.39066603410E+02  0.98537575031E+02  0.14126017361E+03  0.87554336386E+02 0.  0.
          5    1    1    2  502    0  0.59126127202E+01 -0.15856502054E+02  0.18942826035E+02  0.25832311255E+02  0.47000000000E+01 0.  1.
         -5    1    1    2    0  502  0.26534600306E+02  0.54923105463E+02  0.10204355238E+04  0.10222677637E+04  0.47000000000E+01 0.  1.
        -11    1    3    3    0    0 -0.43404687211E+02 -0.61384263804E+02  0.64169360899E+02  0.98841800838E+02  0.00000000000E+00 0. -1.
         11    1    3    3    0    0  0.10957474185E+02  0.22317660394E+02  0.34368214132E+02  0.42418372771E+02  0.00000000000E+00 0.  1.
<mgrwt>
<rscale>  0 0.12557321E+03</rscale>
<asrwt>0</asrwt>
<pdfrwt beam="1">  1        2 0.17902120E+00 0.13493114E+03</pdfrwt>
<pdfrwt beam="2">  1       -2 0.39572566E-02 0.13493114E+03</pdfrwt>
<totfact> 0.57240420E+03</totfact>
</mgrwt>
</event>
<event>
 7    1  0.1422977E-005  0.1359505E+03  0.7546771E-02  0.1232201E+00
         -2   -1    0    0    0  501 -0.00000000000E+00  0.00000000000E+00  0.13236791507E+02  0.13236791507E+02  0.00000000000E+00 0.  1.
          2   -1    0    0  501    0  0.00000000000E+00 -0.00000000000E+00 -0.12675136158E+04  0.12675136158E+04  0.00000000000E+00 0. -1.
         23    2    1    2    0    0  0.49969074859E+02  0.18953604482E+02 -0.30861427777E+03  0.32536557046E+03  0.88112623568E+02 0.  0.
          5    1    1    2  502    0 -0.19592771148E+01 -0.31093432840E+02 -0.55394532923E+02  0.63728208906E+02  0.47000000000E+01 0. -1.
         -5    1    1    2    0  502 -0.48009797745E+02  0.12139828358E+02 -0.89026801356E+03  0.89165662790E+03  0.47000000000E+01 0. -1.
        -11    1    3    3    0    0  0.48956774629E+02 -0.26141527134E+02 -0.13443214392E+03  0.14543777550E+03  0.00000000000E+00 0.  1.
         11    1    3    3    0    0  0.10123002304E+01  0.45095131616E+02 -0.17418213385E+03  0.17992779496E+03  0.00000000000E+00 0. -1.
<mgrwt>
<rscale>  0 0.12685309E+03</rscale>
<asrwt>0</asrwt>
<pdfrwt beam="2">  1        2 0.19500213E+00 0.13595049E+03</pdfrwt>
<pdfrwt beam="1">  1       -2 0.20364291E-02 0.13595049E+03</pdfrwt>
<totfact> 0.13305434E+04</totfact>
</mgrwt>
</event>
<event>
 7    1  0.1422977E-005  0.1473867E+03  0.7546771E-02  0.1213253E+00
          1   -1    0    0  501    0  0.00000000000E+00  0.00000000000E+00  0.46865214689E+02  0.46865214689E+02  0.00000000000E+00 0. -1.
         -1   -1    0    0    0  501 -0.00000000000E+00 -0.00000000000E+00 -0.39490347315E+03  0.39490347315E+03  0.00000000000E+00 0.  1.
         23    2    1    2    0    0  0.24398840692E+02  0.74183852059E+02 -0.11703816180E+03  0.16775431078E+03  0.91351136474E+02 0.  0.
          5    1    1    2  502    0 -0.19993306971E+02 -0.18391793489E+02 -0.21337830280E+03  0.21515199394E+03  0.47000000000E+01 0.  1.
         -5    1    1    2    0  502 -0.44055337207E+01 -0.55792058571E+02 -0.17621793862E+02  0.58862383114E+02  0.47000000000E+01 0.  1.
        -11    1    3    3    0    0  0.31563157195E+02  0.25392880259E+02 -0.11089081021E+03  0.11805847301E+03  0.00000000000E+00 0.  1.
         11    1    3    3    0    0 -0.71643165030E+01  0.48790971800E+02 -0.61473515846E+01  0.49695837770E+02  0.00000000000E+00 0. -1.
<mgrwt>
<rscale>  0 0.14005642E+03</rscale>
<asrwt>0</asrwt>
<pdfrwt beam="1">  1        1 0.72100332E-02 0.14738668E+03</pdfrwt>
<pdfrwt beam="2">  1       -1 0.60754379E-01 0.14738668E+03</pdfrwt>
<totfact> 0.27585063E+03</totfact>
</mgrwt>
</event>
<event>
 7    1  0.1422977E-005  0.1307003E+03  0.7546771E-02  0.1240327E+00
         -1   -1    0    0    0  501 -0.00000000000E+00  0.00000000000E+00  0.76981845188E+02  0.76981845188E+02  0.00000000000E+00 0.  1.
          1   -1    0    0  501    0  0.00000000000E+00 -0.00000000000E+00 -0.17021347571E+03  0.17021347571E+03  0.00000000000E+00 0. -1.
         23    2    1    2    0    0  0.35165561637E+02 -0.14992472792E+02 -0.39059601132E+02  0.10571320864E+03  0.90488889231E+02 0.  0.
          5    1    1    2  502    0 -0.55883882687E+02  0.15760196315E+02  0.22098519304E+02  0.62304307135E+02  0.47000000000E+01 0.  1.
         -5    1    1    2    0  502  0.20718321050E+02 -0.76772352256E+00 -0.76270548697E+02  0.79177805129E+02  0.47000000000E+01 0.  1.
        -11    1    3    3    0    0 -0.20841342022E+02 -0.22916877409E+01 -0.43319145675E+02  0.48126518179E+02  0.00000000000E+00 0. -1.
         11    1    3    3    0    0  0.56006903659E+02 -0.12700785051E+02  0.42595445428E+01  0.57586690459E+02  0.00000000000E+00 0.  1.
<mgrwt>
<rscale>  0 0.12169462E+03</rscale>
<asrwt>0</asrwt>
<pdfrwt beam="2">  1        1 0.26186688E-01 0.13070034E+03</pdfrwt>
<pdfrwt beam="1">  1       -1 0.11843361E-01 0.13070034E+03</pdfrwt>
<totfact> 0.79538192E+03</totfact>
</mgrwt>
</event>
<event>
 7    1  0.1422977E-005  0.2064623E+03  0.7546771E-02  0.1148367E+00
          2   -1    0    0  501    0  0.00000000000E+00  0.00000000000E+00  0.32081015988E+03  0.32081015988E+03  0.00000000000E+00 0.  1.
         -2   -1    0    0    0  501 -0.00000000000E+00 -0.00000000000E+00 -0.12184368655E+03  0.12184368655E+03  0.00000000000E+00 0. -1.
         23    2    1    2    0    0  0.16191250820E+03  0.28069109964E+02  0.78052639288E+02  0.20339073316E+03  0.90950759140E+02 0.  0.
          5    1    1    2  502    0 -0.87558151347E+02  0.43462504708E+02  0.31952290386E+02  0.10294881274E+03  0.47000000000E+01 0. -1.
         -5    1    1    2    0  502 -0.74354356855E+02 -0.71531614673E+02  0.88961543659E+02  0.13631430054E+03  0.47000000000E+01 0. -1.
        -11    1    3    3    0    0  0.36947649009E+02 -0.27022454699E+02  0.42044653820E+02  0.62153799080E+02  0.00000000000E+00 0. -1.
         11    1    3    3    0    0  0.12496485919E+03  0.55091564663E+02  0.36007985467E+02  0.14123693408E+03  0.00000000000E+00 0.  1.
<mgrwt>
<rscale>  0 0.20163450E+03</rscale>
<asrwt>0</asrwt>
<pdfrwt beam="1">  1        2 0.49355409E-01 0.20646230E+03</pdfrwt>
<pdfrwt beam="2">  1       -2 0.18745183E-01 0.20646230E+03</pdfrwt>
<totfact> 0.23611306E+03</totfact>
</mgrwt>
</event>
<event>
 7    1  0.1422977E-005  0.2189526E+03  0.7546771E-02  0.1134666E+00
          2   -1    0    0  501    0  0.00000000000E+00  0.00000000000E+00  0.36353456842E+03  0.36353456842E+03  0.00000000000E+00 0. -1.
         -2   -1    0    0    0  501 -0.00000000000E+00 -0.00000000000E+00 -0.32968140357E+02  0.32968140357E+02  0.00000000000E+00 0.  1.
         23    2    1    2    0    0 -0.11045550493E+02  0.12795665792E+01  0.11322149720E+03  0.14552724997E+03  0.90749278681E+02 0.  0.
          5    1    1    2  502    0  0.47308594939E+02  0.29430223992E+02  0.18508997983E+03  0.19335105862E+03  0.47000000000E+01 0.  1.
         -5    1    1    2    0  502 -0.36263044446E+02 -0.30709790571E+02  0.32254951044E+02  0.57624400182E+02  0.47000000000E+01 0.  1.
        -11    1    3    3    0    0 -0.29429672850E+02 -0.62705850137E+01  0.12062311376E+03  0.12431959401E+03  0.00000000000E+00 0. -1.
         11    1    3    3    0    0  0.18384122357E+02  0.75501515928E+01 -0.74016165629E+01  0.21207655968E+02  0.00000000000E+00 0.  1.
<mgrwt>
<rscale>  0 0.21895259E+03</rscale>
<asrwt>0</asrwt>
<pdfrwt beam="1">  1        2 0.55928392E-01 0.21895259E+03</pdfrwt>
<pdfrwt beam="2">  1       -2 0.50720218E-02 0.21895259E+03</pdfrwt>
<totfact> 0.16582209E+04</totfact>
</mgrwt>
</event>
<event>
 7    1  0.1422977E-005  0.1370876E+03  0.7546771E-02  0.1228821E+00
          3   -1    0    0  501    0  0.00000000000E+00  0.00000000000E+00  0.50796631438E+03  0.50796631438E+03  0.00000000000E+00 0. -1.
         -3   -1    0    0    0  501 -0.00000000000E+00 -0.00000000000E+00 -0.29525932380E+02  0.29525932380E+02  0.00000000000E+00 0.  1.
         23    2    1    2    0    0  0.44087029015E+02 -0.34985854917E+02  0.20389141926E+03  0.23062070904E+03  0.91904974932E+02 0.  0.
          5    1    1    2  502    0  0.23496165864E+02  0.11065834945E+02  0.20562247175E+03  0.20730946289E+03  0.47000000000E+01 0.  1.
         -5    1    1    2    0  502 -0.67583194878E+02  0.23920019972E+02  0.68926490984E+02  0.99562074832E+02  0.47000000000E+01 0.  1.
        -11    1    3    3    0    0  0.62288987592E+02 -0.46145468987E+02  0.18984992052E+03  0.20506661017E+03  0.00000000000E+00 0. -1.
         11    1    3    3    0    0 -0.18201958578E+02  0.11159614070E+02  0.14041498740E+02  0.25554098871E+02  0.00000000000E+00 0.  1.
<mgrwt>
<rscale>  0 0.12908396E+03</rscale>
<asrwt>0</asrwt>
<pdfrwt beam="1">  1        3 0.78148657E-01 0.13708759E+03</pdfrwt>
<pdfrwt beam="2">  1       -3 0.45424515E-02 0.13708759E+03</pdfrwt>
<totfact> 0.96446863E+02</totfact>
</mgrwt>
</event>
<event>
 7    1  0.1422977E-005  0.3379839E+03  0.7546771E-02  0.1068879E+00
         -1   -1    0    0    0  501 -0.00000000000E+00  0.00000000000E+00  0.82236446732E+03  0.82236446732E+03  0.00000000000E+00 0.  1.
          1   -1    0    0  501    0  0.00000000000E+00 -0.00000000000E+00 -0.20012557566E+03  0.20012557566E+03  0.00000000000E+00 0. -1.
         23    2    1    2    0    0  0.31236987929E+03 -0.32165757726E+02  0.60067366039E+03  0.68381889598E+03  0.90497838384E+02 0.  0.
          5    1    1    2  502    0 -0.16791216817E+03  0.37064362676E+02  0.70634714301E+02  0.18595595195E+03  0.47000000000E+01 0.  1.
         -5    1    1    2    0  502 -0.14445771112E+03 -0.48986049493E+01 -0.49069483032E+02  0.15271519505E+03  0.47000000000E+01 0.  1.
        -11    1    3    3    0    0  0.15030321066E+03 -0.21361110205E+02  0.19712272051E+03  0.24880658976E+03  0.00000000000E+00 0. -1.
         11    1    3    3    0    0  0.16206666863E+03 -0.10804647521E+02  0.40355093988E+03  0.43501230622E+03  0.00000000000E+00 0.  1.
<mgrwt>
<rscale>  0 0.33515298E+03</rscale>
<asrwt>0</asrwt>
<pdfrwt beam="2">  1        1 0.30788551E-01 0.33798386E+03</pdfrwt>
<pdfrwt beam="1">  1       -1 0.12651761E+00 0.33798386E+03</pdfrwt>
<totfact> 0.85130056E+01</totfact>
</mgrwt>
</event>
<event>
 7    1  0.1422977E-005  0.1917809E+03  0.7546771E-02  0.1161684E+00
          2   -1    0    0  501    0  0.00000000000E+00  0.00000000000E+00  0.10835648320E+03  0.10835648320E+03  0.00000000000E+00 0. -1.
         -2   -1    0    0    0  501 -0.00000000000E+00 -0.00000000000E+00 -0.32651046584E+03  0.32651046584E+03  0.00000000000E+00 0.  1.
         23    2    1    2    0    0  0.76233606658E+02 -0.12387023113E+03 -0.15996577132E+03  0.23445295277E+03  0.90684850566E+02 0.  0.
          5    1    1    2  502    0 -0.74954973868E+02  0.81048360030E+02  0.18896476991E+02  0.11209929355E+03  0.47000000000E+01 0.  1.
         -5    1    1    2    0  502 -0.12786327904E+01  0.42821871101E+02 -0.77084688308E+02  0.88314702729E+02  0.47000000000E+01 0.  1.
        -11    1    3    3    0    0  0.63147908948E+02 -0.33593141033E+02 -0.34719784885E+02  0.79508622120E+02  0.00000000000E+00 0. -1.
         11    1    3    3    0    0  0.13085697710E+02 -0.90277090099E+02 -0.12524598644E+03  0.15494433065E+03  0.00000000000E+00 0.  1.
<mgrwt>
<rscale>  0 0.18646995E+03</rscale>
<asrwt>0</asrwt>
<pdfrwt beam="1">  1        2 0.16670228E-01 0.19178087E+03</pdfrwt>
<pdfrwt beam="2">  1       -2 0.50232379E-01 0.19178087E+03</pdfrwt>
<totfact> 0.12934190E+03</totfact>
</mgrwt>
</event>
<event>
 7    1  0.1422977E-005  0.1693985E+03  0.7546771E-02  0.1186238E+00
         -2   -1    0    0    0  501 -0.00000000000E+00  0.00000000000E+00  0.24077957317E+02  0.24077957317E+02  0.00000000000E+00 0.  1.
          2   -1    0    0  501    0  0.00000000000E+00 -0.00000000000E+00 -0.10241366104E+04  0.10241366104E+04  0.00000000000E+00 0. -1.
         23    2    1    2    0    0  0.10932511679E+03  0.33445956384E+02 -0.52022430954E+03  0.53935619354E+03  0.84859637738E+02 0.  0.
          5    1    1    2  502    0 -0.39209162414E+02  0.43036190687E+02 -0.24858360988E+03  0.25535342807E+03  0.47000000000E+01 0. -1.
         -5    1    1    2    0  502 -0.70115954374E+02 -0.76482147071E+02 -0.23125073363E+03  0.25350494607E+03  0.47000000000E+01 0. -1.
        -11    1    3    3    0    0  0.73713566624E+02 -0.16951233967E+02 -0.35537887507E+03  0.36333893142E+03  0.00000000000E+00 0.  1.
         11    1    3    3    0    0  0.35611550164E+02  0.50397190351E+02 -0.16484543447E+03  0.17601726212E+03  0.00000000000E+00 0. -1.
<mgrwt>
<rscale>  0 0.16219730E+03</rscale>
<asrwt>0</asrwt>
<pdfrwt beam="2">  1        2 0.15755950E+00 0.16939849E+03</pdfrwt>
<pdfrwt beam="1">  1       -2 0.37043006E-02 0.16939849E+03</pdfrwt>
<totfact> 0.76699093E+03</totfact>
</mgrwt>
</event>
<event>
 7    1  0.1422977E-005  0.1309504E+03  0.7546771E-02  0.1239919E+00
         -3   -1    0    0    0  501 -0.00000000000E+00  0.00000000000E+00  0.13358154109E+03  0.13358154109E+03  0.00000000000E+00 0.  1.
          3   -1    0    0  501    0  0.00000000000E+00 -0.00000000000E+00 -0.10484355251E+03  0.10484355251E+03  0.00000000000E+00 0. -1.
         23    2    1    2    0    0  0.33035190585E+02 -0.20694634788E+02  0.41464353805E+02  0.10685774070E+03  0.90441651825E+02 0.  0.
          5    1    1    2  502    0 -0.36316486788E+02 -0.48822497126E+02 -0.92609953857E+01  0.61728271268E+02  0.47000000000E+01 0. -1.
         -5    1    1    2    0  502  0.32812962033E+01  0.69517131914E+02 -0.34653698385E+01  0.69839081627E+02  0.47000000000E+01 0. -1.
        -11    1    3    3    0    0  0.17451512165E+02  0.32894675908E+02  0.34233479326E+02  0.50582072780E+02  0.00000000000E+00 0.  1.
         11    1    3    3    0    0  0.15583678420E+02 -0.53589310696E+02  0.72308744785E+01  0.56275667919E+02  0.00000000000E+00 0. -1.
<mgrwt>
<rscale>  0 0.12194741E+03</rscale>
<asrwt>0</asrwt>
<pdfrwt beam="2">  1        3 0.16129777E-01 0.13095040E+03</pdfrwt>
<pdfrwt beam="1">  1       -3 0.20551006E-01 0.13095040E+03</pdfrwt>
<totfact> 0.15979280E+03</totfact>
</mgrwt>
</event>
<event>
 7    1  0.1422977E-005  0.1310192E+03  0.7546771E-02  0.1239357E+00
         -1   -1    0    0    0  501 -0.00000000000E+00  0.00000000000E+00  0.46403363262E+02  0.46403363262E+02  0.00000000000E+00 0.  1.
          1   -1    0    0  501    0  0.00000000000E+00 -0.00000000000E+00 -0.29148159998E+03  0.29148159998E+03  0.00000000000E+00 0. -1.
         23    2    1    2    0    0  0.28676820268E+02  0.26830727056E+02 -0.83498680798E+02  0.12986095160E+03  0.91376086154E+02 0.  0.
          5    1    1    2  502    0 -0.61091074209E+02  0.26709470108E+02 -0.98513997444E+02  0.11904878342E+03  0.47000000000E+01 0. -1.
         -5    1    1    2    0  502  0.32414253941E+02 -0.53540197164E+02 -0.63065558476E+02  0.88975228220E+02  0.47000000000E+01 0. -1.
        -11    1    3    3    0    0  0.43712937363E+02  0.41963025060E+02 -0.89149240766E+02  0.10779287311E+03  0.00000000000E+00 0. -1.
         11    1    3    3    0    0 -0.15036117095E+02 -0.15132298004E+02  0.56505599675E+01  0.22068078488E+02  0.00000000000E+00 0.  1.
<mgrwt>
<rscale>  0 0.12229561E+03</rscale>
<asrwt>0</asrwt>
<pdfrwt beam="2">  1        1 0.44843322E-01 0.13101922E+03</pdfrwt>
<pdfrwt beam="1">  1       -1 0.71389792E-02 0.13101922E+03</pdfrwt>
<totfact> 0.88100831E+03</totfact>
</mgrwt>
</event>
<event>
 7    1  0.1422977E-005  0.1741581E+03  0.7546771E-02  0.1179759E+00
          3   -1    0    0  501    0  0.00000000000E+00  0.00000000000E+00  0.47109294919E+02  0.47109294919E+02  0.00000000000E+00 0. -1.
         -3   -1    0    0    0  501 -0.00000000000E+00 -0.00000000000E+00 -0.56586478605E+03  0.56586478605E+03  0.00000000000E+00 0.  1.
         23    2    1    2    0    0  0.89025238386E+02  0.82348838422E+02 -0.26452431624E+03  0.30481090723E+03  0.90717975204E+02 0.  0.
          5    1    1    2  502    0  0.22915651093E+02 -0.11376654332E+02 -0.10650809268E+03  0.10963858416E+03  0.47000000000E+01 0. -1.
         -5    1    1    2    0  502 -0.11194088948E+03 -0.70972184090E+02 -0.14772308221E+03  0.19852458958E+03  0.47000000000E+01 0. -1.
        -11    1    3    3    0    0  0.62785951265E+02  0.97796337364E+02 -0.17347866277E+03  0.20880863420E+03  0.00000000000E+00 0. -1.
         11    1    3    3    0    0  0.26239287120E+02 -0.15447498942E+02 -0.91045653466E+02  0.96002273032E+02  0.00000000000E+00 0.  1.
<mgrwt>
<rscale>  0 0.16817982E+03</rscale>
<asrwt>0</asrwt>
<pdfrwt beam="1">  1        3 0.72475841E-02 0.17415812E+03</pdfrwt>
<pdfrwt beam="2">  1       -3 0.87056118E-01 0.17415812E+03</pdfrwt>
<totfact> 0.37258877E+02</totfact>
</mgrwt>
</event>
<event>
 7    1  0.1422977E-005  0.1724270E+03  0.7546771E-02  0.1183702E+00
         -2   -1    0    0    0  501 -0.00000000000E+00  0.00000000000E+00  0.22064162653E+02  0.22064162653E+02  0.00000000000E+00 0.  1.
          2   -1    0    0  501    0  0.00000000000E+00 -0.00000000000E+00 -0.12114199170E+04  0.12114199170E+04  0.00000000000E+00 0. -1.
         23    2    1    2    0    0  0.10260540732E+03  0.59817628315E+02 -0.38003894590E+03  0.40600310356E+03  0.79390814538E+02 0.  0.
          5    1    1    2  502    0 -0.11748982705E+03 -0.78242053547E+01 -0.57613846692E+03  0.58806691856E+03  0.47000000000E+01 0. -1.
         -5    1    1    2    0  502  0.14884419728E+02 -0.51993422960E+02 -0.23317834153E+03  0.23941405752E+03  0.47000000000E+01 0. -1.
        -11    1    3    3    0    0  0.86324115878E+01 -0.18047440461E+02 -0.39933040975E+02  0.44664039210E+02  0.00000000000E+00 0.  1.
         11    1    3    3    0    0  0.93972995734E+02  0.77865068776E+02 -0.34010590492E+03  0.36133906435E+03  0.00000000000E+00 0. -1.
<mgrwt>
<rscale>  0 0.16450589E+03</rscale>
<asrwt>0</asrwt>
<pdfrwt beam="2">  1        2 0.18637233E+00 0.17242700E+03</pdfrwt>
<pdfrwt beam="1">  1       -2 0.33944859E-02 0.17242700E+03</pdfrwt>
<totfact> 0.68197866E+03</totfact>
</mgrwt>
</event>
<event>
 7    1  0.1422977E-005  0.2295003E+03  0.7546771E-02  0.1130070E+00
          1   -1    0    0  501    0  0.00000000000E+00  0.00000000000E+00  0.22001263931E+03  0.22001263931E+03  0.00000000000E+00 0. -1.
         -1   -1    0    0    0  501 -0.00000000000E+00 -0.00000000000E+00 -0.38309224749E+03  0.38309224749E+03  0.00000000000E+00 0.  1.
         23    2    1    2    0    0 -0.45114130586E+02  0.18710808159E+03 -0.27506471204E+03  0.34774034947E+03  0.90653383105E+02 0.  0.
          5    1    1    2  502    0  0.68068544664E+02 -0.56709296546E+02  0.79088601048E+02  0.11885439791E+03  0.47000000000E+01 0. -1.
         -5    1    1    2    0  502 -0.22954414078E+02 -0.13039878504E+03  0.32896502817E+02  0.13651013942E+03  0.47000000000E+01 0. -1.
        -11    1    3    3    0    0 -0.43059680905E+02  0.97725511582E+02 -0.21491131393E+03  0.23998184221E+03  0.00000000000E+00 0.  1.
         11    1    3    3    0    0 -0.20544496811E+01  0.89382570005E+02 -0.60153398110E+02  0.10775850727E+03  0.00000000000E+00 0. -1.
<mgrwt>
<rscale>  0 0.22519309E+03</rscale>
<asrwt>0</asrwt>
<pdfrwt beam="1">  1        1 0.33848099E-01 0.22950029E+03</pdfrwt>
<pdfrwt beam="2">  1       -1 0.58937268E-01 0.22950029E+03</pdfrwt>
<totfact> 0.39344739E+02</totfact>
</mgrwt>
</event>
<event>
 7    1  0.1422977E-005  0.2415087E+03  0.7546771E-02  0.1121401E+00
          1   -1    0    0  501    0  0.00000000000E+00  0.00000000000E+00  0.14129124956E+03  0.14129124956E+03  0.00000000000E+00 0. -1.
         -1   -1    0    0    0  501 -0.00000000000E+00 -0.00000000000E+00 -0.46527366372E+03  0.46527366372E+03  0.00000000000E+00 0.  1.
         23    2    1    2    0    0  0.14211204304E+03  0.15001746047E+03 -0.28181656199E+03  0.36140292783E+03  0.92143531552E+02 0.  0.
          5    1    1    2  502    0 -0.49360414288E+02 -0.56364890534E+02  0.44570623212E+02  0.87304535032E+02  0.47000000000E+01 0.  1.
         -5    1    1    2    0  502 -0.92751628754E+02 -0.93652569939E+02 -0.86736475383E+02  0.15785745042E+03  0.47000000000E+01 0.  1.
        -11    1    3    3    0    0  0.12514870443E+03  0.12907861513E+03 -0.17374267891E+03  0.25002001036E+03  0.00000000000E+00 0. -1.
         11    1    3    3    0    0  0.16963338612E+02  0.20938845347E+02 -0.10807388307E+03  0.11138291747E+03  0.00000000000E+00 0.  1.
<mgrwt>
<rscale>  0 0.23760156E+03</rscale>
<asrwt>0</asrwt>
<pdfrwt beam="1">  1        1 0.21737116E-01 0.24150867E+03</pdfrwt>
<pdfrwt beam="2">  1       -1 0.71580562E-01 0.24150867E+03</pdfrwt>
<totfact> 0.47141533E+02</totfact>
</mgrwt>
</event>
<event>
 7    1  0.1422977E-005  0.1376166E+03  0.7546771E-02  0.1229132E+00
          1   -1    0    0  501    0  0.00000000000E+00  0.00000000000E+00  0.22261287369E+04  0.22261287369E+04  0.00000000000E+00 0. -1.
         -1   -1    0    0    0  501 -0.00000000000E+00 -0.00000000000E+00 -0.10519067883E+02  0.10519067883E+02  0.00000000000E+00 0.  1.
         23    2    1    2    0    0  0.54441950969E+02  0.18690735225E+02  0.34234780175E+03  0.35833783519E+03  0.88829708759E+02 0.  0.
          5    1    1    2  502    0 -0.66998820179E+00 -0.26220443545E+01  0.14002202112E+01  0.56013049754E+01  0.47000000000E+01 0.  1.
         -5    1    1    2    0  502 -0.53771962767E+02 -0.16068690870E+02  0.18718616470E+04  0.18727086646E+04  0.47000000000E+01 0.  1.
        -11    1    3    3    0    0  0.14123383524E+02 -0.34735259644E+02  0.15230526064E+03  0.15685311805E+03  0.00000000000E+00 0. -1.
         11    1    3    3    0    0  0.40318567445E+02  0.53425994868E+02  0.19004254111E+03  0.20148471714E+03  0.00000000000E+00 0.  1.
<mgrwt>
<rscale>  0 0.12887676E+03</rscale>
<asrwt>0</asrwt>
<pdfrwt beam="1">  1        1 0.34248097E+00 0.13761656E+03</pdfrwt>
<pdfrwt beam="2">  1       -1 0.16183199E-02 0.13761656E+03</pdfrwt>
<totfact> 0.22523134E+03</totfact>
</mgrwt>
</event>
<event>
 7    1  0.1422977E-005  0.1406763E+03  0.7546771E-02  0.1223095E+00
          2   -1    0    0  501    0  0.00000000000E+00  0.00000000000E+00  0.38262073468E+03  0.38262073468E+03  0.00000000000E+00 0. -1.
         -2   -1    0    0    0  501 -0.00000000000E+00 -0.00000000000E+00 -0.43623830190E+02  0.43623830190E+02  0.00000000000E+00 0.  1.
         23    2    1    2    0    0 -0.53833989090E+02  0.35371044939E+02  0.10831275676E+03  0.15605020943E+03  0.92036978359E+02 0.  0.
          5    1    1    2  502    0  0.49189275744E+02  0.40516769984E+02  0.92896864141E+02  0.11275243175E+03  0.47000000000E+01 0.  1.
         -5    1    1    2    0  502  0.46447133463E+01 -0.75887814922E+02  0.13778728359E+03  0.15744192368E+03  0.47000000000E+01 0.  1.
        -11    1    3    3    0    0 -0.57571743054E+02  0.16855960218E+02  0.16362683964E+02  0.62180112735E+02  0.00000000000E+00 0.  1.
         11    1    3    3    0    0  0.37377539646E+01  0.18515084720E+02  0.91950072794E+02  0.93870096696E+02  0.00000000000E+00 0. -1.
<mgrwt>
<rscale>  0 0.13298361E+03</rscale>
<asrwt>0</asrwt>
<pdfrwt beam="1">  1        2 0.58864726E-01 0.14067627E+03</pdfrwt>
<pdfrwt beam="2">  1       -2 0.67113587E-02 0.14067627E+03</pdfrwt>
<totfact> 0.99227894E+03</totfact>
</mgrwt>
</event>
<event>
 7    1  0.1422977E-005  0.1585489E+03  0.7546771E-02  0.1197058E+00
         -4   -1    0    0    0  501 -0.00000000000E+00  0.00000000000E+00  0.13638038410E+03  0.13638038410E+03  0.00000000000E+00 0.  1.
          4   -1    0    0  501    0  0.00000000000E+00 -0.00000000000E+00 -0.19799325221E+03  0.19799325221E+03  0.00000000000E+00 0. -1.
         23    2    1    2    0    0  0.36004709265E+02  0.90642853708E+02  0.44169107307E+02  0.14377567636E+03  0.95958684104E+02 0.  0.
          5    1    1    2  502    0  0.25739502532E+02 -0.92410188819E+02 -0.72025374502E+02  0.12004961291E+03  0.47000000000E+01 0. -1.
         -5    1    1    2    0  502 -0.61744211798E+02  0.17673351113E+01 -0.33756600921E+02  0.70548347037E+02  0.47000000000E+01 0. -1.
        -11    1    3    3    0    0  0.59950193172E+02  0.92659241359E+02  0.46237789828E+02  0.11965656638E+03  0.00000000000E+00 0.  1.
         11    1    3    3    0    0 -0.23945483907E+02 -0.20163876509E+01 -0.20686825204E+01  0.24119109977E+02  0.00000000000E+00 0. -1.
<mgrwt>
<rscale>  0 0.15281368E+03</rscale>
<asrwt>0</asrwt>
<pdfrwt beam="2">  1        4 0.30460500E-01 0.15854891E+03</pdfrwt>
<pdfrwt beam="1">  1       -4 0.20981598E-01 0.15854891E+03</pdfrwt>
<totfact> 0.36538505E+02</totfact>
</mgrwt>
</event>
<event>
 7    1  0.1422977E-005  0.1290506E+03  0.7546771E-02  0.1242877E+00
         -3   -1    0    0    0  501 -0.00000000000E+00  0.00000000000E+00  0.18358998460E+03  0.18358998460E+03  0.00000000000E+00 0.  1.
          3   -1    0    0  501    0  0.00000000000E+00 -0.00000000000E+00 -0.11115256045E+03  0.11115256045E+03  0.00000000000E+00 0. -1.
         23    2    1    2    0    0 -0.22495573055E+01  0.31994549833E+02  0.12260658504E+03  0.15628313235E+03  0.91451249501E+02 0.  0.
          5    1    1    2  502    0 -0.87697451700E+01  0.46861987148E+02 -0.28753335698E+02  0.55873057761E+02  0.47000000000E+01 0.  1.
         -5    1    1    2    0  502  0.11019302475E+02 -0.78856536981E+02 -0.21415825194E+02  0.82586354929E+02  0.47000000000E+01 0.  1.
        -11    1    3    3    0    0  0.10509186043E+02 -0.22315491559E+02  0.86215814144E+02  0.89674917136E+02  0.00000000000E+00 0.  1.
         11    1    3    3    0    0 -0.12758743348E+02  0.54310041392E+02  0.36390770897E+02  0.66608215217E+02  0.00000000000E+00 0. -1.
<mgrwt>
<rscale>  0 0.12013377E+03</rscale>
<asrwt>0</asrwt>
<pdfrwt beam="2">  1        3 0.17100394E-01 0.12905063E+03</pdfrwt>
<pdfrwt beam="1">  1       -3 0.28244613E-01 0.12905063E+03</pdfrwt>
<totfact> 0.81374556E+02</totfact>
</mgrwt>
</event>
<event>
 7    1  0.1422977E-005  0.1464194E+03  0.7546771E-02  0.1219946E+00
         -2   -1    0    0    0  501 -0.00000000000E+00  0.00000000000E+00  0.81596471489E+02  0.81596471489E+02  0.00000000000E+00 0. -1.
          2   -1    0    0  501    0  0.00000000000E+00 -0.00000000000E+00 -0.21011636291E+03  0.21011636291E+03  0.00000000000E+00 0.  1.
         23    2    1    2    0    0 -0.23204628863E+01 -0.76218833056E+02 -0.17251388111E+02  0.10781254821E+03  0.74237726926E+02 0.  0.
          5    1    1    2  502    0 -0.18891260498E+02  0.97692123755E+02 -0.41829144193E+02  0.10803887296E+03  0.47000000000E+01 0. -1.
         -5    1    1    2    0  502  0.21211723384E+02 -0.21473290700E+02 -0.69439359117E+02  0.75861413228E+02  0.47000000000E+01 0. -1.
        -11    1    3    3    0    0  0.28561168055E+02 -0.64125554926E+02 -0.23572232389E+02  0.74050504759E+02  0.00000000000E+00 0.  1.
         11    1    3    3    0    0 -0.30881630942E+02 -0.12093278130E+02  0.63208442783E+01  0.33762043450E+02  0.00000000000E+00 0. -1.
<mgrwt>
<rscale>  0 0.13519424E+03</rscale>
<asrwt>0</asrwt>
<pdfrwt beam="2">  1        2 0.32325594E-01 0.14641938E+03</pdfrwt>
<pdfrwt beam="1">  1       -2 0.12553304E-01 0.14641938E+03</pdfrwt>
<totfact> 0.70799462E+03</totfact>
</mgrwt>
</event>
<event>
 7    1  0.1422977E-005  0.1486097E+03  0.7546771E-02  0.1210765E+00
          2   -1    0    0  501    0  0.00000000000E+00  0.00000000000E+00  0.14739939158E+04  0.14739939158E+04  0.00000000000E+00 0. -1.
         -2   -1    0    0    0  501 -0.00000000000E+00 -0.00000000000E+00 -0.19099740532E+02  0.19099740532E+02  0.00000000000E+00 0.  1.
         23    2    1    2    0    0  0.74116919056E+02  0.31039747678E+02  0.24815976988E+03  0.27724302439E+03  0.93934229968E+02 0.  0.
          5    1    1    2  502    0  0.72982828894E+01 -0.60964040782E+02  0.47275096015E+03  0.47674462716E+03  0.47000000000E+01 0. -1.
         -5    1    1    2    0  502 -0.81415201945E+02  0.29924293104E+02  0.73398344522E+03  0.73910600477E+03  0.47000000000E+01 0. -1.
        -11    1    3    3    0    0  0.37243653124E+02 -0.22390371195E+02  0.39527148834E+02  0.58743628720E+02  0.00000000000E+00 0.  1.
         11    1    3    3    0    0  0.36873265931E+02  0.53430118873E+02  0.20863262105E+03  0.21849939567E+03  0.00000000000E+00 0. -1.
<mgrwt>
<rscale>  0 0.14192282E+03</rscale>
<asrwt>0</asrwt>
<pdfrwt beam="1">  1        2 0.22676821E+00 0.14860967E+03</pdfrwt>
<pdfrwt beam="2">  1       -2 0.29384228E-02 0.14860967E+03</pdfrwt>
<totfact> 0.60646545E+03</totfact>
</mgrwt>
</event>
<event>
 7    1  0.1422977E-005  0.1410026E+03  0.7546771E-02  0.1222176E+00
          3   -1    0    0  501    0  0.00000000000E+00  0.00000000000E+00  0.28521285676E+03  0.28521285676E+03  0.00000000000E+00 0. -1.
         -3   -1    0    0    0  501 -0.00000000000E+00 -0.00000000000E+00 -0.60533324766E+02  0.60533324766E+02  0.00000000000E+00 0.  1.
         23    2    1    2    0    0  0.49795683199E+02 -0.42016323209E+02  0.58763408585E+02  0.12800804863E+03  0.93209124248E+02 0.  0.
          5    1    1    2  502    0  0.21248544148E+02 -0.64781223351E+01  0.11594630331E+03  0.11814864345E+03  0.47000000000E+01 0. -1.
         -5    1    1    2    0  502 -0.71044227348E+02  0.48494445544E+02  0.49969820093E+02  0.99589489446E+02  0.47000000000E+01 0. -1.
        -11    1    3    3    0    0  0.60041589924E+02 -0.28216546168E+02 -0.45806003390E+00  0.66342865609E+02  0.00000000000E+00 0.  1.
         11    1    3    3    0    0 -0.10245906725E+02 -0.13799777041E+02  0.59221468619E+02  0.61665183016E+02  0.00000000000E+00 0. -1.
<mgrwt>
<rscale>  0 0.13362337E+03</rscale>
<asrwt>0</asrwt>
<pdfrwt beam="1">  1        3 0.43878901E-01 0.14100260E+03</pdfrwt>
<pdfrwt beam="2">  1       -3 0.93128193E-02 0.14100260E+03</pdfrwt>
<totfact> 0.99870713E+02</totfact>
</mgrwt>
</event>
<event>
 7    1  0.1422977E-005  0.1381052E+03  0.7546771E-02  0.1227276E+00
          2   -1    0    0  501    0  0.00000000000E+00  0.00000000000E+00  0.17036122127E+04  0.17036122127E+04  0.00000000000E+00 0. -1.
         -2   -1    0    0    0  501 -0.00000000000E+00 -0.00000000000E+00 -0.10266270703E+02  0.10266270703E+02  0.00000000000E+00 0.  1.
         23    2    1    2    0    0  0.10202267715E+02 -0.57824382572E+02  0.45404687402E+03  0.46690806868E+03  0.91634247456E+02 0.  0.
          5    1    1    2  502    0 -0.54326526033E+02  0.73034934579E+02  0.80202739307E+03  0.80718987997E+03  0.47000000000E+01 0. -1.
         -5    1    1    2    0  502  0.44124258318E+02 -0.15210552008E+02  0.43727167489E+03  0.43978053473E+03  0.47000000000E+01 0. -1.
        -11    1    3    3    0    0 -0.25122312001E+02  0.44786110499E+01  0.45825199147E+02  0.52451285914E+02  0.00000000000E+00 0.  1.
         11    1    3    3    0    0  0.35324579715E+02 -0.62302993621E+02  0.40822167487E+03  0.41445678277E+03  0.00000000000E+00 0. -1.
<mgrwt>
<rscale>  0 0.13012100E+03</rscale>
<asrwt>0</asrwt>
<pdfrwt beam="1">  1        2 0.26209396E+00 0.13810516E+03</pdfrwt>
<pdfrwt beam="2">  1       -2 0.15794276E-02 0.13810516E+03</pdfrwt>
<totfact> 0.11368286E+04</totfact>
</mgrwt>
</event>
<event>
 7    1  0.1422977E-005  0.1602110E+03  0.7546771E-02  0.1196369E+00
          2   -1    0    0  501    0  0.00000000000E+00  0.00000000000E+00  0.19873450447E+03  0.19873450447E+03  0.00000000000E+00 0. -1.
         -2   -1    0    0    0  501 -0.00000000000E+00 -0.00000000000E+00 -0.15117715238E+03  0.15117715238E+03  0.00000000000E+00 0.  1.
         23    2    1    2    0    0 -0.46703438838E+01  0.10010340213E+03 -0.69492819225E+02  0.15149713614E+03  0.89886745988E+02 0.  0.
          5    1    1    2  502    0  0.44679739163E+02  0.38645698792E+01  0.15732784931E+02  0.47757978534E+02  0.47000000000E+01 0. -1.
         -5    1    1    2    0  502 -0.40009395279E+02 -0.10396797201E+03  0.10131738638E+03  0.15065654217E+03  0.47000000000E+01 0. -1.
        -11    1    3    3    0    0 -0.43129188558E+02  0.38221613490E+02 -0.12433893961E+02  0.58954392224E+02  0.00000000000E+00 0. -1.
         11    1    3    3    0    0  0.38458844674E+02  0.61881788642E+02 -0.57058925264E+02  0.92542743916E+02  0.00000000000E+00 0.  1.
<mgrwt>
<rscale>  0 0.15338945E+03</rscale>
<asrwt>0</asrwt>
<pdfrwt beam="1">  1        2 0.30574539E-01 0.16021105E+03</pdfrwt>
<pdfrwt beam="2">  1       -2 0.23258023E-01 0.16021105E+03</pdfrwt>
<totfact> 0.27060286E+03</totfact>
</mgrwt>
</event>
<event>
 7    1  0.1422977E-005  0.1272470E+03  0.7546771E-02  0.1245705E+00
         -2   -1    0    0    0  501 -0.00000000000E+00  0.00000000000E+00  0.34403485619E+03  0.34403485619E+03  0.00000000000E+00 0.  1.
          2   -1    0    0  501    0  0.00000000000E+00 -0.00000000000E+00 -0.38367072543E+02  0.38367072543E+02  0.00000000000E+00 0. -1.
         23    2    1    2    0    0  0.22447353231E+02 -0.77855931245E+01  0.17888718375E+03  0.20277698991E+03  0.92484506804E+02 0.  0.
          5    1    1    2  502    0 -0.60868613020E+02 -0.20420864553E+02  0.11255249142E+03  0.12966168703E+03  0.47000000000E+01 0.  1.
         -5    1    1    2    0  502  0.38421259789E+02  0.28206457677E+02  0.14228108477E+02  0.49963251788E+02  0.47000000000E+01 0.  1.
        -11    1    3    3    0    0 -0.22835197365E+02 -0.34643535972E+02  0.95993103420E+02  0.10457675042E+03  0.00000000000E+00 0.  1.
         11    1    3    3    0    0  0.45282550597E+02  0.26857942847E+02  0.82894080329E+02  0.98200239491E+02  0.00000000000E+00 0. -1.
<mgrwt>
<rscale>  0 0.11843291E+03</rscale>
<asrwt>0</asrwt>
<pdfrwt beam="2">  1        2 0.59026268E-02 0.12724700E+03</pdfrwt>
<pdfrwt beam="1">  1       -2 0.52928437E-01 0.12724700E+03</pdfrwt>
<totfact> 0.40940000E+03</totfact>
</mgrwt>
</event>
<event>
 7    1  0.1422977E-005  0.1362359E+03  0.7546771E-02  0.1230501E+00
         -1   -1    0    0    0  501 -0.00000000000E+00  0.00000000000E+00  0.57482645375E+03  0.57482645375E+03  0.00000000000E+00 0.  1.
          1   -1    0    0  501    0  0.00000000000E+00 -0.00000000000E+00 -0.31005426840E+02  0.31005426840E+02  0.00000000000E+00 0. -1.
         23    2    1    2    0    0  0.52947345878E+02  0.11111275589E+02  0.37047767062E+03  0.38535933292E+03  0.91220771535E+02 0.  0.
          5    1    1    2  502    0 -0.30017039835E+02  0.14254598550E+02 -0.91165930599E+01  0.34776695204E+02  0.47000000000E+01 0.  1.
         -5    1    1    2    0  502 -0.22930306043E+02 -0.25365874139E+02  0.18245994936E+03  0.18569585247E+03  0.47000000000E+01 0.  1.
        -11    1    3    3    0    0 -0.38876029566E+01  0.30021970220E+02  0.43848786266E+02  0.53283657998E+02  0.00000000000E+00 0. -1.
         11    1    3    3    0    0  0.56834948835E+02 -0.18910694631E+02  0.32662888435E+03  0.33207567492E+03  0.00000000000E+00 0.  1.
<mgrwt>
<rscale>  0 0.12796867E+03</rscale>
<asrwt>0</asrwt>
<pdfrwt beam="2">  1        1 0.47700661E-02 0.13623592E+03</pdfrwt>
<pdfrwt beam="1">  1       -1 0.88434831E-01 0.13623592E+03</pdfrwt>
<totfact> 0.22725886E+03</totfact>
</mgrwt>
</event>
<event>
 7    1  0.1422977E-005  0.1345897E+03  0.7546771E-02  0.1232447E+00
         -1   -1    0    0    0  501 -0.00000000000E+00  0.00000000000E+00  0.46824863806E+03  0.46824863806E+03  0.00000000000E+00 0.  1.
          1   -1    0    0  501    0  0.00000000000E+00 -0.00000000000E+00 -0.49132070013E+02  0.49132070013E+02  0.00000000000E+00 0. -1.
         23    2    1    2    0    0 -0.25764166690E+02  0.42731649892E+02  0.35094673950E+03  0.36651154608E+03  0.93152097439E+02 0.  0.
          5    1    1    2  502    0  0.62370674563E+02 -0.22409245040E+02 -0.47951590632E+01  0.66613503579E+02  0.47000000000E+01 0.  1.
         -5    1    1    2    0  502 -0.36606507873E+02 -0.20322404853E+02  0.72964987613E+02  0.84255658415E+02  0.47000000000E+01 0.  1.
        -11    1    3    3    0    0 -0.34895455702E+02 -0.15261285340E+02  0.71990719885E+02  0.81444848876E+02  0.00000000000E+00 0.  1.
         11    1    3    3    0    0  0.91312890125E+01  0.57992935232E+02  0.27895601961E+03  0.28506669720E+03  0.00000000000E+00 0. -1.
<mgrwt>
<rscale>  0 0.12669263E+03</rscale>
<asrwt>0</asrwt>
<pdfrwt beam="2">  1        1 0.75587803E-02 0.13458967E+03</pdfrwt>
<pdfrwt beam="1">  1       -1 0.72038249E-01 0.13458967E+03</pdfrwt>
<totfact> 0.18499431E+03</totfact>
</mgrwt>
</event>
<event>
 7    1  0.1422977E-005  0.2533563E+03  0.7546771E-02  0.1111202E+00
          2   -1    0    0  501    0  0.00000000000E+00  0.00000000000E+00  0.14679442520E+03  0.14679442520E+03  0.00000000000E+00 0. -1.
         -2   -1    0    0    0  501 -0.00000000000E+00 -0.00000000000E+00 -0.10931858553E+03  0.10931858553E+03  0.00000000000E+00 0.  1.
         23    2    1    2    0    0 -0.33941615045E+01  0.38938107864E+02 -0.16050864406E+02  0.98197164142E+02  0.88641729569E+02 0.  0.
          5    1    1    2  502    0 -0.10115263319E+02 -0.79136745226E+02  0.75482899059E+02  0.10993043731E+03  0.47000000000E+01 0. -1.
         -5    1    1    2    0  502  0.13509424823E+02  0.40198637361E+02 -0.21956194985E+02  0.47985409272E+02  0.47000000000E+01 0.  1.
        -11    1    3    3    0    0 -0.18783043964E+02  0.19427919510E+02 -0.49578657539E+02  0.56464945590E+02  0.00000000000E+00 0.  1.
         11    1    3    3    0    0  0.15388882459E+02  0.19510188354E+02  0.33527793133E+02  0.41732218552E+02  0.00000000000E+00 0. -1.
<mgrwt>
<rscale>  0 0.25335634E+03</rscale>
<asrwt>0</asrwt>
<pdfrwt beam="1">  1        2 0.22583758E-01 0.25335634E+03</pdfrwt>
<pdfrwt beam="2">  1       -2 0.16818244E-01 0.25335634E+03</pdfrwt>
<totfact> 0.67351986E+03</totfact>
</mgrwt>
</event>
<event>
 7    1  0.1422977E-005  0.1316423E+03  0.7546771E-02  0.1238869E+00
         -2   -1    0    0    0  501 -0.00000000000E+00  0.00000000000E+00  0.77371289449E+02  0.77371289449E+02  0.00000000000E+00 0.  1.
          2   -1    0    0  501    0  0.00000000000E+00 -0.00000000000E+00 -0.18131082291E+03  0.18131082291E+03  0.00000000000E+00 0. -1.
         23    2    1    2    0    0 -0.11087812067E+02 -0.39784662366E+02 -0.15865019973E+02  0.10029389749E+03  0.90007822324E+02 0.  0.
          5    1    1    2  502    0 -0.21508246261E+02  0.67835435544E+02 -0.90304551851E+02  0.11507064377E+03  0.47000000000E+01 0. -1.
         -5    1    1    2    0  502  0.32596058328E+02 -0.28050773178E+02  0.22300383650E+01  0.43317571094E+02  0.47000000000E+01 0. -1.
        -11    1    3    3    0    0  0.15277853156E+02 -0.49757615459E+02  0.19043893620E+02  0.55424750585E+02  0.00000000000E+00 0.  1.
         11    1    3    3    0    0 -0.26365665223E+02  0.99729530924E+01 -0.34908913593E+02  0.44869146908E+02  0.00000000000E+00 0. -1.
<mgrwt>
<rscale>  0 0.12259977E+03</rscale>
<asrwt>0</asrwt>
<pdfrwt beam="2">  1        2 0.27893973E-01 0.13164234E+03</pdfrwt>
<pdfrwt beam="1">  1       -2 0.11903275E-01 0.13164234E+03</pdfrwt>
<totfact> 0.89764845E+03</totfact>
</mgrwt>
</event>
<event>
 7    1  0.1422977E-005  0.1566030E+03  0.7546771E-02  0.1201074E+00
         -1   -1    0    0    0  501 -0.00000000000E+00  0.00000000000E+00  0.50378366493E+02  0.50378366493E+02  0.00000000000E+00 0.  1.
          1   -1    0    0  501    0  0.00000000000E+00 -0.00000000000E+00 -0.40825658296E+03  0.40825658296E+03  0.00000000000E+00 0. -1.
         23    2    1    2    0    0 -0.19313147088E+02  0.92388527221E+02 -0.16891206068E+03  0.21321142201E+03  0.89549922515E+02 0.  0.
          5    1    1    2  502    0  0.36832469389E+02 -0.11823498649E+03 -0.16152835731E+03  0.20359185408E+03  0.47000000000E+01 0. -1.
         -5    1    1    2    0  502 -0.17519322301E+02  0.25846459271E+02 -0.27437798480E+02  0.41831673361E+02  0.47000000000E+01 0. -1.
        -11    1    3    3    0    0 -0.27762796949E+02  0.38479786002E+02 -0.14769011883E+02  0.49694974969E+02  0.00000000000E+00 0.  1.
         11    1    3    3    0    0  0.84496498609E+01  0.53908741219E+02 -0.15414304879E+03  0.16351644704E+03  0.00000000000E+00 0. -1.
<mgrwt>
<rscale>  0 0.14951171E+03</rscale>
<asrwt>0</asrwt>
<pdfrwt beam="2">  1        1 0.62808706E-01 0.15660300E+03</pdfrwt>
<pdfrwt beam="1">  1       -1 0.77505178E-02 0.15660300E+03</pdfrwt>
<totfact> 0.51670565E+03</totfact>
</mgrwt>
</event>
<event>
 7    1  0.1422977E-005  0.3492360E+03  0.7546771E-02  0.1064027E+00
          1   -1    0    0  501    0  0.00000000000E+00  0.00000000000E+00  0.83992977723E+03  0.83992977723E+03  0.00000000000E+00 0. -1.
         -1   -1    0    0    0  501 -0.00000000000E+00 -0.00000000000E+00 -0.18121544297E+03  0.18121544297E+03  0.00000000000E+00 0.  1.
         23    2    1    2    0    0 -0.30691819592E+03  0.11020201600E+03  0.84584359646E+02  0.34914001212E+03  0.91656810167E+02 0.  0.
          5    1    1    2  502    0  0.10998638807E+03 -0.99793865682E+02  0.29366815811E+03  0.32911836514E+03  0.47000000000E+01 0.  1.
         -5    1    1    2    0  502  0.19693180785E+03 -0.10408150319E+02  0.28046181651E+03  0.34288684293E+03  0.47000000000E+01 0.  1.
        -11    1    3    3    0    0 -0.14245462744E+03  0.86555344293E+01  0.14140344114E+02  0.14341613748E+03  0.00000000000E+00 0. -1.
         11    1    3    3    0    0 -0.16446356848E+03  0.10154648157E+03  0.70444015532E+02  0.20572387465E+03  0.00000000000E+00 0.  1.
<mgrwt>
<rscale>  0 0.34658168E+03</rscale>
<asrwt>0</asrwt>
<pdfrwt beam="1">  1        1 0.12921996E+00 0.34923598E+03</pdfrwt>
<pdfrwt beam="2">  1       -1 0.27879299E-01 0.34923598E+03</pdfrwt>
<totfact> 0.24708256E+02</totfact>
</mgrwt>
</event>
<event>
 7    1  0.1422977E-005  0.1523040E+03  0.7546771E-02  0.1207946E+00
         -2   -1    0    0    0  501 -0.00000000000E+00  0.00000000000E+00  0.24511453791E+03  0.24511453791E+03  0.00000000000E+00 0.  1.
          2   -1    0    0  501    0  0.00000000000E+00 -0.00000000000E+00 -0.79658466478E+02  0.79658466478E+02  0.00000000000E+00 0. -1.
         23    2    1    2    0    0  0.69654567716E+01 -0.81400243526E+02  0.10489919390E+03  0.16087166814E+03  0.90561225116E+02 0.  0.
          5    1    1    2  502    0 -0.49178868796E+02 -0.22637965510E+01 -0.46002877461E+01  0.49668285236E+02  0.47000000000E+01 0. -1.
         -5    1    1    2    0  502  0.42213412025E+02  0.83664040077E+02  0.65157165275E+02  0.11423305101E+03  0.47000000000E+01 0.  1.
        -11    1    3    3    0    0 -0.26107702233E+02 -0.82761011333E+02  0.61844264602E+02  0.10656317458E+03  0.00000000000E+00 0. -1.
         11    1    3    3    0    0  0.33073159004E+02  0.13607678074E+01  0.43054929297E+02  0.54308493556E+02  0.00000000000E+00 0.  1.
<mgrwt>
<rscale>  0 0.14407670E+03</rscale>
<asrwt>0</asrwt>
<pdfrwt beam="2">  1        2 0.12255149E-01 0.15230401E+03</pdfrwt>
<pdfrwt beam="1">  1       -2 0.37709929E-01 0.15230401E+03</pdfrwt>
<totfact> 0.32091118E+03</totfact>
</mgrwt>
</event>
<event>
 7    1  0.1422977E-005  0.1307714E+03  0.7546771E-02  0.1239671E+00
         -1   -1    0    0    0  501 -0.00000000000E+00  0.00000000000E+00  0.10368829882E+03  0.10368829882E+03  0.00000000000E+00 0.  1.
          1   -1    0    0  501    0  0.00000000000E+00 -0.00000000000E+00 -0.23373476698E+03  0.23373476698E+03  0.00000000000E+00 0. -1.
         23    2    1    2    0    0  0.27200113540E+02  0.27137722191E+02  0.52864037501E+02  0.11257331989E+03  0.91661571817E+02 0.  0.
          5    1    1    2  502    0  0.42446321935E+02 -0.22674471971E+02 -0.12505089130E+03  0.13407325363E+03  0.47000000000E+01 0.  1.
         -5    1    1    2    0  502 -0.69646435475E+02 -0.44632502199E+01 -0.57859614365E+02  0.90776492284E+02  0.47000000000E+01 0.  1.
        -11    1    3    3    0    0 -0.15629368281E+02  0.32765623201E+02  0.58664150368E+02  0.68988011676E+02  0.00000000000E+00 0.  1.
         11    1    3    3    0    0  0.42829481821E+02 -0.56279010098E+01 -0.58001128670E+01  0.43585308214E+02  0.00000000000E+00 0. -1.
<mgrwt>
<rscale>  0 0.12210093E+03</rscale>
<asrwt>0</asrwt>
<pdfrwt beam="2">  1        1 0.35959194E-01 0.13077139E+03</pdfrwt>
<pdfrwt beam="1">  1       -1 0.15952046E-01 0.13077139E+03</pdfrwt>
<totfact> 0.33750820E+03</totfact>
</mgrwt>
</event>
<event>
 7    1  0.1422977E-005  0.1493688E+03  0.7546771E-02  0.1208725E+00
          2   -1    0    0  501    0  0.00000000000E+00  0.00000000000E+00  0.45103994769E+03  0.45103994769E+03  0.00000000000E+00 0.  1.
         -2   -1    0    0    0  501 -0.00000000000E+00 -0.00000000000E+00 -0.42752637837E+02  0.42752637837E+02  0.00000000000E+00 0. -1.
         23    2    1    2    0    0 -0.80914708519E+02 -0.11769059867E+02  0.16506721594E+03  0.20836826664E+03  0.97388130381E+02 0.  0.
          5    1    1    2  502    0  0.10164368446E+03  0.27102798357E+02  0.23570892827E+03  0.25816039421E+03  0.47000000000E+01 0. -1.
         -5    1    1    2    0  502 -0.20728975936E+02 -0.15333738490E+02  0.75111656298E+01  0.27263924673E+02  0.47000000000E+01 0. -1.
        -11    1    3    3    0    0  0.95548130807E+01  0.16226096890E+02  0.76226269397E+02  0.78517672020E+02  0.00000000000E+00 0.  1.
         11    1    3    3    0    0 -0.90469521600E+02 -0.27995156757E+02  0.88840946547E+02  0.12985059462E+03  0.00000000000E+00 0. -1.
<mgrwt>
<rscale>  0 0.14347760E+03</rscale>
<asrwt>0</asrwt>
<pdfrwt beam="1">  1        2 0.69390758E-01 0.14936876E+03</pdfrwt>
<pdfrwt beam="2">  1       -2 0.65773292E-02 0.14936876E+03</pdfrwt>
<totfact> 0.86089676E+03</totfact>
</mgrwt>
</event>
<event>
 7    1  0.1422977E-005  0.1993925E+03  0.7546771E-02  0.1154745E+00
         -2   -1    0    0    0  501 -0.00000000000E+00  0.00000000000E+00  0.57818394758E+02  0.57818394758E+02  0.00000000000E+00 0.  1.
          2   -1    0    0  501    0  0.00000000000E+00 -0.00000000000E+00 -0.62669580078E+03  0.62669580078E+03  0.00000000000E+00 0. -1.
         23    2    1    2    0    0  0.14541231631E+03 -0.54660771975E+02 -0.30427582952E+03  0.35319659605E+03  0.89618710674E+02 0.  0.
          5    1    1    2  502    0 -0.17094755248E+02 -0.12933754902E+02 -0.13495901156E+03  0.13673162572E+03  0.47000000000E+01 0.  1.
         -5    1    1    2    0  502 -0.12831756106E+03  0.67594526877E+02 -0.12964256495E+03  0.19458597377E+03  0.47000000000E+01 0.  1.
        -11    1    3    3    0    0  0.80651079199E+02 -0.21173512427E+02 -0.73416498781E+02  0.11109858909E+03  0.00000000000E+00 0.  1.
         11    1    3    3    0    0  0.64761237111E+02 -0.33487259548E+02 -0.23085933074E+03  0.24209800696E+03  0.00000000000E+00 0. -1.
<mgrwt>
<rscale>  0 0.19417929E+03</rscale>
<asrwt>0</asrwt>
<pdfrwt beam="2">  1        2 0.96414739E-01 0.19939247E+03</pdfrwt>
<pdfrwt beam="1">  1       -2 0.88951376E-02 0.19939247E+03</pdfrwt>
<totfact> 0.37824451E+03</totfact>
</mgrwt>
</event>
<event>
 7    1  0.1422977E-005  0.2038261E+03  0.7546771E-02  0.1151118E+00
          2   -1    0    0  501    0  0.00000000000E+00  0.00000000000E+00  0.13538404294E+04  0.13538404294E+04  0.00000000000E+00 0. -1.
         -2   -1    0    0    0  501 -0.00000000000E+00 -0.00000000000E+00 -0.55840951516E+02  0.55840951516E+02  0.00000000000E+00 0.  1.
         23    2    1    2    0    0  0.37332228396E+02  0.15660716718E+03  0.13085379597E+03  0.22487164701E+03  0.86746997755E+02 0.  0.
          5    1    1    2  502    0 -0.64396469172E+02 -0.68789561269E+02  0.82960352424E+03  0.83495090060E+03  0.47000000000E+01 0.  1.
         -5    1    1    2    0  502  0.27064240776E+02 -0.87817605910E+02  0.33754215773E+03  0.34985883336E+03  0.47000000000E+01 0.  1.
        -11    1    3    3    0    0 -0.25521173435E+02  0.67567690188E+02  0.37576066697E+02  0.81416729481E+02  0.00000000000E+00 0.  1.
         11    1    3    3    0    0  0.62853401832E+02  0.89039476990E+02  0.93277729269E+02  0.14345491752E+03  0.00000000000E+00 0. -1.
<mgrwt>
<rscale>  0 0.19837431E+03</rscale>
<asrwt>0</asrwt>
<pdfrwt beam="1">  1        2 0.20828312E+00 0.20382606E+03</pdfrwt>
<pdfrwt beam="2">  1       -2 0.85909167E-02 0.20382606E+03</pdfrwt>
<totfact> 0.13894674E+03</totfact>
</mgrwt>
</event>
<event>
 7    1  0.1422977E-005  0.1281373E+03  0.7546771E-02  0.1246549E+00
          2   -1    0    0  501    0  0.00000000000E+00  0.00000000000E+00  0.49167789143E+03  0.49167789143E+03  0.00000000000E+00 0. -1.
         -2   -1    0    0    0  501 -0.00000000000E+00 -0.00000000000E+00 -0.25539922823E+02  0.25539922823E+02  0.00000000000E+00 0.  1.
         23    2    1    2    0    0  0.27860158592E+02  0.41367771484E+01  0.14783569837E+03  0.17409173125E+03  0.87517060151E+02 0.  0.
          5    1    1    2  502    0  0.73273559384E+01 -0.31496732347E+02  0.14015923968E+02  0.35556580520E+02  0.47000000000E+01 0.  1.
         -5    1    1    2    0  502 -0.35187514530E+02  0.27359955199E+02  0.30428634628E+03  0.30756950248E+03  0.47000000000E+01 0.  1.
        -11    1    3    3    0    0 -0.25559217694E+02 -0.78422203925E+01  0.92359327140E+02  0.96151023602E+02  0.00000000000E+00 0. -1.
         11    1    3    3    0    0  0.53419376286E+02  0.11978997541E+02  0.55476371225E+02  0.77940707651E+02  0.00000000000E+00 0.  1.
<mgrwt>
<rscale>  0 0.11793158E+03</rscale>
<asrwt>0</asrwt>
<pdfrwt beam="1">  1        2 0.75642746E-01 0.12813732E+03</pdfrwt>
<pdfrwt beam="2">  1       -2 0.39292192E-02 0.12813732E+03</pdfrwt>
<totfact> 0.16817775E+04</totfact>
</mgrwt>
</event>
<event>
 7    1  0.1422977E-005  0.1145168E+03  0.7546771E-02  0.1264432E+00
         -2   -1    0    0    0  501 -0.00000000000E+00  0.00000000000E+00  0.11228187718E+03  0.11228187718E+03  0.00000000000E+00 0.  1.
          2   -1    0    0  501    0  0.00000000000E+00 -0.00000000000E+00 -0.10528971085E+03  0.10528971085E+03  0.00000000000E+00 0. -1.
         23    2    1    2    0    0 -0.65811641702E+01 -0.10891515172E+01  0.39328078464E+02  0.98577026899E+02  0.90145629420E+02 0.  0.
          5    1    1    2  502    0  0.43759021053E+02 -0.22228517832E+02 -0.51123818144E+02  0.71026007280E+02  0.47000000000E+01 0. -1.
         -5    1    1    2    0  502 -0.37177856883E+02  0.23317669350E+02  0.18787906016E+02  0.47968553853E+02  0.47000000000E+01 0.  1.
        -11    1    3    3    0    0  0.10807947510E+02  0.41636422042E+02  0.27150589119E+02  0.50868043596E+02  0.00000000000E+00 0. -1.
         11    1    3    3    0    0 -0.17389111680E+02 -0.42725573559E+02  0.12177489346E+02  0.47708983302E+02  0.00000000000E+00 0.  1.
<mgrwt>
<rscale>  0 0.10794052E+03</rscale>
<asrwt>0</asrwt>
<pdfrwt beam="2">  1        2 0.16198417E-01 0.11451679E+03</pdfrwt>
<pdfrwt beam="1">  1       -2 0.17274135E-01 0.11451679E+03</pdfrwt>
<totfact> 0.89172070E+03</totfact>
</mgrwt>
</event>
<event>
 7    1  0.1422977E-005  0.1836637E+03  0.7546771E-02  0.1169254E+00
         -2   -1    0    0    0  501 -0.00000000000E+00  0.00000000000E+00  0.93820596703E+02  0.93820596703E+02  0.00000000000E+00 0.  1.
          2   -1    0    0  501    0  0.00000000000E+00 -0.00000000000E+00 -0.38373266632E+03  0.38373266632E+03  0.00000000000E+00 0. -1.
         23    2    1    2    0    0  0.10321786655E+03 -0.86352695634E+02 -0.42312785807E+02  0.16927132540E+03  0.93550487655E+02 0.  0.
          5    1    1    2  502    0 -0.56048973556E+02  0.99798203739E+02 -0.97927849690E+02  0.15070873449E+03  0.47000000000E+01 0. -1.
         -5    1    1    2    0  502 -0.47168892996E+02 -0.13445508104E+02 -0.14967143412E+03  0.15757320313E+03  0.47000000000E+01 0. -1.
        -11    1    3    3    0    0  0.38398614453E+02 -0.31861725546E+02  0.29738317114E+02  0.58086062454E+02  0.00000000000E+00 0.  1.
         11    1    3    3    0    0  0.64819252100E+02 -0.54490970089E+02 -0.72051102920E+02  0.11118526294E+03  0.00000000000E+00 0. -1.
<mgrwt>
<rscale>  0 0.17850919E+03</rscale>
<asrwt>0</asrwt>
<pdfrwt beam="2">  1        2 0.59035795E-01 0.18366368E+03</pdfrwt>
<pdfrwt beam="1">  1       -2 0.14433938E-01 0.18366368E+03</pdfrwt>
<totfact> 0.29971352E+03</totfact>
</mgrwt>
</event>
<event>
 7    1  0.1422977E-005  0.1413521E+03  0.7546771E-02  0.1221982E+00
          2   -1    0    0  501    0  0.00000000000E+00  0.00000000000E+00  0.69694305968E+03  0.69694305968E+03  0.00000000000E+00 0.  1.
         -2   -1    0    0    0  501 -0.00000000000E+00 -0.00000000000E+00 -0.26359634553E+02  0.26359634553E+02  0.00000000000E+00 0. -1.
         23    2    1    2    0    0  0.34105399504E+02  0.56487571600E+02  0.17956643118E+03  0.21234467256E+03  0.92152768487E+02 0.  0.
          5    1    1    2  502    0 -0.58172112018E+02 -0.13815986373E+02  0.98172108324E+02  0.11504229200E+03  0.47000000000E+01 0.  1.
         -5    1    1    2    0  502  0.24066712514E+02 -0.42671585227E+02  0.39284488562E+03  0.39591572967E+03  0.47000000000E+01 0.  1.
        -11    1    3    3    0    0 -0.20715062768E+02  0.48856130708E+02  0.57100819893E+02  0.77952158185E+02  0.00000000000E+00 0. -1.
         11    1    3    3    0    0  0.54820462272E+02  0.76314408919E+01  0.12246561129E+03  0.13439251438E+03  0.00000000000E+00 0.  1.
<mgrwt>
<rscale>  0 0.13375909E+03</rscale>
<asrwt>0</asrwt>
<pdfrwt beam="1">  1        2 0.10722200E+00 0.14135208E+03</pdfrwt>
<pdfrwt beam="2">  1       -2 0.40553289E-02 0.14135208E+03</pdfrwt>
<totfact> 0.10882164E+04</totfact>
</mgrwt>
</event>
<event>
 7    1  0.1422977E-005  0.1447994E+03  0.7546771E-02  0.1222770E+00
          1   -1    0    0  501    0  0.00000000000E+00  0.00000000000E+00  0.50797944811E+03  0.50797944811E+03  0.00000000000E+00 0. -1.
         -1   -1    0    0    0  501 -0.00000000000E+00 -0.00000000000E+00 -0.39175608395E+02  0.39175608395E+02  0.00000000000E+00 0.  1.
         23    2    1    2    0    0  0.48668282684E+02 -0.20254914047E+01  0.76191624483E+02  0.12869214822E+03  0.91563098551E+02 0.  0.
          5    1    1    2  502    0 -0.85383692797E+02  0.37637168230E+02  0.25155310640E+03  0.26834303935E+03  0.47000000000E+01 0. -1.
         -5    1    1    2    0  502  0.36715410113E+02 -0.35611676825E+02  0.14105910883E+03  0.15011986894E+03  0.47000000000E+01 0.  1.
        -11    1    3    3    0    0  0.31513300240E+02  0.44135407285E+02  0.44264139452E+02  0.70002402171E+02  0.00000000000E+00 0.  1.
         11    1    3    3    0    0  0.17154982444E+02 -0.46160898690E+02  0.31927485031E+02  0.58689746046E+02  0.00000000000E+00 0. -1.
<mgrwt>
<rscale>  0 0.13320909E+03</rscale>
<asrwt>0</asrwt>
<pdfrwt beam="1">  1        1 0.78150680E-01 0.14479936E+03</pdfrwt>
<pdfrwt beam="2">  1       -1 0.60270170E-02 0.14479936E+03</pdfrwt>
<totfact> 0.56647320E+03</totfact>
</mgrwt>
</event>
<event>
 7    1  0.1422977E-005  0.1314150E+03  0.7546771E-02  0.1237465E+00
         -1   -1    0    0    0  501 -0.00000000000E+00  0.00000000000E+00  0.13807608563E+02  0.13807608563E+02  0.00000000000E+00 0.  1.
          1   -1    0    0  501    0  0.00000000000E+00 -0.00000000000E+00 -0.12777770477E+04  0.12777770477E+04  0.00000000000E+00 0. -1.
         23    2    1    2    0    0  0.16879350428E+02  0.37005870010E+02 -0.26672376638E+03  0.28571745392E+03  0.94013557735E+02 0.  0.
          5    1    1    2  502    0  0.27922516156E+02 -0.68966007195E+02 -0.49293066709E+03  0.49853656799E+03  0.47000000000E+01 0.  1.
         -5    1    1    2    0  502 -0.44801866584E+02  0.31960137185E+02 -0.50431500570E+03  0.50733063439E+03  0.47000000000E+01 0.  1.
        -11    1    3    3    0    0  0.31438295792E+01 -0.30092917439E+02 -0.12061946756E+03  0.12435643650E+03  0.00000000000E+00 0.  1.
         11    1    3    3    0    0  0.13735520849E+02  0.67098787448E+02 -0.14610429881E+03  0.16136101742E+03  0.00000000000E+00 0. -1.
<mgrwt>
<rscale>  0 0.12347970E+03</rscale>
<asrwt>0</asrwt>
<pdfrwt beam="2">  1        1 0.19658108E+00 0.13141498E+03</pdfrwt>
<pdfrwt beam="1">  1       -1 0.21242475E-02 0.13141498E+03</pdfrwt>
<totfact> 0.61907443E+03</totfact>
</mgrwt>
</event>
<event>
 7    1  0.1422977E-005  0.1283165E+03  0.7546771E-02  0.1245364E+00
         -1   -1    0    0    0  501 -0.00000000000E+00  0.00000000000E+00  0.68049736658E+02  0.68049736658E+02  0.00000000000E+00 0.  1.
          1   -1    0    0  501    0  0.00000000000E+00 -0.00000000000E+00 -0.20859070836E+03  0.20859070836E+03  0.00000000000E+00 0. -1.
         23    2    1    2    0    0  0.21152278358E+02 -0.19807214755E+02 -0.11166804510E+02  0.94424071081E+02  0.89170976447E+02 0.  0.
          5    1    1    2  502    0  0.34676668792E+02  0.15872196033E+02  0.28776842499E+01  0.38532700815E+02  0.47000000000E+01 0. -1.
         -5    1    1    2    0  502 -0.55828947150E+02  0.39350187226E+01 -0.13225185144E+03  0.14368367312E+03  0.47000000000E+01 0. -1.
        -11    1    3    3    0    0  0.13179659025E+02  0.81653580601E+01  0.35894423272E+02  0.39099694453E+02  0.00000000000E+00 0.  1.
         11    1    3    3    0    0  0.79726193321E+01 -0.27972572816E+02 -0.47061227782E+02  0.55324376628E+02  0.00000000000E+00 0. -1.
<mgrwt>
<rscale>  0 0.11863642E+03</rscale>
<asrwt>0</asrwt>
<pdfrwt beam="2">  1        1 0.32090878E-01 0.12831653E+03</pdfrwt>
<pdfrwt beam="1">  1       -1 0.10469190E-01 0.12831653E+03</pdfrwt>
<totfact> 0.74522422E+03</totfact>
</mgrwt>
</event>
<event>
 7    1  0.1422977E-005  0.3585576E+03  0.7546771E-02  0.1105238E+00
          2   -1    0    0  501    0  0.00000000000E+00  0.00000000000E+00  0.51488687306E+03  0.51488687306E+03  0.00000000000E+00 0. -1.
         -2   -1    0    0    0  501 -0.00000000000E+00 -0.00000000000E+00 -0.12857678797E+03  0.12857678797E+03  0.00000000000E+00 0.  1.
         23    2    1    2    0    0  0.28652437899E+02  0.41244973957E+02 -0.15148981925E+02  0.10519521403E+03  0.91183503596E+02 0.  0.
          5    1    1    2  502    0  0.70029988579E+01  0.15683870019E+03  0.16773503934E+03  0.22979241349E+03  0.47000000000E+01 0. -1.
         -5    1    1    2    0  502 -0.35655436756E+02 -0.19808367415E+03  0.23372402767E+03  0.30847603351E+03  0.47000000000E+01 0.  1.
        -11    1    3    3    0    0 -0.32779652157E+01  0.62077457404E+02  0.44579917608E+01  0.62323586741E+02  0.00000000000E+00 0.  1.
         11    1    3    3    0    0  0.31930403114E+02 -0.20832483448E+02 -0.19606973686E+02  0.42871627293E+02  0.00000000000E+00 0. -1.
<mgrwt>
<rscale>  0 0.26319675E+03</rscale>
<asrwt>0</asrwt>
<pdfrwt beam="1">  1        2 0.79213364E-01 0.35855758E+03</pdfrwt>
<pdfrwt beam="2">  1       -2 0.19781045E-01 0.35855758E+03</pdfrwt>
<totfact> 0.12932044E+03</totfact>
</mgrwt>
</event>
<event>
 7    1  0.1422977E-005  0.1354005E+03  0.7546771E-02  0.1232023E+00
         -1   -1    0    0    0  501 -0.00000000000E+00  0.00000000000E+00  0.55100267493E+02  0.55100267493E+02  0.00000000000E+00 0.  1.
          1   -1    0    0  501    0  0.00000000000E+00 -0.00000000000E+00 -0.26870482710E+03  0.26870482710E+03  0.00000000000E+00 0. -1.
         23    2    1    2    0    0 -0.13093982562E+02 -0.50436935281E+02 -0.67309934318E+02  0.12446762863E+03  0.90808735809E+02 0.  0.
          5    1    1    2  502    0  0.11489799640E+02  0.52309195304E+02 -0.16831180562E+03  0.17668961860E+03  0.47000000000E+01 0.  1.
         -5    1    1    2    0  502  0.16041829218E+01 -0.18722600225E+01  0.22017180332E+02  0.22647847364E+02  0.47000000000E+01 0.  1.
        -11    1    3    3    0    0  0.36019041828E+02 -0.29960739742E+02 -0.49981231827E+02  0.68506502137E+02  0.00000000000E+00 0. -1.
         11    1    3    3    0    0 -0.49113024390E+02 -0.20476195540E+02 -0.17328702491E+02  0.55961126494E+02  0.00000000000E+00 0.  1.
<mgrwt>
<rscale>  0 0.12696949E+03</rscale>
<asrwt>0</asrwt>
<pdfrwt beam="2">  1        1 0.41339205E-01 0.13540055E+03</pdfrwt>
<pdfrwt beam="1">  1       -1 0.84769641E-02 0.13540055E+03</pdfrwt>
<totfact> 0.75386472E+03</totfact>
</mgrwt>
</event>
<event>
 7    1  0.1422977E-005  0.2322682E+03  0.7546771E-02  0.1128017E+00
         -2   -1    0    0    0  501 -0.00000000000E+00  0.00000000000E+00  0.15541224751E+03  0.15541224751E+03  0.00000000000E+00 0.  1.
          2   -1    0    0  501    0  0.00000000000E+00 -0.00000000000E+00 -0.35032847984E+03  0.35032847984E+03  0.00000000000E+00 0. -1.
         23    2    1    2    0    0 -0.91078955260E+02 -0.17328989495E+03 -0.23650683588E+02  0.21715724611E+03  0.90956862975E+02 0.  0.
          5    1    1    2  502    0  0.37711506787E+02  0.10384730684E+03 -0.18057939411E+02  0.11204731169E+03  0.47000000000E+01 0.  1.
         -5    1    1    2    0  502  0.53367448472E+02  0.69442588116E+02 -0.15320760933E+03  0.17653616955E+03  0.47000000000E+01 0.  1.
        -11    1    3    3    0    0 -0.45616717398E+02 -0.13246301562E+03  0.20749216964E+02  0.14162579362E+03  0.00000000000E+00 0.  1.
         11    1    3    3    0    0 -0.45462237862E+02 -0.40826879334E+02 -0.44399900552E+02  0.75531452499E+02  0.00000000000E+00 0. -1.
<mgrwt>
<rscale>  0 0.22805426E+03</rscale>
<asrwt>0</asrwt>
<pdfrwt beam="2">  1        2 0.53896688E-01 0.23226824E+03</pdfrwt>
<pdfrwt beam="1">  1       -2 0.23909577E-01 0.23226824E+03</pdfrwt>
<totfact> 0.14160766E+03</totfact>
</mgrwt>
</event>
<event>
 7    1  0.1422977E-005  0.1374901E+03  0.7546771E-02  0.1229945E+00
          1   -1    0    0  501    0  0.00000000000E+00  0.00000000000E+00  0.76241700175E+03  0.76241700175E+03  0.00000000000E+00 0. -1.
         -1   -1    0    0    0  501 -0.00000000000E+00 -0.00000000000E+00 -0.19883536155E+02  0.19883536155E+02  0.00000000000E+00 0.  1.
         23    2    1    2    0    0 -0.45522891137E+02 -0.34733855056E+02  0.24941211910E+03  0.27037068018E+03  0.87264684982E+02 0.  0.
          5    1    1    2  502    0  0.56721500678E+02  0.11688736540E+00  0.85810541271E+02  0.10297029326E+03  0.47000000000E+01 0.  1.
         -5    1    1    2    0  502 -0.11198609541E+02  0.34616967691E+02  0.40731080522E+03  0.40895956445E+03  0.47000000000E+01 0.  1.
        -11    1    3    3    0    0  0.65093234792E+01 -0.15162191368E+02  0.18039501461E+01  0.16598722100E+02  0.00000000000E+00 0.  1.
         11    1    3    3    0    0 -0.52032214616E+02 -0.19571663688E+02  0.24760816895E+03  0.25377195808E+03  0.00000000000E+00 0. -1.
<mgrwt>
<rscale>  0 0.12833686E+03</rscale>
<asrwt>0</asrwt>
<pdfrwt beam="1">  1        1 0.11729490E+00 0.13749006E+03</pdfrwt>
<pdfrwt beam="2">  1       -1 0.30590062E-02 0.13749006E+03</pdfrwt>
<totfact> 0.87506675E+03</totfact>
</mgrwt>
</event>
<event>
 7    1  0.1422977E-005  0.1589267E+03  0.7546771E-02  0.1197554E+00
         -2   -1    0    0    0  501 -0.00000000000E+00  0.00000000000E+00  0.74992342355E+02  0.74992342355E+02  0.00000000000E+00 0.  1.
          2   -1    0    0  501    0  0.00000000000E+00 -0.00000000000E+00 -0.34842465043E+03  0.34842465043E+03  0.00000000000E+00 0. -1.
         23    2    1    2    0    0  0.62798968778E+02  0.75426098982E+02 -0.38524310992E+02  0.13979845327E+03  0.91796939558E+02 0.  0.
          5    1    1    2  502    0 -0.82202604358E+02 -0.97865395072E+02 -0.17682588827E+03  0.21823012734E+03  0.47000000000E+01 0.  1.
         -5    1    1    2    0  502  0.19403635580E+02  0.22439296090E+02 -0.58082108807E+02  0.65388412171E+02  0.47000000000E+01 0.  1.
        -11    1    3    3    0    0  0.35240052961E+02  0.57814453781E+02  0.21840165078E+02  0.71143272410E+02  0.00000000000E+00 0.  1.
         11    1    3    3    0    0  0.27558915818E+02  0.17611645201E+02 -0.60364476070E+02  0.68655180860E+02  0.00000000000E+00 0. -1.
<mgrwt>
<rscale>  0 0.15240033E+03</rscale>
<asrwt>0</asrwt>
<pdfrwt beam="2">  1        2 0.53603793E-01 0.15892674E+03</pdfrwt>
<pdfrwt beam="1">  1       -2 0.11537283E-01 0.15892674E+03</pdfrwt>
<totfact> 0.47449292E+03</totfact>
</mgrwt>
</event>
<event>
 7    1  0.1422977E-005  0.2175527E+03  0.7546771E-02  0.1170292E+00
         -4   -1    0    0    0  501 -0.00000000000E+00  0.00000000000E+00  0.13515649862E+03  0.13515649862E+03  0.00000000000E+00 0.  1.
          4   -1    0    0  501    0  0.00000000000E+00 -0.00000000000E+00 -0.19462761450E+03  0.19462761450E+03  0.00000000000E+00 0. -1.
         23    2    1    2    0    0  0.30335166087E+02 -0.80528660997E+01  0.19657802795E+02  0.98287755471E+02  0.91043850484E+02 0.  0.
          5    1    1    2  502    0  0.18256318237E+01  0.10080688151E+03 -0.86512495688E+02  0.13293555658E+03  0.47000000000E+01 0. -1.
         -5    1    1    2    0  502 -0.32160797911E+02 -0.92754015415E+02  0.73835770160E+01  0.98560801069E+02  0.47000000000E+01 0.  1.
        -11    1    3    3    0    0 -0.28921599361E+02  0.68436578390E+01  0.22259449264E+02  0.37131895235E+02  0.00000000000E+00 0. -1.
         11    1    3    3    0    0  0.59256765449E+02 -0.14896523939E+02 -0.26016464685E+01  0.61155860236E+02  0.00000000000E+00 0.  1.
<mgrwt>
<rscale>  0 0.17745247E+03</rscale>
<asrwt>0</asrwt>
<pdfrwt beam="2">  1        4 0.29942710E-01 0.21755270E+03</pdfrwt>
<pdfrwt beam="1">  1       -4 0.20793308E-01 0.21755270E+03</pdfrwt>
<totfact> 0.40444366E+02</totfact>
</mgrwt>
</event>
<event>
 7    1  0.1422977E-005  0.2111508E+03  0.7546771E-02  0.1144311E+00
         -2   -1    0    0    0  501 -0.00000000000E+00  0.00000000000E+00  0.60070869791E+03  0.60070869791E+03  0.00000000000E+00 0.  1.
          2   -1    0    0  501    0  0.00000000000E+00 -0.00000000000E+00 -0.74931386258E+02  0.74931386258E+02  0.00000000000E+00 0. -1.
         23    2    1    2    0    0  0.82177630822E+01  0.16997624114E+03  0.35419710215E+03  0.40356577489E+03  0.91925476940E+02 0.  0.
          5    1    1    2  502    0 -0.46668147205E+02 -0.26652841402E+02  0.83607316484E+02  0.99501574299E+02  0.47000000000E+01 0.  1.
         -5    1    1    2    0  502  0.38450384122E+02 -0.14332339974E+03  0.87972893024E+02  0.17257273498E+03  0.47000000000E+01 0.  1.
        -11    1    3    3    0    0  0.62532534863E+01  0.14220375395E+03  0.34662422132E+03  0.37471237186E+03  0.00000000000E+00 0.  1.
         11    1    3    3    0    0  0.19645095960E+01  0.27772487189E+02  0.75728808284E+01  0.28853403034E+02  0.00000000000E+00 0. -1.
<mgrwt>
<rscale>  0 0.20657019E+03</rscale>
<asrwt>0</asrwt>
<pdfrwt beam="2">  1        2 0.11527906E-01 0.21115080E+03</pdfrwt>
<pdfrwt beam="1">  1       -2 0.92416720E-01 0.21115080E+03</pdfrwt>
<totfact> 0.55029327E+02</totfact>
</mgrwt>
</event>
