<event>
 7    1  0.4687179E-006  0.1703419E+03  0.7561462E-02  0.1177492E+00
          1   -1    0    0  501    0  0.00000000000E+00  0.00000000000E+00  0.39158724917E+03  0.39158724917E+03  0.00000000000E+00 0. -1.
         -1   -1    0    0    0  501 -0.00000000000E+00 -0.00000000000E+00 -0.10231799113E+03  0.10231799113E+03  0.00000000000E+00 0.  1.
         23    2    1    2    0    0  0.11043170696E+03  0.12422927097E+03  0.10811413345E+03  0.21805670459E+03  0.90730297557E+02 0.  0.
          5    1    1    2  502    0 -0.27634236491E+02 -0.10708026751E+02  0.11801142874E+03  0.12174761836E+03  0.41800000000E+01 0.  1.
         -5    1    1    2    0  502 -0.82797470470E+02 -0.11352124422E+03  0.63143695842E+02  0.15410091735E+03  0.41800000000E+01 0.  1.
        -11    1    3    3    0    0  0.22769727918E+02  0.51393901794E+02 -0.62988410330E+01  0.56563849316E+02  0.00000000000E+00 0.  1.
         11    1    3    3    0    0  0.87661979043E+02  0.72835369175E+02  0.11441297449E+03  0.16149285527E+03  0.00000000000E+00 0. -1.
</event>
<event>
 7    1  0.4687179E-006  0.1100050E+03  0.7561462E-02  0.1260561E+00
          3   -1    0    0  501    0  0.00000000000E+00  0.00000000000E+00  0.61201265301E+02  0.61201265301E+02  0.00000000000E+00 0. -1.
         -3   -1    0    0    0  501 -0.00000000000E+00 -0.00000000000E+00 -0.27055479909E+03  0.27055479909E+03  0.00000000000E+00 0.  1.
         23    2    1    2    0    0 -0.54180129993E+02 -0.35622693744E+02 -0.12311126598E+03  0.16656164261E+03  0.91552903737E+02 0.  0.
          5    1    1    2  502    0  0.77269457270E+02  0.33296959261E+02 -0.93398746002E+01  0.84758257299E+02  0.41800000000E+01 0. -1.
         -5    1    1    2    0  502 -0.23089327276E+02  0.23257344828E+01 -0.76902393212E+02  0.80436164483E+02  0.41800000000E+01 0. -1.
        -11    1    3    3    0    0 -0.21835696582E+02  0.31122733689E+02 -0.41403847599E+02  0.56211215905E+02  0.00000000000E+00 0.  1.
         11    1    3    3    0    0 -0.32344433411E+02 -0.66745427433E+02 -0.81707418379E+02  0.11035042671E+03  0.00000000000E+00 0. -1.
</event>
<event>
 7    1  0.4687179E-006  0.1183943E+03  0.7561462E-02  0.1245770E+00
          1   -1    0    0  501    0  0.00000000000E+00  0.00000000000E+00  0.30808140305E+03  0.30808140305E+03  0.00000000000E+00 0. -1.
         -1   -1    0    0    0  501 -0.00000000000E+00 -0.00000000000E+00 -0.10759007785E+03  0.10759007785E+03  0.00000000000E+00 0.  1.
         23    2    1    2    0    0  0.11461937988E+03 -0.13168308771E+01  0.19733124444E+03  0.24597665024E+03  0.91790828213E+02 0.  0.
          5    1    1    2  502    0 -0.79799057570E+02  0.63400155134E+01  0.61777448448E+02  0.10120282072E+03  0.41800000000E+01 0. -1.
         -5    1    1    2    0  502 -0.34820322311E+02 -0.50231846363E+01 -0.58617367688E+02  0.68492009931E+02  0.41800000000E+01 0. -1.
        -11    1    3    3    0    0  0.45857041882E+02  0.18792355224E+02  0.17764950639E+02  0.52646124038E+02  0.00000000000E+00 0.  1.
         11    1    3    3    0    0  0.68762337998E+02 -0.20109186101E+02  0.17956629380E+03  0.19333052620E+03  0.00000000000E+00 0. -1.
</event>
<event>
 7    1  0.4687179E-006  0.9737870E+02  0.7561462E-02  0.1285907E+00
         -2   -1    0    0    0  501 -0.00000000000E+00  0.00000000000E+00  0.71221441296E+02  0.71221441296E+02  0.00000000000E+00 0.  1.
          2   -1    0    0  501    0  0.00000000000E+00 -0.00000000000E+00 -0.18352742511E+03  0.18352742511E+03  0.00000000000E+00 0. -1.
         23    2    1    2    0    0  0.16820689582E+02  0.28836471994E+02 -0.53998468790E+02  0.11091456038E+03  0.90949037142E+02 0.  0.
          5    1    1    2  502    0 -0.42334186547E+02  0.31444035463E+02 -0.57646728461E+02  0.78240196952E+02  0.41800000000E+01 0. -1.
         -5    1    1    2    0  502  0.25513496965E+02 -0.60280507457E+02 -0.66078656358E+00  0.65594109077E+02  0.41800000000E+01 0.  1.
        -11    1    3    3    0    0  0.34926737483E+02  0.41447943578E+02 -0.17859146304E+01  0.54230973706E+02  0.00000000000E+00 0.  1.
         11    1    3    3    0    0 -0.18106047901E+02 -0.12611471584E+02 -0.52212554159E+02  0.56683586671E+02  0.00000000000E+00 0. -1.
</event>
<event>
 7    1  0.4687179E-006  0.1985208E+03  0.7561462E-02  0.1150993E+00
         -2   -1    0    0    0  501 -0.00000000000E+00  0.00000000000E+00  0.21236430831E+03  0.21236430831E+03  0.00000000000E+00 0.  1.
          2   -1    0    0  501    0  0.00000000000E+00 -0.00000000000E+00 -0.21876086858E+03  0.21876086858E+03  0.00000000000E+00 0. -1.
         23    2    1    2    0    0 -0.17315508905E+03  0.61077727677E+02 -0.32080066179E+02  0.20747524765E+03  0.91124497586E+02 0.  0.
          5    1    1    2  502    0  0.25292521186E+02  0.21658427467E+02  0.41562334784E+02  0.53420026029E+02  0.41800000000E+01 0. -1.
         -5    1    1    2    0  502  0.14786256786E+03 -0.82736155144E+02 -0.15878828875E+02  0.17022990322E+03  0.41800000000E+01 0. -1.
        -11    1    3    3    0    0 -0.67958317804E+02 -0.75720034712E+01  0.20371873269E+02  0.71349011316E+02  0.00000000000E+00 0.  1.
         11    1    3    3    0    0 -0.10519677125E+03  0.68649731148E+02 -0.52451939448E+02  0.13612623634E+03  0.00000000000E+00 0. -1.
</event>
<event>
 7    1  0.4687179E-006  0.1100418E+03  0.7561462E-02  0.1260493E+00
         -1   -1    0    0    0  501 -0.00000000000E+00  0.00000000000E+00  0.44922300327E+02  0.44922300327E+02  0.00000000000E+00 0.  1.
          1   -1    0    0  501    0  0.00000000000E+00 -0.00000000000E+00 -0.38356710099E+03  0.38356710099E+03  0.00000000000E+00 0. -1.
         23    2    1    2    0    0 -0.56995386306E+02 -0.44149279550E+02 -0.18214655626E+03  0.21556582008E+03  0.89964559062E+02 0.  0.
          5    1    1    2  502    0  0.22698191296E+02  0.69793224202E+02 -0.15301299269E+03  0.16975497154E+03  0.41800000000E+01 0.  1.
         -5    1    1    2    0  502  0.34297195010E+02 -0.25643944652E+02 -0.34852517181E+01  0.43168609688E+02  0.41800000000E+01 0.  1.
        -11    1    3    3    0    0 -0.34877752031E+01  0.19833404233E+02 -0.65659031243E+01  0.21181113832E+02  0.00000000000E+00 0.  1.
         11    1    3    3    0    0 -0.53507611103E+02 -0.63982683783E+02 -0.17558065313E+03  0.19438470625E+03  0.00000000000E+00 0. -1.
</event>
<event>
 7    1  0.4687179E-006  0.1034675E+03  0.7561462E-02  0.1273169E+00
          3   -1    0    0  501    0  0.00000000000E+00  0.00000000000E+00  0.80549653934E+03  0.80549653934E+03  0.00000000000E+00 0. -1.
         -3   -1    0    0    0  501 -0.00000000000E+00 -0.00000000000E+00 -0.16215094717E+02  0.16215094717E+02  0.00000000000E+00 0.  1.
         23    2    1    2    0    0  0.27454533583E+02 -0.15132678349E+02  0.39913533318E+03  0.41080640248E+03  0.92033345875E+02 0.  0.
          5    1    1    2  502    0  0.31155664458E+02  0.43648620941E+02  0.10053031460E+03  0.11401620101E+03  0.41800000000E+01 0. -1.
         -5    1    1    2    0  502 -0.58610198041E+02 -0.28515942592E+02  0.28961579683E+03  0.29688903057E+03  0.41800000000E+01 0. -1.
        -11    1    3    3    0    0  0.56708714626E+02 -0.52390199978E+01  0.33276559960E+03  0.33760371728E+03  0.00000000000E+00 0. -1.
         11    1    3    3    0    0 -0.29254181043E+02 -0.98936583511E+01  0.66369733586E+02  0.73202685199E+02  0.00000000000E+00 0.  1.
</event>
<event>
 7    1  0.4687179E-006  0.1447518E+03  0.7561462E-02  0.1207074E+00
          2   -1    0    0  501    0  0.00000000000E+00  0.00000000000E+00  0.50957007825E+03  0.50957007825E+03  0.00000000000E+00 0. -1.
         -2   -1    0    0    0  501 -0.00000000000E+00 -0.00000000000E+00 -0.56748224076E+02  0.56748224076E+02  0.00000000000E+00 0.  1.
         23    2    1    2    0    0 -0.26076143951E+02 -0.13547448940E+03  0.22611037137E+03  0.27293022582E+03  0.65815693885E+02 0.  0.
          5    1    1    2  502    0 -0.19070357432E+01  0.12563806857E+02  0.13928247260E+03  0.13992342763E+03  0.41800000000E+01 0.  1.
         -5    1    1    2    0  502  0.27983179695E+02  0.12291068254E+03  0.87429010199E+02  0.15346464887E+03  0.41800000000E+01 0.  1.
        -11    1    3    3    0    0  0.51345890333E+01 -0.10886620952E+03  0.13887555261E+03  0.17653508063E+03  0.00000000000E+00 0.  1.
         11    1    3    3    0    0 -0.31210732985E+02 -0.26608279877E+02  0.87234818762E+02  0.96395145188E+02  0.00000000000E+00 0. -1.
</event>
<event>
 7    1  0.4687179E-006  0.1065964E+03  0.7561462E-02  0.1267006E+00
         -2   -1    0    0    0  501 -0.00000000000E+00  0.00000000000E+00  0.13775869392E+04  0.13775869392E+04  0.00000000000E+00 0.  1.
          2   -1    0    0  501    0  0.00000000000E+00 -0.00000000000E+00 -0.15030130834E+02  0.15030130834E+02  0.00000000000E+00 0. -1.
         23    2    1    2    0    0  0.25330007907E+02 -0.73090729718E+01  0.80533097704E+02  0.10128780453E+03  0.55485202292E+02 0.  0.
          5    1    1    2  502    0 -0.80431872358E+02  0.39955630303E+02  0.80570375469E+03  0.81070447835E+03  0.41800000000E+01 0. -1.
         -5    1    1    2    0  502  0.55101864451E+02 -0.32646557331E+02  0.47631995597E+03  0.48062478716E+03  0.41800000000E+01 0.  1.
        -11    1    3    3    0    0  0.34619856605E+02  0.12832854220E+02  0.36158876103E+02  0.51678631366E+02  0.00000000000E+00 0. -1.
         11    1    3    3    0    0 -0.92898486983E+01 -0.20141927191E+02  0.44374221601E+02  0.49609173169E+02  0.00000000000E+00 0.  1.
</event>
<event>
 7    1  0.4687179E-006  0.2022807E+03  0.7561462E-02  0.1147829E+00
          2   -1    0    0  501    0  0.00000000000E+00  0.00000000000E+00  0.92448534886E+03  0.92448534886E+03  0.00000000000E+00 0. -1.
         -2   -1    0    0    0  501 -0.00000000000E+00 -0.00000000000E+00 -0.48527433036E+02  0.48527433036E+02  0.00000000000E+00 0.  1.
         23    2    1    2    0    0  0.13919203416E+02  0.17922671182E+03  0.36336291954E+03  0.41559234988E+03  0.91479131665E+02 0.  0.
          5    1    1    2  502    0 -0.57690396616E+02 -0.12359709518E+03  0.41446521215E+03  0.43635227544E+03  0.41800000000E+01 0. -1.
         -5    1    1    2    0  502  0.43771193199E+02 -0.55629616646E+02  0.98129784132E+02  0.12106815657E+03  0.41800000000E+01 0. -1.
        -11    1    3    3    0    0 -0.25251372981E+02  0.13812055025E+03  0.21554642802E+03  0.25724537094E+03  0.00000000000E+00 0.  1.
         11    1    3    3    0    0  0.39170576397E+02  0.41106161572E+02  0.14781649152E+03  0.15834697894E+03  0.00000000000E+00 0. -1.
</event>
<event>
 7    1  0.4687179E-006  0.2216295E+03  0.7561462E-02  0.1132674E+00
          2   -1    0    0  501    0  0.00000000000E+00  0.00000000000E+00  0.33548755469E+03  0.33548755469E+03  0.00000000000E+00 0. -1.
         -2   -1    0    0    0  501 -0.00000000000E+00 -0.00000000000E+00 -0.16798554531E+03  0.16798554531E+03  0.00000000000E+00 0.  1.
         23    2    1    2    0    0 -0.18546941649E+03  0.57989926954E+02  0.16430710405E+03  0.27234418747E+03  0.97019564662E+02 0.  0.
          5    1    1    2  502    0  0.11819167376E+03  0.24035700492E+02  0.23723434142E+02  0.12299292814E+03  0.41800000000E+01 0.  1.
         -5    1    1    2    0  502  0.67277742727E+02 -0.82025627446E+02 -0.20528528815E+02  0.10813598439E+03  0.41800000000E+01 0.  1.
        -11    1    3    3    0    0 -0.97628299490E+02  0.79576944135E+02  0.10698426879E+03  0.16525558589E+03  0.00000000000E+00 0.  1.
         11    1    3    3    0    0 -0.87841117000E+02 -0.21587017181E+02  0.57322835253E+02  0.10708860158E+03  0.00000000000E+00 0. -1.
</event>
<event>
 7    1  0.4687179E-006  0.1001782E+03  0.7561462E-02  0.1279922E+00
          1   -1    0    0  501    0  0.00000000000E+00  0.00000000000E+00  0.53596923135E+03  0.53596923135E+03  0.00000000000E+00 0. -1.
         -1   -1    0    0    0  501 -0.00000000000E+00 -0.00000000000E+00 -0.30163673946E+02  0.30163673946E+02  0.00000000000E+00 0.  1.
         23    2    1    2    0    0  0.22099176542E+02  0.28567073565E+02  0.34811731645E+03  0.36163903402E+03  0.91064118181E+02 0.  0.
          5    1    1    2  502    0  0.37800343274E+02 -0.15806717003E+02  0.13142243975E+03  0.13772453784E+03  0.41800000000E+01 0. -1.
         -5    1    1    2    0  502 -0.59899519817E+02 -0.12760356562E+02  0.26265801203E+02  0.66769333430E+02  0.41800000000E+01 0. -1.
        -11    1    3    3    0    0 -0.30261353719E+02  0.33558435856E+02  0.17182412789E+03  0.17766667968E+03  0.00000000000E+00 0.  1.
         11    1    3    3    0    0  0.52360530261E+02 -0.49913622907E+01  0.17629318857E+03  0.18397235434E+03  0.00000000000E+00 0. -1.
</event>
<event>
 7    1  0.4687179E-006  0.2425493E+03  0.7561462E-02  0.1118106E+00
         -2   -1    0    0    0  501 -0.00000000000E+00  0.00000000000E+00  0.20296026239E+03  0.20296026239E+03  0.00000000000E+00 0.  1.
          2   -1    0    0  501    0  0.00000000000E+00 -0.00000000000E+00 -0.32435571111E+03  0.32435571111E+03  0.00000000000E+00 0. -1.
         23    2    1    2    0    0 -0.12138889850E+03  0.18622937520E+03 -0.12406818136E+03  0.27221984432E+03  0.96405835641E+02 0.  0.
          5    1    1    2  502    0  0.93424789247E+02 -0.20207681862E+03  0.20107901887E+01  0.22267632911E+03  0.41800000000E+01 0.  1.
         -5    1    1    2    0  502  0.27964109255E+02  0.15847443415E+02  0.66194246207E+00  0.32419800077E+02  0.41800000000E+01 0.  1.
        -11    1    3    3    0    0 -0.34870901204E+02  0.10759592923E+03 -0.10389253715E+03  0.15357904483E+03  0.00000000000E+00 0.  1.
         11    1    3    3    0    0 -0.86517997297E+02  0.78633445976E+02 -0.20175644213E+02  0.11864079948E+03  0.00000000000E+00 0. -1.
</event>
<event>
 7    1  0.4687179E-006  0.8239179E+02  0.7561462E-02  0.1322398E+00
          1   -1    0    0  501    0  0.00000000000E+00  0.00000000000E+00  0.48176624183E+03  0.48176624183E+03  0.00000000000E+00 0. -1.
         -1   -1    0    0    0  501 -0.00000000000E+00 -0.00000000000E+00 -0.26350518183E+02  0.26350518183E+02  0.00000000000E+00 0.  1.
         23    2    1    2    0    0 -0.25309914100E+02 -0.11141046423E+02  0.22341391770E+03  0.24309542055E+03  0.91743611241E+02 0.  0.
          5    1    1    2  502    0  0.41570342776E+02 -0.14859690686E+02  0.22974903247E+03  0.23398930344E+03  0.41800000000E+01 0.  1.
         -5    1    1    2    0  502 -0.16260428676E+02  0.26000737109E+02  0.22527734741E+01  0.31032036016E+02  0.41800000000E+01 0.  1.
        -11    1    3    3    0    0  0.30180337236E+02 -0.15312682441E+02  0.45658499469E+02  0.56833349128E+02  0.00000000000E+00 0.  1.
         11    1    3    3    0    0 -0.55490251337E+02  0.41716360177E+01  0.17775541823E+03  0.18626207143E+03  0.00000000000E+00 0. -1.
</event>
<event>
 7    1  0.4687179E-006  0.8293957E+02  0.7561462E-02  0.1320910E+00
          1   -1    0    0  501    0  0.00000000000E+00  0.00000000000E+00  0.16885918047E+03  0.16885918047E+03  0.00000000000E+00 0. -1.
         -1   -1    0    0    0  501 -0.00000000000E+00 -0.00000000000E+00 -0.69430357013E+02  0.69430357013E+02  0.00000000000E+00 0.  1.
         23    2    1    2    0    0 -0.14563368185E+02  0.16132631267E+02  0.25892806620E+02  0.91567356593E+02  0.85098706654E+02 0.  0.
          5    1    1    2  502    0  0.44524927993E+02  0.41976225525E+02  0.38711846174E+02  0.72529663975E+02  0.41800000000E+01 0.  1.
         -5    1    1    2    0  502 -0.29961559808E+02 -0.58108856792E+02  0.34824170662E+02  0.74192516914E+02  0.41800000000E+01 0.  1.
        -11    1    3    3    0    0  0.10128661320E+02  0.12583803620E+01 -0.28355203913E+02  0.30136205637E+02  0.00000000000E+00 0.  1.
         11    1    3    3    0    0 -0.24692029505E+02  0.14874250905E+02  0.54248010532E+02  0.61431150956E+02  0.00000000000E+00 0. -1.
</event>
<event>
 7    1  0.4687179E-006  0.2018652E+03  0.7561462E-02  0.1148175E+00
          1   -1    0    0  501    0  0.00000000000E+00  0.00000000000E+00  0.10978923985E+04  0.10978923985E+04  0.00000000000E+00 0. -1.
         -1   -1    0    0    0  501 -0.00000000000E+00 -0.00000000000E+00 -0.45065072302E+02  0.45065072302E+02  0.00000000000E+00 0.  1.
         23    2    1    2    0    0 -0.81075724174E+01  0.18915434865E+03  0.61367591294E+03  0.64864266693E+03  0.91071855688E+02 0.  0.
          5    1    1    2  502    0 -0.27388122167E+02 -0.12387720008E+03  0.15379906298E+03  0.19941738668E+03  0.41800000000E+01 0. -1.
         -5    1    1    2    0  502  0.35495694584E+02 -0.65277148570E+02  0.28535235031E+03  0.29489741723E+03  0.41800000000E+01 0. -1.
        -11    1    3    3    0    0 -0.21873754141E+02  0.18719261000E+03  0.60088992399E+03  0.62975251894E+03  0.00000000000E+00 0.  1.
         11    1    3    3    0    0  0.13766181724E+02  0.19617386501E+01  0.12785988955E+02  0.18890147997E+02  0.00000000000E+00 0. -1.
</event>
<event>
 7    1  0.4687179E-006  0.1042391E+03  0.7561462E-02  0.1271626E+00
          1   -1    0    0  501    0  0.00000000000E+00  0.00000000000E+00  0.17255398994E+02  0.17255398994E+02  0.00000000000E+00 0. -1.
         -1   -1    0    0    0  501 -0.00000000000E+00 -0.00000000000E+00 -0.11691566239E+04  0.11691566239E+04  0.00000000000E+00 0.  1.
         23    2    1    2    0    0  0.74403124391E+02 -0.27416320688E+02 -0.32316925935E+03  0.34454985216E+03  0.89379812436E+02 0.  0.
          5    1    1    2  502    0 -0.35182121566E+02  0.36125892436E+02 -0.10058035514E+03  0.11259103882E+03  0.41800000000E+01 0. -1.
         -5    1    1    2    0  502 -0.39221002825E+02 -0.87095717484E+01 -0.72815161043E+03  0.72927113193E+03  0.41800000000E+01 0. -1.
        -11    1    3    3    0    0  0.95314067111E+01  0.29613551718E+02 -0.11590956425E+03  0.12001182127E+03  0.00000000000E+00 0.  1.
         11    1    3    3    0    0  0.64871717679E+02 -0.57029872406E+02 -0.20725969510E+03  0.22453803088E+03  0.00000000000E+00 0. -1.
</event>
<event>
 7    1  0.4687179E-006  0.1137395E+03  0.7561462E-02  0.1253797E+00
         -1   -1    0    0    0  501 -0.00000000000E+00  0.00000000000E+00  0.45570128046E+02  0.45570128046E+02  0.00000000000E+00 0.  1.
          1   -1    0    0  501    0  0.00000000000E+00 -0.00000000000E+00 -0.42444346116E+03  0.42444346116E+03  0.00000000000E+00 0. -1.
         23    2    1    2    0    0 -0.75213193386E+02  0.40915734187E+02 -0.18405524135E+03  0.22316924810E+03  0.92720330386E+02 0.  0.
          5    1    1    2  502    0  0.39709675042E+02 -0.51661983744E+02 -0.20297288128E+02  0.68375954558E+02  0.41800000000E+01 0.  1.
         -5    1    1    2    0  502  0.35503518344E+02  0.10746249558E+02 -0.17452080364E+03  0.17846838655E+03  0.41800000000E+01 0.  1.
        -11    1    3    3    0    0 -0.62173704996E+02 -0.17830709516E+02 -0.79005495047E+02  0.10210471117E+03  0.00000000000E+00 0. -1.
         11    1    3    3    0    0 -0.13039488390E+02  0.58746443703E+02 -0.10504974630E+03  0.12106453693E+03  0.00000000000E+00 0.  1.
</event>
<event>
 7    1  0.4687179E-006  0.1059956E+03  0.7561462E-02  0.1268170E+00
         -1   -1    0    0    0  501 -0.00000000000E+00  0.00000000000E+00  0.52701518298E+02  0.52701518298E+02  0.00000000000E+00 0.  1.
          1   -1    0    0  501    0  0.00000000000E+00 -0.00000000000E+00 -0.29561702505E+03  0.29561702505E+03  0.00000000000E+00 0. -1.
         23    2    1    2    0    0 -0.40533060780E+02 -0.27532889813E+02 -0.15405575199E+03  0.18724438853E+03  0.94479083807E+02 0.  0.
          5    1    1    2  502    0  0.33903235975E+02 -0.36260941929E+02  0.19085745617E+01  0.49853789987E+02  0.41800000000E+01 0. -1.
         -5    1    1    2    0  502  0.66298248043E+01  0.63793831742E+02 -0.90768329323E+02  0.11122036483E+03  0.41800000000E+01 0. -1.
        -11    1    3    3    0    0  0.23870855472E+02  0.69288424881E+01 -0.77690109024E+02  0.81569477376E+02  0.00000000000E+00 0.  1.
         11    1    3    3    0    0 -0.64403916252E+02 -0.34461732301E+02 -0.76365642967E+02  0.10567491115E+03  0.00000000000E+00 0. -1.
</event>
<event>
 7    1  0.4687179E-006  0.1185320E+03  0.7561462E-02  0.1245539E+00
          2   -1    0    0  501    0  0.00000000000E+00  0.00000000000E+00  0.31471270216E+03  0.31471270216E+03  0.00000000000E+00 0. -1.
         -2   -1    0    0    0  501 -0.00000000000E+00 -0.00000000000E+00 -0.51988309862E+02  0.51988309862E+02  0.00000000000E+00 0.  1.
         23    2    1    2    0    0 -0.20755021104E+01  0.65117544374E+02  0.14377297622E+03  0.18219774851E+03  0.90998618545E+02 0.  0.
          5    1    1    2  502    0  0.12869360019E+02 -0.95257750045E+02  0.50142331448E+02  0.10849601455E+03  0.41800000000E+01 0.  1.
         -5    1    1    2    0  502 -0.10793857908E+02  0.30140205672E+02  0.68809084631E+02  0.76007248959E+02  0.41800000000E+01 0.  1.
        -11    1    3    3    0    0  0.42156446185E+02  0.26101066423E+02  0.88085036216E+02  0.10108118138E+03  0.00000000000E+00 0.  1.
         11    1    3    3    0    0 -0.44231948296E+02  0.39016477951E+02  0.55687940002E+02  0.81116567133E+02  0.00000000000E+00 0. -1.
</event>
<event>
 7    1  0.4687179E-006  0.1025764E+03  0.7561462E-02  0.1274970E+00
          1   -1    0    0  501    0  0.00000000000E+00  0.00000000000E+00  0.47314293257E+03  0.47314293257E+03  0.00000000000E+00 0. -1.
         -1   -1    0    0    0  501 -0.00000000000E+00 -0.00000000000E+00 -0.39750968635E+02  0.39750968635E+02  0.00000000000E+00 0.  1.
         23    2    1    2    0    0  0.79638735232E+02  0.11003502114E+02  0.24181679021E+03  0.27038050562E+03  0.90370640060E+02 0.  0.
          5    1    1    2  502    0 -0.98443870060E+02 -0.15545096792E+01  0.74627622467E+02  0.12361377952E+03  0.41800000000E+01 0. -1.
         -5    1    1    2    0  502  0.18805134827E+02 -0.94489924350E+01  0.11694755126E+03  0.11889961606E+03  0.41800000000E+01 0. -1.
        -11    1    3    3    0    0  0.77253987796E+01  0.10749384258E+02 -0.43426122283E+01  0.13931594639E+02  0.00000000000E+00 0.  1.
         11    1    3    3    0    0  0.71913336453E+02  0.25411785631E+00  0.24615940244E+03  0.25644891098E+03  0.00000000000E+00 0. -1.
</event>
<event>
 7    1  0.4687179E-006  0.1258558E+03  0.7561462E-02  0.1233738E+00
         -1   -1    0    0    0  501 -0.00000000000E+00  0.00000000000E+00  0.20472629259E+03  0.20472629259E+03  0.00000000000E+00 0.  1.
          1   -1    0    0  501    0  0.00000000000E+00 -0.00000000000E+00 -0.87792460016E+02  0.87792460016E+02  0.00000000000E+00 0. -1.
         23    2    1    2    0    0 -0.55285437380E+02  0.53596646562E+02  0.29234030805E+02  0.12144084141E+03  0.89242194600E+02 0.  0.
          5    1    1    2  502    0 -0.46246453091E+01  0.36000559983E+02  0.92077109701E+01  0.37678667767E+02  0.41800000000E+01 0. -1.
         -5    1    1    2    0  502  0.59910082689E+02 -0.89597206545E+02  0.78492090796E+02  0.13339924342E+03  0.41800000000E+01 0. -1.
        -11    1    3    3    0    0  0.17018934382E+02  0.23451123949E+02 -0.13764465256E+02  0.32078962667E+02  0.00000000000E+00 0. -1.
         11    1    3    3    0    0 -0.72304371762E+02  0.30145522613E+02  0.42998496061E+02  0.89361878746E+02  0.00000000000E+00 0.  1.
</event>
<event>
 7    1  0.4687179E-006  0.9947414E+02  0.7561462E-02  0.1281406E+00
         -1   -1    0    0    0  501 -0.00000000000E+00  0.00000000000E+00  0.18733843362E+03  0.18733843362E+03  0.00000000000E+00 0.  1.
          1   -1    0    0  501    0  0.00000000000E+00 -0.00000000000E+00 -0.64959877033E+02  0.64959877033E+02  0.00000000000E+00 0. -1.
         23    2    1    2    0    0  0.18918314627E+02 -0.11101260542E+02  0.57323257934E+02  0.10960609861E+03  0.90809692978E+02 0.  0.
          5    1    1    2  502    0  0.37012664081E+02 -0.21844601863E+02 -0.90175306160E+01  0.44112494731E+02  0.41800000000E+01 0. -1.
         -5    1    1    2    0  502 -0.55930978709E+02  0.32945862405E+02  0.74072829265E+02  0.98579717307E+02  0.41800000000E+01 0. -1.
        -11    1    3    3    0    0  0.53843286996E+02  0.72107947365E+00  0.20853324137E+02  0.57744962011E+02  0.00000000000E+00 0. -1.
         11    1    3    3    0    0 -0.34924972368E+02 -0.11822340016E+02  0.36469933797E+02  0.51861136601E+02  0.00000000000E+00 0.  1.
</event>
<event>
 7    1  0.4687179E-006  0.1351814E+03  0.7561462E-02  0.1219964E+00
         -1   -1    0    0    0  501 -0.00000000000E+00  0.00000000000E+00  0.25605529990E+03  0.25605529990E+03  0.00000000000E+00 0.  1.
          1   -1    0    0  501    0  0.00000000000E+00 -0.00000000000E+00 -0.10829099662E+03  0.10829099662E+03  0.00000000000E+00 0. -1.
         23    2    1    2    0    0  0.28013134128E+02 -0.12039301121E+03  0.44425529374E+02  0.16038300462E+03  0.92031884028E+02 0.  0.
          5    1    1    2  502    0 -0.46600838780E+02  0.61270679582E+02  0.11723537093E+03  0.14031157810E+03  0.41800000000E+01 0.  1.
         -5    1    1    2    0  502  0.18587704652E+02  0.59122331629E+02 -0.13896597028E+02  0.63651713806E+02  0.41800000000E+01 0.  1.
        -11    1    3    3    0    0 -0.11891271517E+02 -0.33155393045E+02 -0.23935783126E+02  0.42586431408E+02  0.00000000000E+00 0. -1.
         11    1    3    3    0    0  0.39904405645E+02 -0.87237618166E+02  0.68361312499E+02  0.11779657321E+03  0.00000000000E+00 0.  1.
</event>
<event>
 7    1  0.4687179E-006  0.9499697E+02  0.7561462E-02  0.1291183E+00
          2   -1    0    0  501    0  0.00000000000E+00  0.00000000000E+00  0.13438045745E+03  0.13438045745E+03  0.00000000000E+00 0. -1.
         -2   -1    0    0    0  501 -0.00000000000E+00 -0.00000000000E+00 -0.95910331889E+02  0.95910331889E+02  0.00000000000E+00 0.  1.
         23    2    1    2    0    0  0.12790304368E+02  0.27647445651E+02  0.29852303116E+02  0.10125770853E+03  0.91836759521E+02 0.  0.
          5    1    1    2  502    0 -0.28543193512E+02 -0.59899111177E+02  0.42980801108E+02  0.79167159098E+02  0.41800000000E+01 0. -1.
         -5    1    1    2    0  502  0.15752889144E+02  0.32251665526E+02 -0.34362978660E+02  0.49865921710E+02  0.41800000000E+01 0. -1.
        -11    1    3    3    0    0  0.42773478541E+02  0.36372638344E+02 -0.26178943642E+01  0.56208474962E+02  0.00000000000E+00 0.  1.
         11    1    3    3    0    0 -0.29983174173E+02 -0.87251926936E+01  0.32470197480E+02  0.45049233572E+02  0.00000000000E+00 0. -1.
</event>
<event>
 7    1  0.4687179E-006  0.1299623E+03  0.7561462E-02  0.1227512E+00
          3   -1    0    0  501    0  0.00000000000E+00  0.00000000000E+00  0.36934270597E+02  0.36934270597E+02  0.00000000000E+00 0. -1.
         -3   -1    0    0    0  501 -0.00000000000E+00 -0.00000000000E+00 -0.50228146605E+03  0.50228146605E+03  0.00000000000E+00 0.  1.
         23    2    1    2    0    0 -0.18288707242E+02 -0.75465080684E+02 -0.16001690426E+03  0.20024174803E+03  0.91988547069E+02 0.  0.
          5    1    1    2  502    0  0.63749320529E+02  0.66717884155E+01 -0.12081723695E+03  0.13683115790E+03  0.41800000000E+01 0.  1.
         -5    1    1    2    0  502 -0.45460613287E+02  0.68793292269E+02 -0.18451305425E+03  0.20214283071E+03  0.41800000000E+01 0.  1.
        -11    1    3    3    0    0  0.31865791817E+02 -0.42461635292E+02 -0.10983587083E+03  0.12199318703E+03  0.00000000000E+00 0.  1.
         11    1    3    3    0    0 -0.50154499059E+02 -0.33003445392E+02 -0.50181033424E+02  0.78248561003E+02  0.00000000000E+00 0. -1.
</event>
<event>
 7    1  0.4687179E-006  0.1391138E+03  0.7561462E-02  0.1214526E+00
          1   -1    0    0  501    0  0.00000000000E+00  0.00000000000E+00  0.24575778308E+03  0.24575778308E+03  0.00000000000E+00 0. -1.
         -1   -1    0    0    0  501 -0.00000000000E+00 -0.00000000000E+00 -0.79531092810E+02  0.79531092810E+02  0.00000000000E+00 0.  1.
         23    2    1    2    0    0 -0.56890318687E+02  0.68193109278E+02  0.80722967240E+02  0.14965842783E+03  0.89412745547E+02 0.  0.
          5    1    1    2  502    0  0.74071015319E+01 -0.95269288739E+02  0.42948626447E+02  0.10484826867E+03  0.41800000000E+01 0.  1.
         -5    1    1    2    0  502  0.49483217155E+02  0.27076179461E+02  0.42555096588E+02  0.70782179394E+02  0.41800000000E+01 0.  1.
        -11    1    3    3    0    0 -0.35633197284E+02 -0.16088707757E+02  0.25560861700E+02  0.46711121982E+02  0.00000000000E+00 0. -1.
         11    1    3    3    0    0 -0.21257121403E+02  0.84281817036E+02  0.55162105540E+02  0.10294730585E+03  0.00000000000E+00 0.  1.
</event>
<event>
 7    1  0.4687179E-006  0.9472385E+02  0.7561462E-02  0.1291799E+00
         -3   -1    0    0    0  501 -0.00000000000E+00  0.00000000000E+00  0.22700824100E+03  0.22700824100E+03  0.00000000000E+00 0.  1.
          3   -1    0    0  501    0  0.00000000000E+00 -0.00000000000E+00 -0.80422820118E+02  0.80422820118E+02  0.00000000000E+00 0. -1.
         23    2    1    2    0    0 -0.24312434939E+02  0.12908390795E+00 -0.21758035371E+02  0.96295282963E+02  0.90599438533E+02 0.  0.
          5    1    1    2  502    0 -0.36694784783E+02  0.39647852858E+02  0.64665880325E+02  0.84365916962E+02  0.41800000000E+01 0.  1.
         -5    1    1    2    0  502  0.61007219722E+02 -0.39776936766E+02  0.10367757593E+03  0.12676986120E+03  0.41800000000E+01 0.  1.
        -11    1    3    3    0    0 -0.91931470444E+01 -0.28495777395E+02  0.25284957894E+02  0.39189952509E+02  0.00000000000E+00 0.  1.
         11    1    3    3    0    0 -0.15119287895E+02  0.28624861303E+02 -0.47042993264E+02  0.57105330455E+02  0.00000000000E+00 0. -1.
</event>
<event>
 7    1  0.4687179E-006  0.8386744E+02  0.7561462E-02  0.1318421E+00
          2   -1    0    0  501    0  0.00000000000E+00  0.00000000000E+00  0.55226006735E+03  0.55226006735E+03  0.00000000000E+00 0.  1.
         -2   -1    0    0    0  501 -0.00000000000E+00 -0.00000000000E+00 -0.30798450874E+02  0.30798450874E+02  0.00000000000E+00 0. -1.
         23    2    1    2    0    0 -0.29994650534E+02 -0.41115531686E+02  0.34854589094E+03  0.36365533582E+03  0.90392472980E+02 0.  0.
          5    1    1    2  502    0  0.78887974620E+00  0.50731690635E+02  0.79287934906E+01  0.51523440608E+02  0.41800000000E+01 0. -1.
         -5    1    1    2    0  502  0.29205770788E+02 -0.96161589485E+01  0.16498693204E+03  0.16787974180E+03  0.41800000000E+01 0. -1.
        -11    1    3    3    0    0  0.62123540629E+00  0.18640953600E+02  0.16541786147E+02  0.24929937294E+02  0.00000000000E+00 0. -1.
         11    1    3    3    0    0 -0.30615885940E+02 -0.59756485287E+02  0.33200410480E+03  0.33872539853E+03  0.00000000000E+00 0.  1.
</event>
<event>
 7    1  0.4687179E-006  0.1083388E+03  0.7561462E-02  0.1263677E+00
         -1   -1    0    0    0  501 -0.00000000000E+00  0.00000000000E+00  0.94231312426E+03  0.94231312426E+03  0.00000000000E+00 0.  1.
          1   -1    0    0  501    0  0.00000000000E+00 -0.00000000000E+00 -0.30656823575E+02  0.30656823575E+02  0.00000000000E+00 0. -1.
         23    2    1    2    0    0  0.53867624709E+02 -0.56270654172E+02  0.18122161386E+03  0.21901954094E+03  0.95184969760E+02 0.  0.
          5    1    1    2  502    0 -0.43175902404E+02  0.77681038965E+01  0.33806604785E+02  0.55541524229E+02  0.41800000000E+01 0. -1.
         -5    1    1    2    0  502 -0.10691722304E+02  0.48502550276E+02  0.69662808204E+03  0.69840888267E+03  0.41800000000E+01 0.  1.
        -11    1    3    3    0    0 -0.97151035036E+01  0.20738614562E+02  0.39237515688E+02  0.45431883160E+02  0.00000000000E+00 0. -1.
         11    1    3    3    0    0  0.63582728212E+02 -0.77009268735E+02  0.14198409817E+03  0.17358765778E+03  0.00000000000E+00 0.  1.
</event>
<event>
 7    1  0.4687179E-006  0.1065025E+03  0.7561462E-02  0.1267187E+00
          2   -1    0    0  501    0  0.00000000000E+00  0.00000000000E+00  0.48940773676E+02  0.48940773676E+02  0.00000000000E+00 0. -1.
         -2   -1    0    0    0  501 -0.00000000000E+00 -0.00000000000E+00 -0.38762042857E+03  0.38762042857E+03  0.00000000000E+00 0.  1.
         23    2    1    2    0    0  0.42677076705E+02 -0.48067370974E+02 -0.67658820906E+02  0.13122240434E+03  0.92248568150E+02 0.  0.
          5    1    1    2  502    0 -0.67742780009E+02  0.36317719552E+02 -0.75497318189E+02  0.10782104827E+03  0.41800000000E+01 0. -1.
         -5    1    1    2    0  502  0.25065703304E+02  0.11749651423E+02 -0.19552351580E+03  0.19751774964E+03  0.41800000000E+01 0. -1.
        -11    1    3    3    0    0  0.69157047987E+02 -0.27188105149E+02 -0.28605942097E+02  0.79625311749E+02  0.00000000000E+00 0.  1.
         11    1    3    3    0    0 -0.26479971282E+02 -0.20879265825E+02 -0.39052878809E+02  0.51597092590E+02  0.00000000000E+00 0. -1.
</event>
<event>
 7    1  0.4687179E-006  0.9952588E+02  0.7561462E-02  0.1281296E+00
          1   -1    0    0  501    0  0.00000000000E+00  0.00000000000E+00  0.28598603518E+03  0.28598603518E+03  0.00000000000E+00 0. -1.
         -1   -1    0    0    0  501 -0.00000000000E+00 -0.00000000000E+00 -0.81739423052E+02  0.81739423052E+02  0.00000000000E+00 0.  1.
         23    2    1    2    0    0 -0.23228326935E+02  0.11864957945E+02  0.22131501006E+03  0.24109029984E+03  0.91999274997E+02 0.  0.
          5    1    1    2  502    0 -0.43112456814E+02 -0.20717547613E+02 -0.32300282767E+02  0.57867792238E+02  0.41800000000E+01 0. -1.
         -5    1    1    2    0  502  0.66340783749E+02  0.88525896686E+01  0.15231884836E+02  0.68767366155E+02  0.41800000000E+01 0.  1.
        -11    1    3    3    0    0 -0.49119692279E+02 -0.99553576157E+01  0.70364019378E+02  0.86388358810E+02  0.00000000000E+00 0.  1.
         11    1    3    3    0    0  0.25891365344E+02  0.21820315561E+02  0.15095099069E+03  0.15470194103E+03  0.00000000000E+00 0. -1.
</event>
<event>
 7    1  0.4687179E-006  0.1320806E+03  0.7561462E-02  0.1224401E+00
          1   -1    0    0  501    0  0.00000000000E+00  0.00000000000E+00  0.78167967738E+02  0.78167967738E+02  0.00000000000E+00 0. -1.
         -1   -1    0    0    0  501 -0.00000000000E+00 -0.00000000000E+00 -0.41030105433E+03  0.41030105433E+03  0.00000000000E+00 0.  1.
         23    2    1    2    0    0  0.45917464048E+02 -0.11412109057E+03 -0.56812664730E+02  0.16199810830E+03  0.88790041111E+02 0.  0.
          5    1    1    2  502    0 -0.15948499383E+02  0.58711777715E+02 -0.21102192101E+02  0.64530631381E+02  0.41800000000E+01 0. -1.
         -5    1    1    2    0  502 -0.29968964665E+02  0.55409312859E+02 -0.25421822976E+03  0.26194028239E+03  0.41800000000E+01 0. -1.
        -11    1    3    3    0    0  0.18325282348E+02  0.39894833508E+01 -0.33638496618E+02  0.38513379561E+02  0.00000000000E+00 0. -1.
         11    1    3    3    0    0  0.27592181699E+02 -0.11811057392E+03 -0.23174168112E+02  0.12348472874E+03  0.00000000000E+00 0.  1.
</event>
<event>
 7    1  0.4687179E-006  0.1776217E+03  0.7561462E-02  0.1170125E+00
          2   -1    0    0  501    0  0.00000000000E+00  0.00000000000E+00  0.13629773320E+03  0.13629773320E+03  0.00000000000E+00 0. -1.
         -2   -1    0    0    0  501 -0.00000000000E+00 -0.00000000000E+00 -0.23943096570E+03  0.23943096570E+03  0.00000000000E+00 0.  1.
         23    2    1    2    0    0 -0.13899341959E+03 -0.31290608477E+02 -0.33002476702E+02  0.17357857502E+03  0.93499119611E+02 0.  0.
          5    1    1    2  502    0 -0.11682491487E+02  0.31780519491E+02  0.36787370045E+01  0.34314538208E+02  0.41800000000E+01 0. -1.
         -5    1    1    2    0  502  0.15067591108E+03 -0.48991101417E+00 -0.73809492799E+02  0.16783558568E+03  0.41800000000E+01 0. -1.
        -11    1    3    3    0    0  0.13720191950E+02 -0.80853209785E+01 -0.23060879650E+01  0.16091430147E+02  0.00000000000E+00 0.  1.
         11    1    3    3    0    0 -0.15271361154E+03 -0.23205287498E+02 -0.30696388737E+02  0.15748714487E+03  0.00000000000E+00 0. -1.
</event>
<event>
 7    1  0.4687179E-006  0.1416103E+03  0.7561462E-02  0.1211179E+00
          1   -1    0    0  501    0  0.00000000000E+00  0.00000000000E+00  0.31805252836E+03  0.31805252836E+03  0.00000000000E+00 0. -1.
         -1   -1    0    0    0  501 -0.00000000000E+00 -0.00000000000E+00 -0.84010139088E+02  0.84010139088E+02  0.00000000000E+00 0.  1.
         23    2    1    2    0    0 -0.10974865923E+03 -0.36948426315E+02  0.16529087836E+03  0.21825753597E+03  0.83098273925E+02 0.  0.
          5    1    1    2  502    0  0.11568396245E+03  0.68860130958E+02  0.68426174053E+02  0.15107650545E+03  0.41800000000E+01 0.  1.
         -5    1    1    2    0  502 -0.59353032215E+01 -0.31911704643E+02  0.32533686479E+00  0.32728626027E+02  0.41800000000E+01 0.  1.
        -11    1    3    3    0    0 -0.61515947182E+02 -0.20673880706E+02  0.25920837752E+02  0.69882121683E+02  0.00000000000E+00 0.  1.
         11    1    3    3    0    0 -0.48232712050E+02 -0.16274545608E+02  0.13937004061E+03  0.14837541429E+03  0.00000000000E+00 0. -1.
</event>
<event>
 7    1  0.4687179E-006  0.2051014E+03  0.7561462E-02  0.1145505E+00
         -1   -1    0    0    0  501 -0.00000000000E+00  0.00000000000E+00  0.27865353151E+03  0.27865353151E+03  0.00000000000E+00 0.  1.
          1   -1    0    0  501    0  0.00000000000E+00 -0.00000000000E+00 -0.29439569716E+03  0.29439569716E+03  0.00000000000E+00 0. -1.
         23    2    1    2    0    0 -0.10025263201E+03 -0.16143073331E+03 -0.15297733709E+03  0.26079781644E+03  0.92211515085E+02 0.  0.
          5    1    1    2  502    0  0.77969924686E+02  0.15778995876E+03  0.30118359679E+01  0.17607817524E+03  0.41800000000E+01 0. -1.
         -5    1    1    2    0  502  0.22282707325E+02  0.36407745495E+01  0.13422333547E+03  0.13617323698E+03  0.41800000000E+01 0.  1.
        -11    1    3    3    0    0 -0.24980626274E+02 -0.12516896408E+03 -0.90287062780E+02  0.15634274835E+03  0.00000000000E+00 0.  1.
         11    1    3    3    0    0 -0.75272005738E+02 -0.36261769230E+02 -0.62690274314E+02  0.10445506809E+03  0.00000000000E+00 0. -1.
</event>
<event>
 7    1  0.4687179E-006  0.6085790E+02  0.7561462E-02  0.1394266E+00
         -1   -1    0    0    0  501 -0.00000000000E+00  0.00000000000E+00  0.17801287357E+03  0.17801287357E+03  0.00000000000E+00 0.  1.
          1   -1    0    0  501    0  0.00000000000E+00 -0.00000000000E+00 -0.76518057997E+02  0.76518057997E+02  0.00000000000E+00 0. -1.
         23    2    1    2    0    0  0.26355883465E+02 -0.31905583572E+02  0.32745444969E+02  0.10591465570E+03  0.91831646345E+02 0.  0.
          5    1    1    2  502    0 -0.19037445286E+02 -0.17906443226E+02  0.89998234891E+02  0.93809486276E+02  0.41800000000E+01 0. -1.
         -5    1    1    2    0  502 -0.73184381787E+01  0.49812026798E+02 -0.21248864287E+02  0.54806789585E+02  0.41800000000E+01 0. -1.
        -11    1    3    3    0    0  0.47774892443E+01 -0.18985715194E+02 -0.31406488334E+02  0.37008773208E+02  0.00000000000E+00 0. -1.
         11    1    3    3    0    0  0.21578394221E+02 -0.12919868379E+02  0.64151933303E+02  0.68905882496E+02  0.00000000000E+00 0.  1.
</event>
<event>
 7    1  0.4687179E-006  0.1346533E+03  0.7561462E-02  0.1220710E+00
         -2   -1    0    0    0  501 -0.00000000000E+00  0.00000000000E+00  0.40829457221E+02  0.40829457221E+02  0.00000000000E+00 0.  1.
          2   -1    0    0  501    0  0.00000000000E+00 -0.00000000000E+00 -0.48773296639E+03  0.48773296639E+03  0.00000000000E+00 0. -1.
         23    2    1    2    0    0  0.72419540235E+02  0.49214847593E+02 -0.15887753525E+03  0.20256493825E+03  0.90132080681E+02 0.  0.
          5    1    1    2  502    0 -0.10307330201E+03 -0.57263895452E+02 -0.24908516221E+03  0.27561594610E+03  0.41800000000E+01 0. -1.
         -5    1    1    2    0  502  0.30653761774E+02  0.80490478594E+01 -0.38940811703E+02  0.50381539262E+02  0.41800000000E+01 0. -1.
        -11    1    3    3    0    0  0.39236463845E+02  0.69965257223E+02 -0.74160874725E+02  0.10924501203E+03  0.00000000000E+00 0.  1.
         11    1    3    3    0    0  0.33183076390E+02 -0.20750409630E+02 -0.84716660524E+02  0.93319926216E+02  0.00000000000E+00 0. -1.
</event>
<event>
 7    1  0.4687179E-006  0.1076230E+03  0.7561462E-02  0.1265036E+00
         -3   -1    0    0    0  501 -0.00000000000E+00  0.00000000000E+00  0.61523661072E+03  0.61523661072E+03  0.00000000000E+00 0.  1.
          3   -1    0    0  501    0  0.00000000000E+00 -0.00000000000E+00 -0.23701605334E+02  0.23701605334E+02  0.00000000000E+00 0. -1.
         23    2    1    2    0    0  0.52035653139E+02 -0.10805827390E+02  0.23568099896E+03  0.25801289525E+03  0.90557416817E+02 0.  0.
          5    1    1    2  502    0 -0.18984268440E+02  0.62435016080E+02  0.11434367947E+03  0.13172123259E+03  0.41800000000E+01 0. -1.
         -5    1    1    2    0  502 -0.33051384699E+02 -0.51629188690E+02  0.24151032695E+03  0.24920408821E+03  0.41800000000E+01 0. -1.
        -11    1    3    3    0    0  0.68762669047E+02 -0.16546616043E+02  0.22802608313E+03  0.23874251767E+03  0.00000000000E+00 0.  1.
         11    1    3    3    0    0 -0.16727015908E+02  0.57407886533E+01  0.76549158289E+01  0.19270377575E+02  0.00000000000E+00 0. -1.
</event>
<event>
 7    1  0.4687179E-006  0.1264246E+03  0.7561462E-02  0.1232860E+00
         -2   -1    0    0    0  501 -0.00000000000E+00  0.00000000000E+00  0.30606948873E+03  0.30606948873E+03  0.00000000000E+00 0.  1.
          2   -1    0    0  501    0  0.00000000000E+00 -0.00000000000E+00 -0.70812149389E+02  0.70812149389E+02  0.00000000000E+00 0. -1.
         23    2    1    2    0    0 -0.84879506164E+02  0.50005720153E+02  0.12864003754E+03  0.18525707067E+03  0.89815479501E+02 0.  0.
          5    1    1    2  502    0 -0.16256881951E+02 -0.18834154497E+02 -0.15785352907E+02  0.29760063051E+02  0.41800000000E+01 0.  1.
         -5    1    1    2    0  502  0.10113638811E+03 -0.31171565656E+02  0.12240265470E+03  0.16186450440E+03  0.41800000000E+01 0.  1.
        -11    1    3    3    0    0 -0.23145697899E+02 -0.18396449998E+02  0.33811031024E+01  0.29758772857E+02  0.00000000000E+00 0. -1.
         11    1    3    3    0    0 -0.61733808265E+02  0.68402170151E+02  0.12525893444E+03  0.15549829781E+03  0.00000000000E+00 0.  1.
</event>
<event>
 7    1  0.4687179E-006  0.1403571E+03  0.7561462E-02  0.1212849E+00
          2   -1    0    0  501    0  0.00000000000E+00  0.00000000000E+00  0.19176407199E+03  0.19176407199E+03  0.00000000000E+00 0. -1.
         -2   -1    0    0    0  501 -0.00000000000E+00 -0.00000000000E+00 -0.11819736662E+03  0.11819736662E+03  0.00000000000E+00 0.  1.
         23    2    1    2    0    0  0.36926559807E+02 -0.84648985068E+02  0.85977090056E+02  0.15417763598E+03  0.88598317867E+02 0.  0.
          5    1    1    2  502    0 -0.82282838045E+02  0.50331617151E+02 -0.18924374299E+02  0.98383644294E+02  0.41800000000E+01 0.  1.
         -5    1    1    2    0  502  0.45356278238E+02  0.34317367917E+02  0.65139896167E+01  0.57400158337E+02  0.41800000000E+01 0.  1.
        -11    1    3    3    0    0  0.46095584499E+02 -0.43308515040E+01  0.22967450317E+02  0.51682327338E+02  0.00000000000E+00 0. -1.
         11    1    3    3    0    0 -0.91690246917E+01 -0.80318133564E+02  0.63009639739E+02  0.10249530864E+03  0.00000000000E+00 0.  1.
</event>
<event>
 7    1  0.4687179E-006  0.1500582E+03  0.7561462E-02  0.1200401E+00
         -2   -1    0    0    0  501 -0.00000000000E+00  0.00000000000E+00  0.38369014066E+02  0.38369014066E+02  0.00000000000E+00 0.  1.
          2   -1    0    0  501    0  0.00000000000E+00 -0.00000000000E+00 -0.89373496694E+03  0.89373496694E+03  0.00000000000E+00 0. -1.
         23    2    1    2    0    0 -0.13757155151E+03 -0.58879279707E+02 -0.41491947672E+03  0.45040882659E+03  0.91198890029E+02 0.  0.
          5    1    1    2  502    0  0.17935429842E+02  0.63261074483E+01 -0.24962769034E+03  0.25038601292E+03  0.41800000000E+01 0. -1.
         -5    1    1    2    0  502  0.11963612167E+03  0.52553172258E+02 -0.19081878581E+03  0.23130914150E+03  0.41800000000E+01 0. -1.
        -11    1    3    3    0    0 -0.79990503041E+02 -0.29431519632E+02 -0.11244687647E+03  0.14109923796E+03  0.00000000000E+00 0.  1.
         11    1    3    3    0    0 -0.57581048472E+02 -0.29447760075E+02 -0.30247260025E+03  0.30930958863E+03  0.00000000000E+00 0. -1.
</event>
<event>
 7    1  0.4687179E-006  0.9218148E+02  0.7561462E-02  0.1297653E+00
          2   -1    0    0  501    0  0.00000000000E+00  0.00000000000E+00  0.25587395575E+03  0.25587395575E+03  0.00000000000E+00 0. -1.
         -2   -1    0    0    0  501 -0.00000000000E+00 -0.00000000000E+00 -0.59945288162E+02  0.59945288162E+02  0.00000000000E+00 0.  1.
         23    2    1    2    0    0 -0.20363504891E+02  0.48525011120E+02  0.14341131796E+03  0.17029268866E+03  0.75255861290E+02 0.  0.
          5    1    1    2  502    0  0.56351137297E+02 -0.23787906670E+02 -0.16731944122E+02  0.63551125344E+02  0.41800000000E+01 0.  1.
         -5    1    1    2    0  502 -0.35987632406E+02 -0.24737104450E+02  0.69249293756E+02  0.81975429908E+02  0.41800000000E+01 0.  1.
        -11    1    3    3    0    0  0.17161197142E+02  0.35558366617E+02  0.28439834351E+02  0.48659308480E+02  0.00000000000E+00 0. -1.
         11    1    3    3    0    0 -0.37524702033E+02  0.12966644503E+02  0.11497148360E+03  0.12163338018E+03  0.00000000000E+00 0.  1.
</event>
<event>
 7    1  0.4687179E-006  0.6053688E+02  0.7561462E-02  0.1395592E+00
         -2   -1    0    0    0  501 -0.00000000000E+00  0.00000000000E+00  0.22222870230E+03  0.22222870230E+03  0.00000000000E+00 0. -1.
          2   -1    0    0  501    0  0.00000000000E+00 -0.00000000000E+00 -0.65210344817E+02  0.65210344817E+02  0.00000000000E+00 0.  1.
         23    2    1    2    0    0  0.12952477943E+02  0.41801190205E+02  0.36233602287E+02  0.10812940926E+03  0.91999940348E+02 0.  0.
          5    1    1    2  502    0 -0.82393164951E+01 -0.47349855476E+01 -0.25889382273E+02  0.27893349368E+02  0.41800000000E+01 0. -1.
         -5    1    1    2    0  502 -0.47131614474E+01 -0.37066204657E+02  0.14667413747E+03  0.15141628849E+03  0.41800000000E+01 0. -1.
        -11    1    3    3    0    0 -0.22382405270E+02  0.68823950853E+01 -0.21621924679E+02  0.31872355649E+02  0.00000000000E+00 0.  1.
         11    1    3    3    0    0  0.35334883213E+02  0.34918795119E+02  0.57855526967E+02  0.76257053607E+02  0.00000000000E+00 0. -1.
</event>
<event>
 7    1  0.4687179E-006  0.1871427E+03  0.7561462E-02  0.1161064E+00
         -2   -1    0    0    0  501 -0.00000000000E+00  0.00000000000E+00  0.71713462190E+03  0.71713462190E+03  0.00000000000E+00 0.  1.
          2   -1    0    0  501    0  0.00000000000E+00 -0.00000000000E+00 -0.15144149617E+03  0.15144149617E+03  0.00000000000E+00 0. -1.
         23    2    1    2    0    0 -0.14325347481E+03  0.98479212847E+02 -0.65572372681E+02  0.20196760349E+03  0.79192571566E+02 0.  0.
          5    1    1    2  502    0  0.10550435632E+03 -0.16327505146E+02  0.20869443021E+03  0.23445382110E+03  0.41800000000E+01 0. -1.
         -5    1    1    2    0  502  0.37749118491E+02 -0.82151707701E+02  0.42257106820E+03  0.43215469349E+03  0.41800000000E+01 0. -1.
        -11    1    3    3    0    0 -0.54933692472E+02  0.19017444448E+02  0.12951665478E+02  0.59557698080E+02  0.00000000000E+00 0.  1.
         11    1    3    3    0    0 -0.88319782342E+02  0.79461768399E+02 -0.78524038159E+02  0.14240990541E+03  0.00000000000E+00 0. -1.
</event>
<event>
 7    1  0.4687179E-006  0.2265361E+03  0.7561462E-02  0.1129102E+00
          1   -1    0    0  501    0  0.00000000000E+00  0.00000000000E+00  0.12412666949E+03  0.12412666949E+03  0.00000000000E+00 0. -1.
         -1   -1    0    0    0  501 -0.00000000000E+00 -0.00000000000E+00 -0.64535423641E+03  0.64535423641E+03  0.00000000000E+00 0.  1.
         23    2    1    2    0    0  0.29612814363E+02 -0.22423681195E+03 -0.76076737906E+02  0.25473228207E+03  0.89116770973E+02 0.  0.
          5    1    1    2  502    0 -0.18675996526E+02  0.92362366820E+02 -0.31606752835E+03  0.32984201450E+03  0.41800000000E+01 0.  1.
         -5    1    1    2    0  502 -0.10936817837E+02  0.13187444513E+03 -0.12908330066E+03  0.18490660933E+03  0.41800000000E+01 0.  1.
        -11    1    3    3    0    0  0.16632160316E+02 -0.15682107008E+03 -0.77788849985E+01  0.15789232986E+03  0.00000000000E+00 0. -1.
         11    1    3    3    0    0  0.12980654046E+02 -0.67415741875E+02 -0.68297852907E+02  0.96839952209E+02  0.00000000000E+00 0.  1.
</event>
<event>
 7    1  0.4687179E-006  0.1209453E+03  0.7561462E-02  0.1241546E+00
          2   -1    0    0  501    0  0.00000000000E+00  0.00000000000E+00  0.77365113650E+03  0.77365113650E+03  0.00000000000E+00 0. -1.
         -2   -1    0    0    0  501 -0.00000000000E+00 -0.00000000000E+00 -0.21173915080E+02  0.21173915080E+02  0.00000000000E+00 0.  1.
         23    2    1    2    0    0 -0.55950706653E+02  0.36347450858E+02  0.37304159604E+03  0.38976808911E+03  0.91145554782E+02 0.  0.
          5    1    1    2  502    0 -0.15614024751E+02  0.35971832828E+02  0.91137789625E+02  0.99304277972E+02  0.41800000000E+01 0.  1.
         -5    1    1    2    0  502  0.71564731404E+02 -0.72319283686E+02  0.28829783575E+03  0.30575268449E+03  0.41800000000E+01 0.  1.
        -11    1    3    3    0    0  0.18939175095E+02  0.70524005950E+01  0.23041414523E+02  0.30648580566E+02  0.00000000000E+00 0.  1.
         11    1    3    3    0    0 -0.74889881748E+02  0.29295050263E+02  0.35000018152E+03  0.35911950855E+03  0.00000000000E+00 0. -1.
</event>
<event>
 7    1  0.4687179E-006  0.1019609E+03  0.7561462E-02  0.1276226E+00
         -2   -1    0    0    0  501 -0.00000000000E+00  0.00000000000E+00  0.88791027469E+03  0.88791027469E+03  0.00000000000E+00 0.  1.
          2   -1    0    0  501    0  0.00000000000E+00 -0.00000000000E+00 -0.18002023119E+02  0.18002023119E+02  0.00000000000E+00 0. -1.
         23    2    1    2    0    0 -0.52268817608E+02  0.72051255695E+00  0.24782304998E+03  0.26922676966E+03  0.91292064094E+02 0.  0.
          5    1    1    2  502    0 -0.50947116590E+01 -0.55647926942E+02  0.25756055138E+03  0.26358595920E+03  0.41800000000E+01 0.  1.
         -5    1    1    2    0  502  0.57363529267E+02  0.54927414385E+02  0.36452465021E+03  0.37309956895E+03  0.41800000000E+01 0.  1.
        -11    1    3    3    0    0 -0.55232618139E+02 -0.10955377952E+02  0.25061365961E+03  0.25686157516E+03  0.00000000000E+00 0.  1.
         11    1    3    3    0    0  0.29638005312E+01  0.11675890509E+02 -0.27906096297E+01  0.12365194494E+02  0.00000000000E+00 0. -1.
</event>
<event>
 7    1  0.4687179E-006  0.1085975E+03  0.7561462E-02  0.1263189E+00
          1   -1    0    0  501    0  0.00000000000E+00  0.00000000000E+00  0.11380784324E+03  0.11380784324E+03  0.00000000000E+00 0. -1.
         -1   -1    0    0    0  501 -0.00000000000E+00 -0.00000000000E+00 -0.12116285392E+03  0.12116285392E+03  0.00000000000E+00 0.  1.
         23    2    1    2    0    0 -0.11429302418E+02 -0.11101853588E+02  0.40892950962E+02  0.99955499698E+02  0.89805280328E+02 0.  0.
          5    1    1    2  502    0  0.68210942226E+02  0.17398392207E+01 -0.24485729179E+02  0.72613931262E+02  0.41800000000E+01 0. -1.
         -5    1    1    2    0  502 -0.56781639808E+02  0.93620143673E+01 -0.23762232458E+02  0.62401266203E+02  0.41800000000E+01 0. -1.
        -11    1    3    3    0    0 -0.19861289673E+02  0.37163420847E+02  0.16905863720E+02  0.45402631032E+02  0.00000000000E+00 0.  1.
         11    1    3    3    0    0  0.84319872553E+01 -0.48265274435E+02  0.23987087243E+02  0.54552868666E+02  0.00000000000E+00 0. -1.
</event>
<event>
 7    1  0.4687179E-006  0.9619818E+02  0.7561462E-02  0.1288500E+00
         -2   -1    0    0    0  501 -0.00000000000E+00  0.00000000000E+00  0.38629813153E+03  0.38629813153E+03  0.00000000000E+00 0. -1.
          2   -1    0    0  501    0  0.00000000000E+00 -0.00000000000E+00 -0.45041820495E+02  0.45041820495E+02  0.00000000000E+00 0.  1.
         23    2    1    2    0    0 -0.22885511855E+02  0.40960377085E+02  0.55402614049E+02  0.11580517663E+03  0.90221339750E+02 0.  0.
          5    1    1    2  502    0  0.62239717909E+02 -0.30064068069E+02  0.80800968551E+02  0.10641381298E+03  0.41800000000E+01 0.  1.
         -5    1    1    2    0  502 -0.39354206055E+02 -0.10896309015E+02  0.20505272844E+03  0.20912096242E+03  0.41800000000E+01 0.  1.
        -11    1    3    3    0    0  0.21518637057E+02  0.29005672332E+02 -0.84746567640E+01  0.37097177460E+02  0.00000000000E+00 0.  1.
         11    1    3    3    0    0 -0.44404148912E+02  0.11954704753E+02  0.63877270813E+02  0.78707999167E+02  0.00000000000E+00 0. -1.
</event>
<event>
 7    1  0.4687179E-006  0.9776510E+02  0.7561462E-02  0.1285067E+00
         -1   -1    0    0    0  501 -0.00000000000E+00  0.00000000000E+00  0.87258647263E+02  0.87258647263E+02  0.00000000000E+00 0.  1.
          1   -1    0    0  501    0  0.00000000000E+00 -0.00000000000E+00 -0.15661802399E+03  0.15661802399E+03  0.00000000000E+00 0. -1.
         23    2    1    2    0    0 -0.38572835825E+02  0.26118817819E+02 -0.40927023955E+02  0.10739924912E+03  0.87689914553E+02 0.  0.
          5    1    1    2  502    0  0.11666488189E+02 -0.70446836424E+02  0.94125380000E+01  0.72145214535E+02  0.41800000000E+01 0.  1.
         -5    1    1    2    0  502  0.26906347636E+02  0.44328018605E+02 -0.37844890770E+02  0.64332207594E+02  0.41800000000E+01 0.  1.
        -11    1    3    3    0    0 -0.18204706979E+02  0.42244297445E+02  0.12777300778E+02  0.47741506448E+02  0.00000000000E+00 0. -1.
         11    1    3    3    0    0 -0.20368128846E+02 -0.16125479626E+02 -0.53704324733E+02  0.59657742673E+02  0.00000000000E+00 0.  1.
</event>
<event>
 7    1  0.4687179E-006  0.1338196E+03  0.7561462E-02  0.1221896E+00
         -1   -1    0    0    0  501 -0.00000000000E+00  0.00000000000E+00  0.82178137735E+02  0.82178137735E+02  0.00000000000E+00 0.  1.
          1   -1    0    0  501    0  0.00000000000E+00 -0.00000000000E+00 -0.28728851446E+03  0.28728851446E+03  0.00000000000E+00 0. -1.
         23    2    1    2    0    0  0.10319340486E+03  0.25810482385E+02 -0.67006192388E+02  0.15490696365E+03  0.90505678069E+02 0.  0.
          5    1    1    2  502    0  0.37692784982E+01 -0.20750939666E+02 -0.97690666923E+02  0.10002873468E+03  0.41800000000E+01 0. -1.
         -5    1    1    2    0  502 -0.10696268336E+03 -0.50595427193E+01 -0.40413517418E+02  0.11453095387E+03  0.41800000000E+01 0. -1.
        -11    1    3    3    0    0  0.48995402852E+02  0.58010659202E+02 -0.28920816539E+02  0.81253921204E+02  0.00000000000E+00 0.  1.
         11    1    3    3    0    0  0.54198002007E+02 -0.32200176817E+02 -0.38085375849E+02  0.73653042450E+02  0.00000000000E+00 0. -1.
</event>
<event>
 7    1  0.4687179E-006  0.1289616E+03  0.7561462E-02  0.1229005E+00
         -2   -1    0    0    0  501 -0.00000000000E+00  0.00000000000E+00  0.18721207945E+02  0.18721207945E+02  0.00000000000E+00 0.  1.
          2   -1    0    0  501    0  0.00000000000E+00 -0.00000000000E+00 -0.12005354193E+04  0.12005354193E+04  0.00000000000E+00 0. -1.
         23    2    1    2    0    0 -0.10397301305E+03  0.21313659979E+02 -0.57242785227E+03  0.58817823310E+03  0.83757556679E+02 0.  0.
          5    1    1    2  502    0  0.46912550153E+02 -0.42882551880E+02 -0.10363596491E+03  0.12164532971E+03  0.41800000000E+01 0. -1.
         -5    1    1    2    0  502  0.57060462901E+02  0.21568891901E+02 -0.50575039421E+03  0.50943306446E+03  0.41800000000E+01 0. -1.
        -11    1    3    3    0    0 -0.18124357479E+02  0.41157112610E+02 -0.14715416333E+03  0.15387250578E+03  0.00000000000E+00 0.  1.
         11    1    3    3    0    0 -0.85848655575E+02 -0.19843452631E+02 -0.42527368894E+03  0.43430572732E+03  0.00000000000E+00 0. -1.
</event>
<event>
 7    1  0.4687179E-006  0.7155776E+02  0.7561462E-02  0.1354875E+00
         -2   -1    0    0    0  501 -0.00000000000E+00  0.00000000000E+00  0.23158707393E+02  0.23158707393E+02  0.00000000000E+00 0.  1.
          2   -1    0    0  501    0  0.00000000000E+00 -0.00000000000E+00 -0.43873434512E+03  0.43873434512E+03  0.00000000000E+00 0. -1.
         23    2    1    2    0    0  0.10089666655E+02 -0.61730677631E+01 -0.16906385832E+03  0.18520585078E+03  0.74690768072E+02 0.  0.
          5    1    1    2  502    0  0.55714341888E-01 -0.33320488578E+02 -0.23009445870E+03  0.23253212765E+03  0.41800000000E+01 0.  1.
         -5    1    1    2    0  502 -0.10145380997E+02  0.39493556342E+02 -0.16417320704E+02  0.44155074082E+02  0.41800000000E+01 0.  1.
        -11    1    3    3    0    0  0.35987509972E+02  0.10808284739E+02 -0.52260585611E+02  0.64366829201E+02  0.00000000000E+00 0.  1.
         11    1    3    3    0    0 -0.25897843317E+02 -0.16981352502E+02 -0.11680327271E+03  0.12083902158E+03  0.00000000000E+00 0. -1.
</event>
<event>
 7    1  0.4687179E-006  0.8429517E+02  0.7561462E-02  0.1317286E+00
          1   -1    0    0  501    0  0.00000000000E+00  0.00000000000E+00  0.80463116746E+02  0.80463116746E+02  0.00000000000E+00 0. -1.
         -1   -1    0    0    0  501 -0.00000000000E+00 -0.00000000000E+00 -0.20169284036E+03  0.20169284036E+03  0.00000000000E+00 0.  1.
         23    2    1    2    0    0 -0.99360578566E+01 -0.93551583931E+01  0.19233568322E+02  0.93571566336E+02  0.90550889790E+02 0.  0.
          5    1    1    2  502    0  0.53089880883E+02  0.19819658016E+02 -0.20182264119E+02  0.60300501499E+02  0.41800000000E+01 0. -1.
         -5    1    1    2    0  502 -0.43153823026E+02 -0.10464499623E+02 -0.12028102782E+03  0.12828388928E+03  0.41800000000E+01 0. -1.
        -11    1    3    3    0    0 -0.30017334935E+02 -0.27045919320E+02  0.42113853746E+02  0.58361792517E+02  0.00000000000E+00 0. -1.
         11    1    3    3    0    0  0.20081277079E+02  0.17690760927E+02 -0.22880285424E+02  0.35209773819E+02  0.00000000000E+00 0.  1.
</event>
<event>
 7    1  0.4687179E-006  0.8925186E+02  0.7561462E-02  0.1304674E+00
          1   -1    0    0  501    0  0.00000000000E+00  0.00000000000E+00  0.20456260701E+03  0.20456260701E+03  0.00000000000E+00 0. -1.
         -1   -1    0    0    0  501 -0.00000000000E+00 -0.00000000000E+00 -0.90214341153E+02  0.90214341153E+02  0.00000000000E+00 0.  1.
         23    2    1    2    0    0  0.40345426731E+02  0.20162990150E+02  0.12591282469E+03  0.16130338914E+03  0.90168976351E+02 0.  0.
          5    1    1    2  502    0 -0.55741058207E+02 -0.44068165610E+01  0.45469521816E+02  0.72190272312E+02  0.41800000000E+01 0. -1.
         -5    1    1    2    0  502  0.15395631476E+02 -0.15756173589E+02 -0.57034080650E+02  0.61283286712E+02  0.41800000000E+01 0. -1.
        -11    1    3    3    0    0  0.44369301837E+02  0.51750888586E+02  0.75939875400E+02  0.10204731300E+03  0.00000000000E+00 0.  1.
         11    1    3    3    0    0 -0.40238751056E+01 -0.31587898436E+02  0.49972949289E+02  0.59256076137E+02  0.00000000000E+00 0. -1.
</event>
<event>
 7    1  0.4687179E-006  0.1124956E+03  0.7561462E-02  0.1256017E+00
         -2   -1    0    0    0  501 -0.00000000000E+00  0.00000000000E+00  0.32079974511E+03  0.32079974511E+03  0.00000000000E+00 0.  1.
          2   -1    0    0  501    0  0.00000000000E+00 -0.00000000000E+00 -0.55609619481E+02  0.55609619481E+02  0.00000000000E+00 0. -1.
         23    2    1    2    0    0 -0.79573065638E+02 -0.43108855694E+01  0.12668544559E+03  0.17347775844E+03  0.87720431150E+02 0.  0.
          5    1    1    2  502    0 -0.83697294557E+01 -0.36479336603E+02  0.83004351455E+02  0.91148171296E+02  0.41800000000E+01 0.  1.
         -5    1    1    2    0  502  0.87942795094E+02  0.40790222172E+02  0.55500328583E+02  0.11178343485E+03  0.41800000000E+01 0.  1.
        -11    1    3    3    0    0 -0.25406696534E+02  0.18599177803E+02  0.10687810603E+03  0.11141974328E+03  0.00000000000E+00 0.  1.
         11    1    3    3    0    0 -0.54166369104E+02 -0.22910063372E+02  0.19807339555E+02  0.62058015162E+02  0.00000000000E+00 0. -1.
</event>
<event>
 7    1  0.4687179E-006  0.1094399E+03  0.7561462E-02  0.1261611E+00
          2   -1    0    0  501    0  0.00000000000E+00  0.00000000000E+00  0.44895585101E+03  0.44895585101E+03  0.00000000000E+00 0. -1.
         -2   -1    0    0    0  501 -0.00000000000E+00 -0.00000000000E+00 -0.31791443705E+02  0.31791443705E+02  0.00000000000E+00 0.  1.
         23    2    1    2    0    0  0.31572783593E+02  0.15649662790E+02  0.24193870155E+03  0.26259090832E+03  0.95801342458E+02 0.  0.
          5    1    1    2  502    0 -0.67747234909E+02  0.22678391175E+02  0.13081121586E+03  0.14910749095E+03  0.41800000000E+01 0.  1.
         -5    1    1    2    0  502  0.36174451316E+02 -0.38328053965E+02  0.44414489899E+02  0.69048895442E+02  0.41800000000E+01 0.  1.
        -11    1    3    3    0    0 -0.83507403691E+01  0.44444617514E+02  0.16635008163E+03  0.17238737932E+03  0.00000000000E+00 0. -1.
         11    1    3    3    0    0  0.39923523962E+02 -0.28794954724E+02  0.75588619924E+02  0.90203529006E+02  0.00000000000E+00 0.  1.
</event>
<event>
 7    1  0.6141136E-006  0.2627637E+03  0.7561462E-02  0.1105494E+00
          1   -1    0    0  501    0  0.00000000000E+00  0.00000000000E+00  0.25689090773E+03  0.25689090773E+03  0.00000000000E+00 0. -1.
         -1   -1    0    0    0  501 -0.00000000000E+00 -0.00000000000E+00 -0.30747074054E+03  0.30747074054E+03  0.00000000000E+00 0.  1.
         23    2    1    2    0    0  0.11355946486E+03  0.23223062939E+03 -0.43231025756E+02  0.27708381575E+03  0.89887163024E+02 0.  0.
          5    1    1    2  502    0 -0.14828404394E+02 -0.23592085905E+02 -0.45273460635E+02  0.53325666729E+02  0.41800000000E+01 0. -1.
         -5    1    1    2    0  502 -0.98731060462E+02 -0.20863854349E+03  0.37924653581E+02  0.23395216579E+03  0.41800000000E+01 0. -1.
        -11    1    3    3    0    0  0.33688496777E+02  0.14221507617E+03 -0.55023798496E+02  0.15616549268E+03  0.00000000000E+00 0.  1.
         11    1    3    3    0    0  0.79870968080E+02  0.90015553226E+02  0.11792772740E+02  0.12091832307E+03  0.00000000000E+00 0. -1.
</event>
<event>
 7    1  0.4687179E-006  0.1554986E+03  0.7561462E-02  0.1193875E+00
         -2   -1    0    0    0  501 -0.00000000000E+00  0.00000000000E+00  0.70533689192E+02  0.70533689192E+02  0.00000000000E+00 0.  1.
          2   -1    0    0  501    0  0.00000000000E+00 -0.00000000000E+00 -0.36477184536E+03  0.36477184536E+03  0.00000000000E+00 0. -1.
         23    2    1    2    0    0 -0.45977756142E+02 -0.10797646293E+03 -0.14787839990E+03  0.20982284438E+03  0.91568194587E+02 0.  0.
          5    1    1    2  502    0  0.16843065557E+02  0.12976284482E+03 -0.13266832157E+03  0.18638787702E+03  0.41800000000E+01 0. -1.
         -5    1    1    2    0  502  0.29134690585E+02 -0.21786381885E+02 -0.13691434700E+02  0.39094813150E+02  0.41800000000E+01 0. -1.
        -11    1    3    3    0    0 -0.23170833954E+02 -0.11674760378E+03 -0.14083075273E+03  0.18439140828E+03  0.00000000000E+00 0.  1.
         11    1    3    3    0    0 -0.22806922188E+02  0.87711408468E+01 -0.70476471734E+01  0.25431436100E+02  0.00000000000E+00 0. -1.
</event>
<event>
 7    1  0.4687179E-006  0.9490611E+02  0.7561462E-02  0.1291388E+00
          2   -1    0    0  501    0  0.00000000000E+00  0.00000000000E+00  0.54555778826E+03  0.54555778826E+03  0.00000000000E+00 0. -1.
         -2   -1    0    0    0  501 -0.00000000000E+00 -0.00000000000E+00 -0.24527538805E+02  0.24527538805E+02  0.00000000000E+00 0.  1.
         23    2    1    2    0    0 -0.20669729749E+02  0.31209009153E+02  0.25715067907E+03  0.27566911044E+03  0.92009492587E+02 0.  0.
          5    1    1    2  502    0 -0.40006555305E+02 -0.51300345349E+02  0.11214191002E+03  0.12971326179E+03  0.41800000000E+01 0.  1.
         -5    1    1    2    0  502  0.60676285055E+02  0.20091336196E+02  0.15173766037E+03  0.16470295483E+03  0.41800000000E+01 0.  1.
        -11    1    3    3    0    0 -0.11366764480E+02 -0.11906978044E+02  0.18258851669E+01  0.16562406755E+02  0.00000000000E+00 0.  1.
         11    1    3    3    0    0 -0.93029652699E+01  0.43115987197E+02  0.25532479390E+03  0.25910670369E+03  0.00000000000E+00 0. -1.
</event>
<event>
 7    1  0.4687179E-006  0.7930697E+02  0.7561462E-02  0.1331030E+00
          2   -1    0    0  501    0  0.00000000000E+00  0.00000000000E+00  0.12708421445E+03  0.12708421445E+03  0.00000000000E+00 0. -1.
         -2   -1    0    0    0  501 -0.00000000000E+00 -0.00000000000E+00 -0.10642547618E+03  0.10642547618E+03  0.00000000000E+00 0.  1.
         23    2    1    2    0    0 -0.21902050935E+02  0.37143001418E+02  0.19939208475E+02  0.10119558112E+03  0.89351391781E+02 0.  0.
          5    1    1    2  502    0  0.20717495480E+02  0.11968198046E+02 -0.53666494826E+02  0.58906854018E+02  0.41800000000E+01 0. -1.
         -5    1    1    2    0  502  0.11845554552E+01 -0.49111199465E+02  0.54386024629E+02  0.73407255496E+02  0.41800000000E+01 0. -1.
        -11    1    3    3    0    0 -0.42002325391E+02  0.46662490653E+02 -0.10338141974E+02  0.63627514109E+02  0.00000000000E+00 0.  1.
         11    1    3    3    0    0  0.20100274456E+02 -0.95194892346E+01  0.30277350448E+02  0.37568067007E+02  0.00000000000E+00 0. -1.
</event>
<event>
 7    1  0.4687179E-006  0.1175000E+03  0.7561462E-02  0.1247279E+00
          3   -1    0    0  501    0  0.00000000000E+00  0.00000000000E+00  0.13836374396E+03  0.13836374396E+03  0.00000000000E+00 0. -1.
         -3   -1    0    0    0  501 -0.00000000000E+00 -0.00000000000E+00 -0.12296709694E+03  0.12296709694E+03  0.00000000000E+00 0.  1.
         23    2    1    2    0    0  0.36214703057E+02  0.18364946455E+02  0.61415585451E+02  0.12199726191E+03  0.97276316754E+02 0.  0.
          5    1    1    2  502    0  0.31319486852E+02  0.33206496075E+02 -0.22526594233E+02  0.51073491030E+02  0.41800000000E+01 0. -1.
         -5    1    1    2    0  502 -0.67534189910E+02 -0.51571442530E+02 -0.23492344198E+02  0.88260087963E+02  0.41800000000E+01 0. -1.
        -11    1    3    3    0    0  0.64022175570E+02  0.33679840267E+02  0.51280513632E+02  0.88672778706E+02  0.00000000000E+00 0. -1.
         11    1    3    3    0    0 -0.27807472513E+02 -0.15314893811E+02  0.10135071819E+02  0.33324483203E+02  0.00000000000E+00 0.  1.
</event>
<event>
 7    1  0.4687179E-006  0.1425409E+03  0.7561462E-02  0.1209950E+00
         -2   -1    0    0    0  501 -0.00000000000E+00  0.00000000000E+00  0.79498174937E+02  0.79498174937E+02  0.00000000000E+00 0.  1.
          2   -1    0    0  501    0  0.00000000000E+00 -0.00000000000E+00 -0.51594580536E+03  0.51594580536E+03  0.00000000000E+00 0. -1.
         23    2    1    2    0    0  0.11973050131E+03  0.40784632059E+02 -0.37418347299E+03  0.40696964199E+03  0.98042026125E+02 0.  0.
          5    1    1    2  502    0 -0.38994280841E+02 -0.61996494853E+02 -0.73851230091E+02  0.10409416842E+03  0.41800000000E+01 0. -1.
         -5    1    1    2    0  502 -0.80736220469E+02  0.21211862794E+02  0.11587072653E+02  0.84380169895E+02  0.41800000000E+01 0. -1.
        -11    1    3    3    0    0  0.67268561238E+02  0.33589622869E+02 -0.32862115611E+03  0.33711301716E+03  0.00000000000E+00 0. -1.
         11    1    3    3    0    0  0.52461940071E+02  0.71950091897E+01 -0.45562316881E+02  0.69856624832E+02  0.00000000000E+00 0.  1.
</event>
<event>
 7    1  0.4687179E-006  0.1054453E+03  0.7561462E-02  0.1269245E+00
         -2   -1    0    0    0  501 -0.00000000000E+00  0.00000000000E+00  0.44770273890E+03  0.44770273890E+03  0.00000000000E+00 0.  1.
          2   -1    0    0  501    0  0.00000000000E+00 -0.00000000000E+00 -0.75592221796E+02  0.75592221796E+02  0.00000000000E+00 0. -1.
         23    2    1    2    0    0 -0.49442657969E+02  0.76881852197E+02  0.98120980978E+01  0.12926055615E+03  0.90865936875E+02 0.  0.
          5    1    1    2  502    0 -0.78374339151E+00 -0.24038119943E+02  0.29084217418E+03  0.29186484569E+03  0.41800000000E+01 0. -1.
         -5    1    1    2    0  502  0.50226401360E+02 -0.52843732253E+02  0.71456244822E+02  0.10216955885E+03  0.41800000000E+01 0. -1.
        -11    1    3    3    0    0 -0.47023228053E+01  0.67597478124E+02 -0.24568483059E+02  0.72077328254E+02  0.00000000000E+00 0.  1.
         11    1    3    3    0    0 -0.44740335164E+02  0.92843740730E+01  0.34380581157E+02  0.57183227901E+02  0.00000000000E+00 0. -1.
</event>
<event>
 7    1  0.4687179E-006  0.1015813E+03  0.7561462E-02  0.1277005E+00
         -1   -1    0    0    0  501 -0.00000000000E+00  0.00000000000E+00  0.17463927441E+03  0.17463927441E+03  0.00000000000E+00 0.  1.
          1   -1    0    0  501    0  0.00000000000E+00 -0.00000000000E+00 -0.72997007743E+02  0.72997007743E+02  0.00000000000E+00 0. -1.
         23    2    1    2    0    0  0.19528001044E+01  0.26007349871E+02  0.25476229173E+02  0.98837810300E+02  0.91867724564E+02 0.  0.
          5    1    1    2  502    0  0.30601820706E+02  0.41507191863E+02  0.21967841376E+02  0.56208334450E+02  0.41800000000E+01 0. -1.
         -5    1    1    2    0  502 -0.32554620811E+02 -0.67514541734E+02  0.54198196114E+02  0.92590137400E+02  0.41800000000E+01 0. -1.
        -11    1    3    3    0    0  0.22901827864E+02 -0.16996665117E+02  0.39745970304E+02  0.48919551306E+02  0.00000000000E+00 0.  1.
         11    1    3    3    0    0 -0.20949027759E+02  0.43004014988E+02 -0.14269741131E+02  0.49918258995E+02  0.00000000000E+00 0. -1.
</event>
<event>
 7    1  0.4687179E-006  0.1225893E+03  0.7561462E-02  0.1238886E+00
          1   -1    0    0  501    0  0.00000000000E+00  0.00000000000E+00  0.64141789785E+03  0.64141789785E+03  0.00000000000E+00 0. -1.
         -1   -1    0    0    0  501 -0.00000000000E+00 -0.00000000000E+00 -0.30885601881E+02  0.30885601881E+02  0.00000000000E+00 0.  1.
         23    2    1    2    0    0  0.60111797901E+02  0.19238245942E+02  0.36424826264E+03  0.38895458086E+03  0.12093523383E+03 0.  0.
          5    1    1    2  502    0 -0.14483820599E+01  0.32807947887E+02  0.10346395375E+02  0.34683995623E+02  0.41800000000E+01 0.  1.
         -5    1    1    2    0  502 -0.58663415841E+02 -0.52046193828E+02  0.23593763795E+03  0.24866492325E+03  0.41800000000E+01 0.  1.
        -11    1    3    3    0    0 -0.20292275840E+02 -0.32220616918E+02  0.14315993705E+03  0.14813747733E+03  0.00000000000E+00 0.  1.
         11    1    3    3    0    0  0.80404073742E+02  0.51458862859E+02  0.22108832558E+03  0.24081710352E+03  0.00000000000E+00 0. -1.
</event>
<event>
 7    1  0.4687179E-006  0.1216835E+03  0.7561462E-02  0.1240345E+00
         -2   -1    0    0    0  501 -0.00000000000E+00  0.00000000000E+00  0.23187078477E+02  0.23187078477E+02  0.00000000000E+00 0.  1.
          2   -1    0    0  501    0  0.00000000000E+00 -0.00000000000E+00 -0.74296273577E+03  0.74296273577E+03  0.00000000000E+00 0. -1.
         23    2    1    2    0    0  0.67117521398E+02  0.13876105085E+02 -0.39589304383E+03  0.41224950504E+03  0.92309502686E+02 0.  0.
          5    1    1    2  502    0 -0.97095670080E+02 -0.47221725222E+01 -0.16213182475E+03  0.18908746405E+03  0.41800000000E+01 0.  1.
         -5    1    1    2    0  502  0.29978148682E+02 -0.91539325633E+01 -0.16175078871E+03  0.16481284516E+03  0.41800000000E+01 0.  1.
        -11    1    3    3    0    0  0.62816635149E+02  0.48620678461E+02 -0.29225610867E+03  0.30285893264E+03  0.00000000000E+00 0.  1.
         11    1    3    3    0    0  0.43008862493E+01 -0.34744573376E+02 -0.10363693516E+03  0.10939057240E+03  0.00000000000E+00 0. -1.
</event>
<event>
 7    1  0.1436444E-005  0.2864389E+03  0.7561462E-02  0.1092223E+00
          1   -1    0    0  501    0  0.00000000000E+00  0.00000000000E+00  0.47741559752E+03  0.47741559752E+03  0.00000000000E+00 0. -1.
         -1   -1    0    0    0  501 -0.00000000000E+00 -0.00000000000E+00 -0.19610972765E+03  0.19610972765E+03  0.00000000000E+00 0.  1.
         23    2    1    2    0    0  0.27573622411E+03 -0.49551355275E+02  0.19914118483E+03  0.35590255011E+03  0.92323407570E+02 0.  0.
          5    1    1    2  502    0 -0.28083309093E+03  0.48206876287E+02  0.55760876172E+02  0.29037540459E+03  0.41800000000E+01 0.  1.
         -5    1    1    2    0  502  0.50968668199E+01  0.13444789883E+01  0.26403808869E+02  0.27247370477E+02  0.41800000000E+01 0.  1.
        -11    1    3    3    0    0  0.18646754850E+03 -0.22029758203E+02  0.18088629121E+03  0.26072074569E+03  0.00000000000E+00 0. -1.
         11    1    3    3    0    0  0.89268675609E+02 -0.27521597072E+02  0.18254893622E+02  0.95181804414E+02  0.00000000000E+00 0.  1.
</event>
<event>
 7    1  0.4687179E-006  0.1480593E+03  0.7561462E-02  0.1202878E+00
          1   -1    0    0  501    0  0.00000000000E+00  0.00000000000E+00  0.64730306501E+03  0.64730306501E+03  0.00000000000E+00 0. -1.
         -1   -1    0    0    0  501 -0.00000000000E+00 -0.00000000000E+00 -0.35023425703E+02  0.35023425703E+02  0.00000000000E+00 0.  1.
         23    2    1    2    0    0 -0.10194801487E+03 -0.19157691474E+02  0.29434975624E+03  0.32527469499E+03  0.91659333001E+02 0.  0.
          5    1    1    2  502    0  0.33595512594E+02  0.66550943711E+02  0.19268144482E+03  0.20664292427E+03  0.41800000000E+01 0.  1.
         -5    1    1    2    0  502  0.68352502280E+02 -0.47393252237E+02  0.12524843825E+03  0.15040887145E+03  0.41800000000E+01 0.  1.
        -11    1    3    3    0    0  0.10322657342E+02  0.17285892984E+02  0.50255789361E+02  0.54138745046E+02  0.00000000000E+00 0.  1.
         11    1    3    3    0    0 -0.11227067222E+03 -0.36443584458E+02  0.24409396688E+03  0.27113594995E+03  0.00000000000E+00 0. -1.
</event>
<event>
 7    1  0.4687179E-006  0.7423126E+02  0.7561462E-02  0.1346268E+00
          1   -1    0    0  501    0  0.00000000000E+00  0.00000000000E+00  0.58594313341E+03  0.58594313341E+03  0.00000000000E+00 0. -1.
         -1   -1    0    0    0  501 -0.00000000000E+00 -0.00000000000E+00 -0.28597942985E+02  0.28597942985E+02  0.00000000000E+00 0.  1.
         23    2    1    2    0    0  0.41341159613E+02  0.52040210023E+02  0.25539511375E+03  0.28101426857E+03  0.96566454179E+02 0.  0.
          5    1    1    2  502    0 -0.92759993100E+01 -0.42721524515E+02  0.17792937606E+02  0.47383898623E+02  0.41800000000E+01 0. -1.
         -5    1    1    2    0  502 -0.32065160303E+02 -0.93186855080E+01  0.28415713907E+03  0.28614290921E+03  0.41800000000E+01 0. -1.
        -11    1    3    3    0    0  0.22972960135E+01  0.20701109102E+02  0.71457762683E-01  0.20828312300E+02  0.00000000000E+00 0.  1.
         11    1    3    3    0    0  0.39043863599E+02  0.31339100921E+02  0.25532365599E+03  0.26018595627E+03  0.00000000000E+00 0. -1.
</event>
<event>
 7    1  0.4687179E-006  0.1677364E+03  0.7561462E-02  0.1180229E+00
         -2   -1    0    0    0  501 -0.00000000000E+00  0.00000000000E+00  0.21042066158E+03  0.21042066158E+03  0.00000000000E+00 0.  1.
          2   -1    0    0  501    0  0.00000000000E+00 -0.00000000000E+00 -0.53695657989E+03  0.53695657989E+03  0.00000000000E+00 0. -1.
         23    2    1    2    0    0 -0.12843196534E+03 -0.73482204661E+02 -0.47210566294E+03  0.50504991709E+03  0.10147540412E+03 0.  0.
          5    1    1    2  502    0 -0.13763764405E+02  0.20518845228E+02 -0.80908215837E+01  0.26332451727E+02  0.41800000000E+01 0. -1.
         -5    1    1    2    0  502  0.14219572975E+03  0.52963359433E+02  0.15366056622E+03  0.21599487265E+03  0.41800000000E+01 0.  1.
        -11    1    3    3    0    0 -0.71171151326E+02 -0.79824612888E+01 -0.10057008057E+03  0.12346413882E+03  0.00000000000E+00 0.  1.
         11    1    3    3    0    0 -0.57260814015E+02 -0.65499743372E+02 -0.37153558237E+03  0.38158577826E+03  0.00000000000E+00 0. -1.
</event>
<event>
 7    1  0.4687179E-006  0.2111346E+03  0.7561462E-02  0.1140671E+00
         -2   -1    0    0    0  501 -0.00000000000E+00  0.00000000000E+00  0.20149795480E+03  0.20149795480E+03  0.00000000000E+00 0.  1.
          2   -1    0    0  501    0  0.00000000000E+00 -0.00000000000E+00 -0.28038670721E+03  0.28038670721E+03  0.00000000000E+00 0. -1.
         23    2    1    2    0    0 -0.13446340616E+03 -0.13794736003E+03 -0.12725120385E+03  0.24715793931E+03  0.88228659443E+02 0.  0.
          5    1    1    2  502    0  0.82273681300E+02  0.81029447129E+01 -0.93324863887E+01  0.83301764987E+02  0.41800000000E+01 0.  1.
         -5    1    1    2    0  502  0.52189724855E+02  0.12984441532E+03  0.57694937820E+02  0.15142495772E+03  0.41800000000E+01 0.  1.
        -11    1    3    3    0    0 -0.64950071030E+02 -0.10279002956E+03 -0.35228477963E+02  0.12659126180E+03  0.00000000000E+00 0.  1.
         11    1    3    3    0    0 -0.69513335126E+02 -0.35157330469E+02 -0.92022725884E+02  0.12056667751E+03  0.00000000000E+00 0. -1.
</event>
<event>
 7    1  0.4687179E-006  0.8870029E+02  0.7561462E-02  0.1306030E+00
         -1   -1    0    0    0  501 -0.00000000000E+00  0.00000000000E+00  0.32334343140E+03  0.32334343140E+03  0.00000000000E+00 0.  1.
          1   -1    0    0  501    0  0.00000000000E+00 -0.00000000000E+00 -0.56760602323E+02  0.56760602323E+02  0.00000000000E+00 0. -1.
         23    2    1    2    0    0  0.48729973713E+02 -0.35612236072E+02  0.44725395330E+02  0.11835648278E+03  0.91460670959E+02 0.  0.
          5    1    1    2  502    0 -0.37429592160E+02 -0.14527254812E+02  0.72262705708E+01  0.41008619679E+02  0.41800000000E+01 0. -1.
         -5    1    1    2    0  502 -0.11300381553E+02  0.50139490884E+02  0.21463116318E+03  0.22073893127E+03  0.41800000000E+01 0. -1.
        -11    1    3    3    0    0  0.61363381032E+02 -0.18297812159E+02  0.63266554881E+02  0.90016284237E+02  0.00000000000E+00 0.  1.
         11    1    3    3    0    0 -0.12633407319E+02 -0.17314423913E+02 -0.18541159550E+02  0.28340198542E+02  0.00000000000E+00 0. -1.
</event>
<event>
 7    1  0.4687179E-006  0.1103835E+03  0.7561462E-02  0.1259861E+00
          1   -1    0    0  501    0  0.00000000000E+00  0.00000000000E+00  0.38096356471E+03  0.38096356471E+03  0.00000000000E+00 0. -1.
         -1   -1    0    0    0  501 -0.00000000000E+00 -0.00000000000E+00 -0.11686329320E+03  0.11686329320E+03  0.00000000000E+00 0.  1.
         23    2    1    2    0    0 -0.72590484543E+02  0.40746479834E+02  0.31567527221E+03  0.33896434945E+03  0.91193742369E+02 0.  0.
          5    1    1    2  502    0  0.77085679246E+02 -0.11362490954E+02 -0.84017018729E+02  0.11466315878E+03  0.41800000000E+01 0. -1.
         -5    1    1    2    0  502 -0.44951947032E+01 -0.29383988881E+02  0.32442018031E+02  0.44199349677E+02  0.41800000000E+01 0. -1.
        -11    1    3    3    0    0 -0.18310435827E+02  0.53850738531E+02  0.89867308359E+02  0.10635462948E+03  0.00000000000E+00 0.  1.
         11    1    3    3    0    0 -0.54280048716E+02 -0.13104258697E+02  0.22580796385E+03  0.23260971996E+03  0.00000000000E+00 0. -1.
</event>
<event>
 7    1  0.4687179E-006  0.1142696E+03  0.7561462E-02  0.1252861E+00
         -2   -1    0    0    0  501 -0.00000000000E+00  0.00000000000E+00  0.93107431136E+02  0.93107431136E+02  0.00000000000E+00 0.  1.
          2   -1    0    0  501    0  0.00000000000E+00 -0.00000000000E+00 -0.14148036021E+03  0.14148036021E+03  0.00000000000E+00 0. -1.
         23    2    1    2    0    0  0.39054031442E+02  0.11720812089E-02 -0.24771810358E+02  0.10142769899E+03  0.90270250692E+02 0.  0.
          5    1    1    2  502    0  0.45450309778E+02  0.32865055922E-01 -0.15335769581E+02  0.48149662176E+02  0.41800000000E+01 0.  1.
         -5    1    1    2    0  502 -0.84504341220E+02 -0.34037137131E-01 -0.82653491347E+01  0.85010430182E+02  0.41800000000E+01 0.  1.
        -11    1    3    3    0    0  0.11047451678E+02  0.44422956506E+02 -0.96754299715E+01  0.46787382898E+02  0.00000000000E+00 0. -1.
         11    1    3    3    0    0  0.28006579763E+02 -0.44421784424E+02 -0.15096380386E+02  0.54640316088E+02  0.00000000000E+00 0.  1.
</event>
<event>
 7    1  0.4687179E-006  0.9735895E+02  0.7561462E-02  0.1285950E+00
          1   -1    0    0  501    0  0.00000000000E+00  0.00000000000E+00  0.94384181077E+02  0.94384181077E+02  0.00000000000E+00 0. -1.
         -1   -1    0    0    0  501 -0.00000000000E+00 -0.00000000000E+00 -0.22081546282E+03  0.22081546282E+03  0.00000000000E+00 0.  1.
         23    2    1    2    0    0 -0.19312599190E+02  0.76475063998E+00  0.44060308832E+02  0.10286026915E+03  0.90914040851E+02 0.  0.
          5    1    1    2  502    0 -0.43195414036E+02  0.53352865779E+01 -0.17846365138E+02  0.47225779244E+02  0.41800000000E+01 0.  1.
         -5    1    1    2    0  502  0.62508013226E+02 -0.61000372179E+01 -0.15264522544E+03  0.16511359551E+03  0.41800000000E+01 0.  1.
        -11    1    3    3    0    0 -0.34692742932E+02  0.35760540427E+02  0.82914762956E+01  0.50508922409E+02  0.00000000000E+00 0.  1.
         11    1    3    3    0    0  0.15380143742E+02 -0.34995789787E+02  0.35768832536E+02  0.52351346739E+02  0.00000000000E+00 0. -1.
</event>
<event>
 7    1  0.4687179E-006  0.1227698E+03  0.7561462E-02  0.1238596E+00
          2   -1    0    0  501    0  0.00000000000E+00  0.00000000000E+00  0.10823949252E+04  0.10823949252E+04  0.00000000000E+00 0. -1.
         -2   -1    0    0    0  501 -0.00000000000E+00 -0.00000000000E+00 -0.15694401695E+02  0.15694401695E+02  0.00000000000E+00 0.  1.
         23    2    1    2    0    0  0.28838634633E+00  0.66368179753E+02  0.35656586509E+03  0.37397340208E+03  0.91170559201E+02 0.  0.
          5    1    1    2  502    0 -0.26490051938E+02 -0.95856451055E+02  0.44246023732E+03  0.45351815407E+03  0.41800000000E+01 0.  1.
         -5    1    1    2    0  502  0.26201665591E+02  0.29488271303E+02  0.26767442108E+03  0.27059777073E+03  0.41800000000E+01 0.  1.
        -11    1    3    3    0    0 -0.41236606655E+02  0.37717823314E+02  0.24857366561E+03  0.25477825488E+03  0.00000000000E+00 0. -1.
         11    1    3    3    0    0  0.41524993001E+02  0.28650356438E+02  0.10799219948E+03  0.11919514720E+03  0.00000000000E+00 0.  1.
</event>
<event>
 7    1  0.4687179E-006  0.1207350E+03  0.7561462E-02  0.1241889E+00
         -3   -1    0    0    0  501 -0.00000000000E+00  0.00000000000E+00  0.18981831685E+03  0.18981831685E+03  0.00000000000E+00 0.  1.
          3   -1    0    0  501    0  0.00000000000E+00 -0.00000000000E+00 -0.11248639840E+03  0.11248639840E+03  0.00000000000E+00 0. -1.
         23    2    1    2    0    0  0.83794044283E+02 -0.34349039754E+02 -0.18039141059E+02  0.12965952657E+03  0.91021337228E+02 0.  0.
          5    1    1    2  502    0 -0.29282332009E+02  0.66442198660E+02  0.78563989372E+02  0.10705976628E+03  0.41800000000E+01 0. -1.
         -5    1    1    2    0  502 -0.54511712275E+02 -0.32093158906E+02  0.16807070138E+02  0.65585422392E+02  0.41800000000E+01 0.  1.
        -11    1    3    3    0    0  0.69024607251E+02 -0.48916943336E+02  0.19455185940E+02  0.86808801463E+02  0.00000000000E+00 0.  1.
         11    1    3    3    0    0  0.14769437032E+02  0.14567903582E+02 -0.37494326999E+02  0.42850725106E+02  0.00000000000E+00 0. -1.
</event>
<event>
 7    1  0.4687179E-006  0.1622449E+03  0.7561462E-02  0.1186185E+00
          4   -1    0    0  501    0  0.00000000000E+00  0.00000000000E+00  0.49143139218E+03  0.49143139218E+03  0.00000000000E+00 0. -1.
         -4   -1    0    0    0  501 -0.00000000000E+00 -0.00000000000E+00 -0.60038641482E+02  0.60038641482E+02  0.00000000000E+00 0.  1.
         23    2    1    2    0    0  0.55991690746E+02 -0.10737072509E+03  0.29080627927E+03  0.32769323261E+03  0.90283002783E+02 0.  0.
          5    1    1    2  502    0 -0.24007772532E+02 -0.26429932906E+02  0.36364372084E+02  0.51134669769E+02  0.41800000000E+01 0. -1.
         -5    1    1    2    0  502 -0.31983918215E+02  0.13380065800E+03  0.10422209934E+03  0.17264213129E+03  0.41800000000E+01 0. -1.
        -11    1    3    3    0    0  0.74134818797E+02 -0.46786784898E+02  0.16196521203E+03  0.18416759896E+03  0.00000000000E+00 0.  1.
         11    1    3    3    0    0 -0.18143128050E+02 -0.60583940191E+02  0.12884106724E+03  0.14352563364E+03  0.00000000000E+00 0. -1.
</event>
<event>
 7    1  0.4687179E-006  0.1657477E+03  0.7561462E-02  0.1182356E+00
          2   -1    0    0  501    0  0.00000000000E+00  0.00000000000E+00  0.33303154937E+03  0.33303154937E+03  0.00000000000E+00 0.  1.
         -2   -1    0    0    0  501 -0.00000000000E+00 -0.00000000000E+00 -0.11583538630E+03  0.11583538630E+03  0.00000000000E+00 0. -1.
         23    2    1    2    0    0  0.82541145786E+02  0.11470656200E+03  0.19743514240E+03  0.25910703504E+03  0.90472006931E+02 0.  0.
          5    1    1    2  502    0 -0.11538440778E+03 -0.91335104669E+02  0.74557499461E+01  0.14740666033E+03  0.41800000000E+01 0. -1.
         -5    1    1    2    0  502  0.32843261992E+02 -0.23371457333E+02  0.12305270723E+02  0.42353240297E+02  0.41800000000E+01 0. -1.
        -11    1    3    3    0    0  0.59337227930E+02  0.99999516316E+02  0.86777229843E+02  0.14508996347E+03  0.00000000000E+00 0. -1.
         11    1    3    3    0    0  0.23203917856E+02  0.14707045686E+02  0.11065791255E+03  0.11401707156E+03  0.00000000000E+00 0.  1.
</event>
<event>
 7    1  0.4687179E-006  0.9955734E+02  0.7561462E-02  0.1281230E+00
         -3   -1    0    0    0  501 -0.00000000000E+00  0.00000000000E+00  0.54603709340E+03  0.54603709340E+03  0.00000000000E+00 0.  1.
          3   -1    0    0  501    0  0.00000000000E+00 -0.00000000000E+00 -0.24470699495E+02  0.24470699495E+02  0.00000000000E+00 0. -1.
         23    2    1    2    0    0  0.13828758597E+01  0.64200155476E+01  0.12635692171E+03  0.15592232822E+03  0.91118449437E+02 0.  0.
          5    1    1    2  502    0  0.47562558147E+02  0.20436947548E+02  0.29727548111E+03  0.30177814671E+03  0.41800000000E+01 0. -1.
         -5    1    1    2    0  502 -0.48945434007E+02 -0.26856963096E+02  0.97933991083E+02  0.11280731796E+03  0.41800000000E+01 0. -1.
        -11    1    3    3    0    0  0.38863370996E+02 -0.21538902612E+02  0.66210846874E+02  0.79738084845E+02  0.00000000000E+00 0.  1.
         11    1    3    3    0    0 -0.37480495136E+02  0.27958918160E+02  0.60146074837E+02  0.76184243375E+02  0.00000000000E+00 0. -1.
</event>
<event>
 7    1  0.4687179E-006  0.9615149E+02  0.7561462E-02  0.1288603E+00
          1   -1    0    0  501    0  0.00000000000E+00  0.00000000000E+00  0.10506880299E+03  0.10506880299E+03  0.00000000000E+00 0. -1.
         -1   -1    0    0    0  501 -0.00000000000E+00 -0.00000000000E+00 -0.22182271212E+03  0.22182271212E+03  0.00000000000E+00 0.  1.
         23    2    1    2    0    0 -0.52112084384E+02  0.13173258347E+02  0.46041625728E+02  0.11466728597E+03  0.90219460750E+02 0.  0.
          5    1    1    2  502    0  0.58685182736E+02  0.42987855343E+02 -0.12296725853E+03  0.14293468946E+03  0.41800000000E+01 0.  1.
         -5    1    1    2    0  502 -0.65730983524E+01 -0.56161113690E+02 -0.39828276329E+02  0.69289539674E+02  0.41800000000E+01 0.  1.
        -11    1    3    3    0    0 -0.17822903118E+02  0.21024299455E+02  0.67880561509E+02  0.73262866951E+02  0.00000000000E+00 0. -1.
         11    1    3    3    0    0 -0.34289181266E+02 -0.78510411080E+01 -0.21838935781E+02  0.41404419020E+02  0.00000000000E+00 0.  1.
</event>
<event>
 7    1  0.4687179E-006  0.1219769E+03  0.7561462E-02  0.1239871E+00
         -1   -1    0    0    0  501 -0.00000000000E+00  0.00000000000E+00  0.15449041838E+03  0.15449041838E+03  0.00000000000E+00 0.  1.
          1   -1    0    0  501    0  0.00000000000E+00 -0.00000000000E+00 -0.15215385646E+03  0.15215385646E+03  0.00000000000E+00 0. -1.
         23    2    1    2    0    0  0.26308985405E+02  0.67662906116E+02 -0.75449754559E+02  0.14241888269E+03  0.96540359984E+02 0.  0.
          5    1    1    2  502    0  0.30415053302E+02 -0.80273978386E+02  0.40096389122E+02  0.94837650192E+02  0.41800000000E+01 0. -1.
         -5    1    1    2    0  502 -0.56724038707E+02  0.12611072270E+02  0.37689927349E+02  0.69387741962E+02  0.41800000000E+01 0. -1.
        -11    1    3    3    0    0  0.86166022859E+01  0.78520419708E+02 -0.17560272045E+02  0.80920116784E+02  0.00000000000E+00 0.  1.
         11    1    3    3    0    0  0.17692383119E+02 -0.10857513592E+02 -0.57889482514E+02  0.61498765903E+02  0.00000000000E+00 0. -1.
</event>
<event>
 7    1  0.4687179E-006  0.1869884E+03  0.7561462E-02  0.1161206E+00
         -1   -1    0    0    0  501 -0.00000000000E+00  0.00000000000E+00  0.57178471747E+03  0.57178471747E+03  0.00000000000E+00 0. -1.
          1   -1    0    0  501    0  0.00000000000E+00 -0.00000000000E+00 -0.74641232703E+02  0.74641232703E+02  0.00000000000E+00 0.  1.
         23    2    1    2    0    0  0.66312874066E+02  0.15120936102E+03  0.14490341107E+03  0.23779045313E+03  0.91025452128E+02 0.  0.
          5    1    1    2  502    0 -0.38242874069E+02 -0.15302417155E+03  0.20509127721E+03  0.25876402161E+03  0.41800000000E+01 0. -1.
         -5    1    1    2    0  502 -0.28069999997E+02  0.18148105295E+01  0.14714879650E+03  0.14987147543E+03  0.41800000000E+01 0. -1.
        -11    1    3    3    0    0  0.11920273718E+02  0.12810285483E+03  0.88986516638E+02  0.15643220411E+03  0.00000000000E+00 0.  1.
         11    1    3    3    0    0  0.54392600348E+02  0.23106506195E+02  0.55916894429E+02  0.81358249021E+02  0.00000000000E+00 0. -1.
</event>
<event>
 7    1  0.4687179E-006  0.8018839E+02  0.7561462E-02  0.1328518E+00
          1   -1    0    0  501    0  0.00000000000E+00  0.00000000000E+00  0.38000382927E+03  0.38000382927E+03  0.00000000000E+00 0. -1.
         -1   -1    0    0    0  501 -0.00000000000E+00 -0.00000000000E+00 -0.35323921597E+02  0.35323921597E+02  0.00000000000E+00 0.  1.
         23    2    1    2    0    0 -0.11656199717E+02  0.35157747440E+02  0.18157577036E+03  0.20646724768E+03  0.91033124663E+02 0.  0.
          5    1    1    2  502    0  0.18165352911E+02  0.20700491054E+02  0.14783772436E+03  0.15043920872E+03  0.41800000000E+01 0. -1.
         -5    1    1    2    0  502 -0.65091531946E+01 -0.55858238493E+02  0.15266412956E+02  0.58421294469E+02  0.41800000000E+01 0. -1.
        -11    1    3    3    0    0 -0.30435032593E+02  0.45462069133E+02  0.17603724997E+03  0.18434262750E+03  0.00000000000E+00 0. -1.
         11    1    3    3    0    0  0.18778832877E+02 -0.10304321694E+02  0.55385203905E+01  0.22124620175E+02  0.00000000000E+00 0.  1.
</event>
<event>
 7    1  0.4687179E-006  0.9768707E+02  0.7561462E-02  0.1285236E+00
         -1   -1    0    0    0  501 -0.00000000000E+00  0.00000000000E+00  0.64401704514E+03  0.64401704514E+03  0.00000000000E+00 0.  1.
          1   -1    0    0  501    0  0.00000000000E+00 -0.00000000000E+00 -0.20998894222E+02  0.20998894222E+02  0.00000000000E+00 0. -1.
         23    2    1    2    0    0 -0.44512416681E+02  0.50557544429E+00  0.28077346122E+03  0.29791348974E+03  0.89090403509E+02 0.  0.
          5    1    1    2  502    0 -0.14837755369E+02 -0.27752649594E+02  0.18360581122E+02  0.36673585631E+02  0.41800000000E+01 0. -1.
         -5    1    1    2    0  502  0.59350172050E+02  0.27247074149E+02  0.32388410858E+03  0.33042886399E+03  0.41800000000E+01 0. -1.
        -11    1    3    3    0    0  0.20849465322E+02  0.21095375779E+02  0.10932174371E+03  0.11327382192E+03  0.00000000000E+00 0.  1.
         11    1    3    3    0    0 -0.65361882003E+02 -0.20589800335E+02  0.17145171751E+03  0.18463966782E+03  0.00000000000E+00 0. -1.
</event>
<event>
 7    1  0.4687179E-006  0.1101052E+03  0.7561462E-02  0.1260375E+00
         -2   -1    0    0    0  501 -0.00000000000E+00  0.00000000000E+00  0.98254607194E+03  0.98254607194E+03  0.00000000000E+00 0.  1.
          2   -1    0    0  501    0  0.00000000000E+00 -0.00000000000E+00 -0.15654513372E+02  0.15654513372E+02  0.00000000000E+00 0. -1.
         23    2    1    2    0    0  0.27171876686E+02 -0.37862685801E+02  0.28612450886E+03  0.30446954811E+03  0.93072967589E+02 0.  0.
          5    1    1    2  502    0 -0.74530173887E+02  0.41825661380E+02  0.41793673997E+03  0.42660605221E+03  0.41800000000E+01 0.  1.
         -5    1    1    2    0  502  0.47358297202E+02 -0.39629755790E+01  0.26283030974E+03  0.26712498499E+03  0.41800000000E+01 0.  1.
        -11    1    3    3    0    0 -0.21092910706E+02 -0.31987038290E+02  0.21453783568E+03  0.21793247679E+03  0.00000000000E+00 0.  1.
         11    1    3    3    0    0  0.48264787392E+02 -0.58756475109E+01  0.71586673183E+02  0.86537071322E+02  0.00000000000E+00 0. -1.
</event>
<event>
 7    1  0.4687179E-006  0.1244574E+03  0.7561462E-02  0.1235920E+00
          2   -1    0    0  501    0  0.00000000000E+00  0.00000000000E+00  0.73477227170E+03  0.73477227170E+03  0.00000000000E+00 0. -1.
         -2   -1    0    0    0  501 -0.00000000000E+00 -0.00000000000E+00 -0.32761657917E+02  0.32761657917E+02  0.00000000000E+00 0.  1.
         23    2    1    2    0    0 -0.24776933070E+02  0.15470588636E+02  0.32340949740E+03  0.33584519090E+03  0.85703288851E+02 0.  0.
          5    1    1    2  502    0  0.76481911667E+02 -0.54088115855E+02  0.34750027569E+03  0.35992905009E+03  0.41800000000E+01 0. -1.
         -5    1    1    2    0  502 -0.51704978596E+02  0.38617527219E+02  0.31100840689E+02  0.71759688626E+02  0.41800000000E+01 0.  1.
        -11    1    3    3    0    0 -0.27701949614E+02  0.49284636769E+02  0.19574700502E+03  0.20374803903E+03  0.00000000000E+00 0. -1.
         11    1    3    3    0    0  0.29250165434E+01 -0.33814048133E+02  0.12766249238E+03  0.13209715188E+03  0.00000000000E+00 0.  1.
</event>
<event>
 7    1  0.4687179E-006  0.1076818E+03  0.7561462E-02  0.1264924E+00
         -2   -1    0    0    0  501 -0.00000000000E+00  0.00000000000E+00  0.33013391348E+03  0.33013391348E+03  0.00000000000E+00 0.  1.
          2   -1    0    0  501    0  0.00000000000E+00 -0.00000000000E+00 -0.74513480224E+02  0.74513480224E+02  0.00000000000E+00 0. -1.
         23    2    1    2    0    0  0.47018753349E+02  0.41379539450E+02  0.16980506073E+02  0.12803863979E+03  0.11037448184E+03 0.  0.
          5    1    1    2  502    0 -0.11751026056E+02  0.42767301161E+02  0.49651625449E+02  0.66707458142E+02  0.41800000000E+01 0. -1.
         -5    1    1    2    0  502 -0.35267727293E+02 -0.84146840611E+02  0.18898830173E+03  0.20990129577E+03  0.41800000000E+01 0. -1.
        -11    1    3    3    0    0  0.15074286865E+02 -0.10629002771E+02  0.53720271394E+02  0.56798568494E+02  0.00000000000E+00 0.  1.
         11    1    3    3    0    0  0.31944466484E+02  0.52008542220E+02 -0.36739765320E+02  0.71240071299E+02  0.00000000000E+00 0. -1.
</event>
<event>
 7    1  0.4687179E-006  0.7490763E+02  0.7561462E-02  0.1344157E+00
          1   -1    0    0  501    0  0.00000000000E+00  0.00000000000E+00  0.11660309542E+03  0.11660309542E+03  0.00000000000E+00 0. -1.
         -1   -1    0    0    0  501 -0.00000000000E+00 -0.00000000000E+00 -0.19505502185E+03  0.19505502185E+03  0.00000000000E+00 0.  1.
         23    2    1    2    0    0 -0.52161411643E+01 -0.79875278282E+01  0.68895345513E+02  0.11813977323E+03  0.95495699669E+02 0.  0.
          5    1    1    2  502    0  0.28672008469E+02 -0.41010106067E+02 -0.12485682369E+03  0.13457567273E+03  0.41800000000E+01 0. -1.
         -5    1    1    2    0  502 -0.23455867304E+02  0.48997633895E+02 -0.22490448254E+02  0.58942671309E+02  0.41800000000E+01 0. -1.
        -11    1    3    3    0    0 -0.11378551250E+02  0.16402156197E+02  0.85629841915E+02  0.87925946016E+02  0.00000000000E+00 0. -1.
         11    1    3    3    0    0  0.61624100854E+01 -0.24389684025E+02 -0.16734496402E+02  0.30213827211E+02  0.00000000000E+00 0.  1.
</event>
<event>
 7    1  0.4687179E-006  0.1067466E+03  0.7561462E-02  0.1266716E+00
          2   -1    0    0  501    0  0.00000000000E+00  0.00000000000E+00  0.23164532560E+03  0.23164532560E+03  0.00000000000E+00 0. -1.
         -2   -1    0    0    0  501 -0.00000000000E+00 -0.00000000000E+00 -0.64061368785E+02  0.64061368785E+02  0.00000000000E+00 0.  1.
         23    2    1    2    0    0  0.36568241180E+02  0.35476527979E+02  0.10096253162E+03  0.14508252036E+03  0.90882807087E+02 0.  0.
          5    1    1    2  502    0  0.25490111734E+02 -0.61991294001E+02  0.28038200451E+02  0.72775541308E+02  0.41800000000E+01 0. -1.
         -5    1    1    2    0  502 -0.62058352914E+02  0.26514766022E+02  0.38583224748E+02  0.77848632715E+02  0.41800000000E+01 0. -1.
        -11    1    3    3    0    0  0.38201524516E+02  0.50660421577E+02  0.25982838906E+02  0.68563421059E+02  0.00000000000E+00 0.  1.
         11    1    3    3    0    0 -0.16332833357E+01 -0.15183893598E+02  0.74979692712E+02  0.76519099305E+02  0.00000000000E+00 0. -1.
</event>
<event>
 7    1  0.4687179E-006  0.1140462E+03  0.7561462E-02  0.1253255E+00
         -1   -1    0    0    0  501 -0.00000000000E+00  0.00000000000E+00  0.88160933105E+03  0.88160933105E+03  0.00000000000E+00 0.  1.
          1   -1    0    0  501    0  0.00000000000E+00 -0.00000000000E+00 -0.17871897835E+02  0.17871897835E+02  0.00000000000E+00 0. -1.
         23    2    1    2    0    0  0.23964875272E+02 -0.38942909574E+02  0.20889228287E+03  0.23258586493E+03  0.91484060199E+02 0.  0.
          5    1    1    2  502    0 -0.21272358489E+02  0.80995236858E+02  0.43935453285E+03  0.44728360083E+03  0.41800000000E+01 0. -1.
         -5    1    1    2    0  502 -0.26925167828E+01 -0.42052327284E+02  0.21549061749E+03  0.21961176312E+03  0.41800000000E+01 0.  1.
        -11    1    3    3    0    0 -0.33752306817E+02 -0.26364765364E+02  0.78104889902E+02  0.89076893158E+02  0.00000000000E+00 0.  1.
         11    1    3    3    0    0  0.57717182089E+02 -0.12578144210E+02  0.13078739297E+03  0.14350897178E+03  0.00000000000E+00 0. -1.
</event>
<event>
 7    1  0.4687179E-006  0.1214313E+03  0.7561462E-02  0.1240754E+00
         -2   -1    0    0    0  501 -0.00000000000E+00  0.00000000000E+00  0.42589489527E+03  0.42589489527E+03  0.00000000000E+00 0.  1.
          2   -1    0    0  501    0  0.00000000000E+00 -0.00000000000E+00 -0.48614574401E+02  0.48614574401E+02  0.00000000000E+00 0. -1.
         23    2    1    2    0    0  0.31160556995E+02 -0.77746892981E+02  0.10042537218E+03  0.15937188244E+03  0.91096552374E+02 0.  0.
          5    1    1    2  502    0 -0.32166460594E+02  0.98006625096E+02  0.27570036725E+03  0.29439453910E+03  0.41800000000E+01 0. -1.
         -5    1    1    2    0  502  0.10059035993E+01 -0.20259732115E+02  0.11545814353E+01  0.20743048130E+02  0.41800000000E+01 0. -1.
        -11    1    3    3    0    0  0.47292893752E+02 -0.87962213485E+01  0.63037229981E+02  0.79294915809E+02  0.00000000000E+00 0.  1.
         11    1    3    3    0    0 -0.16132336757E+02 -0.68950671632E+02  0.37388142202E+02  0.80076966633E+02  0.00000000000E+00 0. -1.
</event>
<event>
 7    1  0.4687179E-006  0.8144878E+02  0.7561462E-02  0.1324990E+00
          1   -1    0    0  501    0  0.00000000000E+00  0.00000000000E+00  0.37001941305E+03  0.37001941305E+03  0.00000000000E+00 0. -1.
         -1   -1    0    0    0  501 -0.00000000000E+00 -0.00000000000E+00 -0.36371932466E+02  0.36371932466E+02  0.00000000000E+00 0.  1.
         23    2    1    2    0    0 -0.36945062892E+02  0.40762353391E+01  0.17178199269E+03  0.19856331909E+03  0.92394725544E+02 0.  0.
          5    1    1    2  502    0 -0.42125586036E+01  0.22127850287E+02  0.15694835695E+03  0.15861162176E+03  0.41800000000E+01 0.  1.
         -5    1    1    2    0  502  0.41157621495E+02 -0.26204085626E+02  0.49171309343E+01  0.49216404656E+02  0.41800000000E+01 0.  1.
        -11    1    3    3    0    0 -0.24164190392E+02  0.43397449543E+02  0.52294967423E+02  0.72124963375E+02  0.00000000000E+00 0.  1.
         11    1    3    3    0    0 -0.12780872500E+02 -0.39321214204E+02  0.11948702527E+03  0.12643835571E+03  0.00000000000E+00 0. -1.
</event>
<event>
 7    1  0.4687179E-006  0.9966820E+02  0.7561462E-02  0.1280995E+00
         -2   -1    0    0    0  501 -0.00000000000E+00  0.00000000000E+00  0.79591113711E+03  0.79591113711E+03  0.00000000000E+00 0.  1.
          2   -1    0    0  501    0  0.00000000000E+00 -0.00000000000E+00 -0.17852465612E+02  0.17852465612E+02  0.00000000000E+00 0. -1.
         23    2    1    2    0    0  0.30811845566E+02  0.53239217679E+02  0.31605125406E+03  0.33469162884E+03  0.91358125506E+02 0.  0.
          5    1    1    2  502    0 -0.23587324873E+02 -0.73171770518E+02  0.17422193174E+03  0.19047630770E+03  0.41800000000E+01 0. -1.
         -5    1    1    2    0  502 -0.72245206933E+01  0.19932552839E+02  0.28778548570E+03  0.28859566619E+03  0.41800000000E+01 0.  1.
        -11    1    3    3    0    0  0.18000393916E+02 -0.19695716832E+02  0.15694301232E+03  0.15919498912E+03  0.00000000000E+00 0. -1.
         11    1    3    3    0    0  0.12811451650E+02  0.72934934511E+02  0.15910824174E+03  0.17549663973E+03  0.00000000000E+00 0.  1.
</event>
<event>
 7    1  0.4687179E-006  0.1466107E+03  0.7561462E-02  0.1204701E+00
          3   -1    0    0  501    0  0.00000000000E+00  0.00000000000E+00  0.70027157320E+03  0.70027157320E+03  0.00000000000E+00 0. -1.
         -3   -1    0    0    0  501 -0.00000000000E+00 -0.00000000000E+00 -0.41227844754E+02  0.41227844754E+02  0.00000000000E+00 0.  1.
         23    2    1    2    0    0  0.55817131722E+02 -0.98183998741E+02  0.47203108927E+03  0.49382970741E+03  0.91097644750E+02 0.  0.
          5    1    1    2  502    0  0.35486052508E+02  0.23090431615E+02  0.35232670476E+02  0.55238043264E+02  0.41800000000E+01 0. -1.
         -5    1    1    2    0  502 -0.91303184230E+02  0.75093567127E+02  0.15177996870E+03  0.19243166728E+03  0.41800000000E+01 0.  1.
        -11    1    3    3    0    0 -0.16476742477E+02 -0.19680518016E+02  0.31895214117E+02  0.40940328719E+02  0.00000000000E+00 0.  1.
         11    1    3    3    0    0  0.72293874199E+02 -0.78503480725E+02  0.44013587516E+03  0.45288937869E+03  0.00000000000E+00 0. -1.
</event>
<event>
 7    1  0.4687179E-006  0.9150334E+02  0.7561462E-02  0.1299251E+00
          2   -1    0    0  501    0  0.00000000000E+00  0.00000000000E+00  0.49621740696E+03  0.49621740696E+03  0.00000000000E+00 0. -1.
         -2   -1    0    0    0  501 -0.00000000000E+00 -0.00000000000E+00 -0.51382498683E+02  0.51382498683E+02  0.00000000000E+00 0.  1.
         23    2    1    2    0    0  0.22414354502E+02 -0.67744685031E+02  0.38365994868E+03  0.40060177494E+03  0.90526682399E+02 0.  0.
          5    1    1    2  502    0 -0.26207756021E+01  0.12019651948E+02  0.82860414194E+02  0.83872886787E+02  0.41800000000E+01 0. -1.
         -5    1    1    2    0  502 -0.19793578900E+02  0.55725033082E+02 -0.21685454600E+02  0.63125243912E+02  0.41800000000E+01 0.  1.
        -11    1    3    3    0    0 -0.52642795781E+01 -0.80204120775E+02  0.22166435801E+03  0.23578698277E+03  0.00000000000E+00 0. -1.
         11    1    3    3    0    0  0.27678634080E+02  0.12459435745E+02  0.16199559067E+03  0.16481479217E+03  0.00000000000E+00 0.  1.
</event>
<event>
 7    1  0.4687179E-006  0.9666871E+02  0.7561462E-02  0.1287461E+00
         -2   -1    0    0    0  501 -0.00000000000E+00  0.00000000000E+00  0.24683428704E+03  0.24683428704E+03  0.00000000000E+00 0. -1.
          2   -1    0    0  501    0  0.00000000000E+00 -0.00000000000E+00 -0.10855502954E+03  0.10855502954E+03  0.00000000000E+00 0.  1.
         23    2    1    2    0    0  0.53670330609E+02  0.61209186018E+02 -0.35997456272E+02  0.12594004000E+03  0.89095499191E+02 0.  0.
          5    1    1    2  502    0 -0.11744977144E+02 -0.30226989378E+02 -0.12865399236E+02  0.35136964474E+02  0.41800000000E+01 0.  1.
         -5    1    1    2    0  502 -0.41925353465E+02 -0.30982196640E+02  0.18714211301E+03  0.19431231210E+03  0.41800000000E+01 0.  1.
        -11    1    3    3    0    0  0.37948154078E+02 -0.67885829314E+01 -0.40612713784E+02  0.55995890716E+02  0.00000000000E+00 0.  1.
         11    1    3    3    0    0  0.15722176531E+02  0.67997768949E+02  0.46152575118E+01  0.69944149283E+02  0.00000000000E+00 0. -1.
</event>
<event>
 7    1  0.4687179E-006  0.1094846E+03  0.7561462E-02  0.1261527E+00
          2   -1    0    0  501    0  0.00000000000E+00  0.00000000000E+00  0.93666372864E+03  0.93666372864E+03  0.00000000000E+00 0. -1.
         -2   -1    0    0    0  501 -0.00000000000E+00 -0.00000000000E+00 -0.14612743452E+02  0.14612743452E+02  0.00000000000E+00 0.  1.
         23    2    1    2    0    0 -0.27108433708E+02  0.33460096837E+02  0.43113604367E+03  0.44284787695E+03  0.91550580044E+02 0.  0.
          5    1    1    2  502    0  0.70202482214E+02 -0.20492612865E+02  0.40271488749E+03  0.40932271950E+03  0.41800000000E+01 0.  1.
         -5    1    1    2    0  502 -0.43094048506E+02 -0.12967483972E+02  0.88200054022E+02  0.99105875641E+02  0.41800000000E+01 0.  1.
        -11    1    3    3    0    0 -0.50873068033E+02 -0.91903944310E+01  0.24673460804E+03  0.25209224344E+03  0.00000000000E+00 0. -1.
         11    1    3    3    0    0  0.23764634325E+02  0.42650491268E+02  0.18440143563E+03  0.19075563350E+03  0.00000000000E+00 0.  1.
</event>
<event>
 7    1  0.4687179E-006  0.1026644E+03  0.7561462E-02  0.1274791E+00
         -2   -1    0    0    0  501 -0.00000000000E+00  0.00000000000E+00  0.32861898448E+02  0.32861898448E+02  0.00000000000E+00 0. -1.
          2   -1    0    0  501    0  0.00000000000E+00 -0.00000000000E+00 -0.67016435822E+03  0.67016435822E+03  0.00000000000E+00 0.  1.
         23    2    1    2    0    0 -0.88823059601E+02  0.13942271809E+02 -0.40241874624E+03  0.42213530211E+03  0.90407096507E+02 0.  0.
          5    1    1    2  502    0  0.22756702854E+02  0.15154300573E+02 -0.19761480393E+03  0.19954098197E+03  0.41800000000E+01 0. -1.
         -5    1    1    2    0  502  0.66066356746E+02 -0.29096572382E+02 -0.37268909592E+02  0.81349972589E+02  0.41800000000E+01 0. -1.
        -11    1    3    3    0    0 -0.51947021269E+02 -0.19589045818E+02 -0.32736650239E+03  0.33204073639E+03  0.00000000000E+00 0.  1.
         11    1    3    3    0    0 -0.36876038331E+02  0.33531317626E+02 -0.75052243850E+02  0.90094565717E+02  0.00000000000E+00 0. -1.
</event>
<event>
 7    1  0.4687179E-006  0.9410377E+02  0.7561462E-02  0.1293207E+00
         -2   -1    0    0    0  501 -0.00000000000E+00  0.00000000000E+00  0.23019187189E+03  0.23019187189E+03  0.00000000000E+00 0.  1.
          2   -1    0    0  501    0  0.00000000000E+00 -0.00000000000E+00 -0.74547617216E+02  0.74547617216E+02  0.00000000000E+00 0. -1.
         23    2    1    2    0    0 -0.53973480461E+02  0.33911756489E+02  0.27146266148E+02  0.11442114083E+03  0.91061154631E+02 0.  0.
          5    1    1    2  502    0  0.26980885866E+02 -0.68957659904E+02  0.25978662189E+02  0.78584288193E+02  0.41800000000E+01 0. -1.
         -5    1    1    2    0  502  0.26992594595E+02  0.35045903415E+02  0.10251932633E+03  0.11173406008E+03  0.41800000000E+01 0. -1.
        -11    1    3    3    0    0 -0.21685179997E+02  0.30097261989E+02 -0.30641878273E+02  0.48114622672E+02  0.00000000000E+00 0. -1.
         11    1    3    3    0    0 -0.32288300464E+02  0.38144945003E+01  0.57788144421E+02  0.66306518162E+02  0.00000000000E+00 0.  1.
</event>
<event>
 7    1  0.4687179E-006  0.1961846E+03  0.7561462E-02  0.1152999E+00
         -1   -1    0    0    0  501 -0.00000000000E+00  0.00000000000E+00  0.66655197434E+03  0.66655197434E+03  0.00000000000E+00 0.  1.
          1   -1    0    0  501    0  0.00000000000E+00 -0.00000000000E+00 -0.81681560344E+02  0.81681560344E+02  0.00000000000E+00 0. -1.
         23    2    1    2    0    0  0.11078967118E+03  0.12467277272E+03  0.88302076157E+02  0.20967533650E+03  0.91371979218E+02 0.  0.
          5    1    1    2  502    0 -0.56234067465E+02  0.14890336772E+02  0.15130192454E+03  0.16215343734E+03  0.41800000000E+01 0.  1.
         -5    1    1    2    0  502 -0.54555603713E+02 -0.13956310950E+03  0.34526641331E+03  0.37640476084E+03  0.41800000000E+01 0.  1.
        -11    1    3    3    0    0 -0.88135344369E+01  0.30981873027E+02 -0.31161545398E+01  0.32361478097E+02  0.00000000000E+00 0. -1.
         11    1    3    3    0    0  0.11960320562E+03  0.93690899696E+02  0.91418230697E+02  0.17731385841E+03  0.00000000000E+00 0.  1.
</event>
<event>
 7    1  0.4687179E-006  0.1162688E+03  0.7561462E-02  0.1249382E+00
          1   -1    0    0  501    0  0.00000000000E+00  0.00000000000E+00  0.35678529683E+02  0.35678529683E+02  0.00000000000E+00 0. -1.
         -1   -1    0    0    0  501 -0.00000000000E+00 -0.00000000000E+00 -0.66879455622E+03  0.66879455622E+03  0.00000000000E+00 0.  1.
         23    2    1    2    0    0  0.93286929059E+02  0.86023817445E+01 -0.16031840613E+03  0.20651599973E+03  0.90390346240E+02 0.  0.
          5    1    1    2  502    0 -0.13112109814E+02  0.19761201848E+02 -0.79261094094E+01  0.25352083398E+02  0.41800000000E+01 0.  1.
         -5    1    1    2    0  502 -0.80174819245E+02 -0.28363583593E+02 -0.46487151100E+03  0.47260500278E+03  0.41800000000E+01 0.  1.
        -11    1    3    3    0    0  0.93682627807E+02  0.32687385766E+02 -0.96949138436E+02  0.13872287261E+03  0.00000000000E+00 0. -1.
         11    1    3    3    0    0 -0.39569874807E+00 -0.24085004021E+02 -0.63369267697E+02  0.67793127119E+02  0.00000000000E+00 0.  1.
</event>
<event>
 7    1  0.4687179E-006  0.8139866E+02  0.7561462E-02  0.1325128E+00
          1   -1    0    0  501    0  0.00000000000E+00  0.00000000000E+00  0.30778355968E+02  0.30778355968E+02  0.00000000000E+00 0. -1.
         -1   -1    0    0    0  501 -0.00000000000E+00 -0.00000000000E+00 -0.39793806777E+03  0.39793806777E+03  0.00000000000E+00 0.  1.
         23    2    1    2    0    0 -0.13558534200E+02  0.11563143549E+02 -0.12678291460E+03  0.15715336313E+03  0.91135788642E+02 0.  0.
          5    1    1    2  502    0 -0.74539275290E+01  0.36300754597E+02 -0.15051396546E+02  0.40215951535E+02  0.41800000000E+01 0. -1.
         -5    1    1    2    0  502  0.21012461729E+02 -0.47863898146E+02 -0.22532540066E+03  0.23134710907E+03  0.41800000000E+01 0. -1.
        -11    1    3    3    0    0  0.21986462460E+02 -0.16734635721E+02 -0.62315535143E+01  0.28324632803E+02  0.00000000000E+00 0. -1.
         11    1    3    3    0    0 -0.35544996660E+02  0.28297779270E+02 -0.12055136108E+03  0.12882873033E+03  0.00000000000E+00 0.  1.
</event>
<event>
 7    1  0.4687179E-006  0.8544560E+02  0.7561462E-02  0.1314271E+00
          1   -1    0    0  501    0  0.00000000000E+00  0.00000000000E+00  0.61302840277E+02  0.61302840277E+02  0.00000000000E+00 0. -1.
         -1   -1    0    0    0  501 -0.00000000000E+00 -0.00000000000E+00 -0.22026664845E+03  0.22026664845E+03  0.00000000000E+00 0.  1.
         23    2    1    2    0    0 -0.17544371571E+02 -0.15820063247E+02 -0.23749623229E+02  0.94424815516E+02  0.88283190964E+02 0.  0.
          5    1    1    2  502    0  0.19779080630E+02  0.57733208749E+02 -0.13121787881E+03  0.14477547977E+03  0.41800000000E+01 0. -1.
         -5    1    1    2    0  502 -0.22347090598E+01 -0.41913145502E+02 -0.39963061388E+01  0.42369193445E+02  0.41800000000E+01 0.  1.
        -11    1    3    3    0    0 -0.37638711083E+02 -0.25270278408E+02 -0.44865486632E+02  0.63782218788E+02  0.00000000000E+00 0.  1.
         11    1    3    3    0    0  0.20094339512E+02  0.94502151604E+01  0.21115863403E+02  0.30642596728E+02  0.00000000000E+00 0. -1.
</event>
<event>
 7    1  0.5479095E-006  0.2653694E+03  0.7561462E-02  0.1103959E+00
          2   -1    0    0  501    0  0.00000000000E+00  0.00000000000E+00  0.96829005337E+03  0.96829005337E+03  0.00000000000E+00 0. -1.
         -2   -1    0    0    0  501 -0.00000000000E+00 -0.00000000000E+00 -0.76609802804E+02  0.76609802804E+02  0.00000000000E+00 0.  1.
         23    2    1    2    0    0  0.44709523620E+02  0.24257213750E+03  0.43979800277E+03  0.51510297868E+03  0.10520747130E+03 0.  0.
          5    1    1    2  502    0  0.41850219920E+02 -0.95061160568E+02  0.14440587634E+03  0.17792862243E+03  0.41800000000E+01 0. -1.
         -5    1    1    2    0  502 -0.86559743540E+02 -0.14751097694E+03  0.30747637146E+03  0.35186825506E+03  0.41800000000E+01 0. -1.
        -11    1    3    3    0    0  0.62745938851E+02  0.18258574573E+03  0.38966629113E+03  0.43487288468E+03  0.00000000000E+00 0.  1.
         11    1    3    3    0    0 -0.18036415231E+02  0.59986391777E+02  0.50131711639E+02  0.80230094008E+02  0.00000000000E+00 0. -1.
</event>
<event>
 7    1  0.4687179E-006  0.8768590E+02  0.7561462E-02  0.1308554E+00
          1   -1    0    0  501    0  0.00000000000E+00  0.00000000000E+00  0.25977161029E+03  0.25977161029E+03  0.00000000000E+00 0. -1.
         -1   -1    0    0    0  501 -0.00000000000E+00 -0.00000000000E+00 -0.58522537491E+02  0.58522537491E+02  0.00000000000E+00 0.  1.
         23    2    1    2    0    0  0.40717367512E+02 -0.33148643165E+01  0.14363460876E+03  0.17464329205E+03  0.90556536389E+02 0.  0.
          5    1    1    2  502    0  0.26190883555E+02  0.11148632145E+02 -0.24195776475E+02  0.37592052077E+02  0.41800000000E+01 0.  1.
         -5    1    1    2    0  502 -0.66908251067E+02 -0.78337678281E+01  0.81810240516E+02  0.10605880365E+03  0.41800000000E+01 0.  1.
        -11    1    3    3    0    0 -0.16129190473E+02  0.12150833178E+02  0.88331486472E+00  0.20213207993E+02  0.00000000000E+00 0.  1.
         11    1    3    3    0    0  0.56846557985E+02 -0.15465697495E+02  0.14275129390E+03  0.15443008406E+03  0.00000000000E+00 0. -1.
</event>
<event>
 7    1  0.4687179E-006  0.6407160E+02  0.7561462E-02  0.1381498E+00
          1   -1    0    0  501    0  0.00000000000E+00  0.00000000000E+00  0.13433057048E+03  0.13433057048E+03  0.00000000000E+00 0. -1.
         -1   -1    0    0    0  501 -0.00000000000E+00 -0.00000000000E+00 -0.83376964499E+02  0.83376964499E+02  0.00000000000E+00 0.  1.
         23    2    1    2    0    0  0.25623486181E+02 -0.32343689366E+01  0.53452817581E+02  0.89949810457E+02  0.67577662784E+02 0.  0.
          5    1    1    2  502    0  0.24273884908E+02  0.16025790020E+02  0.47496646489E+02  0.55852047966E+02  0.41800000000E+01 0. -1.
         -5    1    1    2    0  502 -0.49897371090E+02 -0.12791421084E+02 -0.49995858088E+02  0.71905676556E+02  0.41800000000E+01 0. -1.
        -11    1    3    3    0    0 -0.27193145788E+01  0.13762607657E+02 -0.10794323445E+02  0.17700888677E+02  0.00000000000E+00 0.  1.
         11    1    3    3    0    0  0.28342800760E+02 -0.16996976594E+02  0.64247141027E+02  0.72248921780E+02  0.00000000000E+00 0. -1.
</event>
<event>
 7    1  0.4687179E-006  0.1770711E+03  0.7561462E-02  0.1170668E+00
         -1   -1    0    0    0  501 -0.00000000000E+00  0.00000000000E+00  0.33837484775E+03  0.33837484775E+03  0.00000000000E+00 0.  1.
          1   -1    0    0  501    0  0.00000000000E+00 -0.00000000000E+00 -0.10349702238E+03  0.10349702238E+03  0.00000000000E+00 0. -1.
         23    2    1    2    0    0 -0.70727250595E+02 -0.13918251574E+03  0.10897103522E+03  0.20549662831E+03  0.77330854534E+02 0.  0.
          5    1    1    2  502    0  0.85417863141E+02  0.14618542457E+03  0.79643011185E+02  0.18715467222E+03  0.41800000000E+01 0. -1.
         -5    1    1    2    0  502 -0.14690612546E+02 -0.70029088308E+01  0.46263778962E+02  0.49220569612E+02  0.41800000000E+01 0. -1.
        -11    1    3    3    0    0 -0.71647532617E+02 -0.74766501737E+02  0.92857127098E+02  0.13908934095E+03  0.00000000000E+00 0.  1.
         11    1    3    3    0    0  0.92028202232E+00 -0.64416014006E+02  0.16113908122E+02  0.66407287359E+02  0.00000000000E+00 0. -1.
</event>
<event>
 7    1  0.4687179E-006  0.1648959E+03  0.7561462E-02  0.1183278E+00
         -2   -1    0    0    0  501 -0.00000000000E+00  0.00000000000E+00  0.16382121101E+03  0.16382121101E+03  0.00000000000E+00 0.  1.
          2   -1    0    0  501    0  0.00000000000E+00 -0.00000000000E+00 -0.26771080922E+03  0.26771080922E+03  0.00000000000E+00 0. -1.
         23    2    1    2    0    0  0.15088701910E+03 -0.20205228952E+02 -0.14728873156E+03  0.22978078782E+03  0.89051087563E+02 0.  0.
          5    1    1    2  502    0 -0.12688569762E+03  0.26575426292E+02  0.83600838829E+02  0.15431398574E+03  0.41800000000E+01 0. -1.
         -5    1    1    2    0  502 -0.24001321485E+02 -0.63701973405E+01 -0.40201705486E+02  0.47437246665E+02  0.41800000000E+01 0. -1.
        -11    1    3    3    0    0  0.73027488060E+02 -0.53190743579E+02 -0.90799969433E+02  0.12808943619E+03  0.00000000000E+00 0.  1.
         11    1    3    3    0    0  0.77859531044E+02  0.32985514627E+02 -0.56488762126E+02  0.10169135163E+03  0.00000000000E+00 0. -1.
</event>
<event>
 7    1  0.4687179E-006  0.1446620E+03  0.7561462E-02  0.1207190E+00
         -1   -1    0    0    0  501 -0.00000000000E+00  0.00000000000E+00  0.76405471334E+02  0.76405471334E+02  0.00000000000E+00 0.  1.
          1   -1    0    0  501    0  0.00000000000E+00 -0.00000000000E+00 -0.38167756512E+03  0.38167756512E+03  0.00000000000E+00 0. -1.
         23    2    1    2    0    0 -0.41771984405E+02  0.85578075200E+02 -0.26265093816E+03  0.29519422656E+03  0.95318468528E+02 0.  0.
          5    1    1    2  502    0  0.31060338439E+02  0.28170516762E+02 -0.18608934500E+02  0.46066120759E+02  0.41800000000E+01 0. -1.
         -5    1    1    2    0  502  0.10711645966E+02 -0.11374859196E+03 -0.24012221125E+02  0.11682268913E+03  0.41800000000E+01 0. -1.
        -11    1    3    3    0    0  0.28533144782E+02  0.39758716917E+02 -0.12144457227E+03  0.13093387665E+03  0.00000000000E+00 0. -1.
         11    1    3    3    0    0 -0.70305129187E+02  0.45819358283E+02 -0.14120636589E+03  0.16426034991E+03  0.00000000000E+00 0.  1.
</event>
<event>
 7    1  0.4687179E-006  0.1312848E+03  0.7561462E-02  0.1225562E+00
          2   -1    0    0  501    0  0.00000000000E+00  0.00000000000E+00  0.20280757125E+03  0.20280757125E+03  0.00000000000E+00 0.  1.
         -2   -1    0    0    0  501 -0.00000000000E+00 -0.00000000000E+00 -0.10142464682E+03  0.10142464682E+03  0.00000000000E+00 0. -1.
         23    2    1    2    0    0  0.43266252719E+02  0.83710094865E+02  0.71821722885E+02  0.14482601076E+03  0.83287843693E+02 0.  0.
          5    1    1    2  502    0  0.26712069916E+02  0.10274029589E+02 -0.16656114860E+02  0.33376472633E+02  0.41800000000E+01 0.  1.
         -5    1    1    2    0  502 -0.69978322634E+02 -0.93984124455E+02  0.46217316400E+02  0.12602973468E+03  0.41800000000E+01 0.  1.
        -11    1    3    3    0    0 -0.90727037444E+01  0.56846986673E+02  0.81568080021E+01  0.58141442739E+02  0.00000000000E+00 0. -1.
         11    1    3    3    0    0  0.52338956463E+02  0.26863108192E+02  0.63664914882E+02  0.86684568018E+02  0.00000000000E+00 0.  1.
</event>
<event>
 7    1  0.4687179E-006  0.1259643E+03  0.7561462E-02  0.1233570E+00
          3   -1    0    0  501    0  0.00000000000E+00  0.00000000000E+00  0.25405511625E+03  0.25405511625E+03  0.00000000000E+00 0. -1.
         -3   -1    0    0    0  501 -0.00000000000E+00 -0.00000000000E+00 -0.86273707591E+02  0.86273707591E+02  0.00000000000E+00 0.  1.
         23    2    1    2    0    0  0.91726493040E+02 -0.15594145851E+02  0.13314541089E+03  0.18062913745E+03  0.79007961267E+02 0.  0.
          5    1    1    2  502    0 -0.25340643219E+02 -0.38010978360E+02  0.55256681978E+02  0.71817518600E+02  0.41800000000E+01 0. -1.
         -5    1    1    2    0  502 -0.66385849822E+02  0.53605124211E+02 -0.20620684212E+02  0.87882167791E+02  0.41800000000E+01 0. -1.
        -11    1    3    3    0    0  0.33167976375E+02 -0.44355474514E+02  0.75031219864E+02  0.93258815833E+02  0.00000000000E+00 0. -1.
         11    1    3    3    0    0  0.58558516665E+02  0.28761328663E+02  0.58114191028E+02  0.87370321616E+02  0.00000000000E+00 0.  1.
</event>
<event>
 7    1  0.4687179E-006  0.1306747E+03  0.7561462E-02  0.1226458E+00
          1   -1    0    0  501    0  0.00000000000E+00  0.00000000000E+00  0.32703253203E+03  0.32703253203E+03  0.00000000000E+00 0. -1.
         -1   -1    0    0    0  501 -0.00000000000E+00 -0.00000000000E+00 -0.82625351355E+02  0.82625351355E+02  0.00000000000E+00 0.  1.
         23    2    1    2    0    0  0.23820489451E+02 -0.98535778971E+02  0.20189774566E+03  0.24313026608E+03  0.89849380208E+02 0.  0.
          5    1    1    2  502    0 -0.52453830211E+02  0.51319122525E+02 -0.26421842261E+02  0.78106611686E+02  0.41800000000E+01 0.  1.
         -5    1    1    2    0  502  0.28633340759E+02  0.47216656446E+02  0.68931277277E+02  0.88421005627E+02  0.41800000000E+01 0.  1.
        -11    1    3    3    0    0 -0.28906994103E+02 -0.12351843671E+02  0.28430786981E+02  0.42385044515E+02  0.00000000000E+00 0.  1.
         11    1    3    3    0    0  0.52727483554E+02 -0.86183935300E+02  0.17346695868E+03  0.20074522156E+03  0.00000000000E+00 0. -1.
</event>
<event>
 7    1  0.4687179E-006  0.9271184E+02  0.7561462E-02  0.1296414E+00
          4   -1    0    0  501    0  0.00000000000E+00  0.00000000000E+00  0.12224778825E+03  0.12224778825E+03  0.00000000000E+00 0. -1.
         -4   -1    0    0    0  501 -0.00000000000E+00 -0.00000000000E+00 -0.10747121258E+03  0.10747121258E+03  0.00000000000E+00 0.  1.
         23    2    1    2    0    0  0.24116024652E+02 -0.13012247461E+02  0.28274494554E+02  0.10103865370E+03  0.93050853137E+02 0.  0.
          5    1    1    2  502    0 -0.37012707872E+02  0.44673957211E+02  0.35980748360E+02  0.68394368551E+02  0.41800000000E+01 0. -1.
         -5    1    1    2    0  502  0.12896683221E+02 -0.31661709750E+02 -0.49478667238E+02  0.60285978586E+02  0.41800000000E+01 0. -1.
        -11    1    3    3    0    0  0.57399047899E+02 -0.92480992331E+00  0.31501967206E+02  0.65481905217E+02  0.00000000000E+00 0. -1.
         11    1    3    3    0    0 -0.33283023247E+02 -0.12087437538E+02 -0.32274726519E+01  0.35556748479E+02  0.00000000000E+00 0.  1.
</event>
<event>
 7    1  0.4687179E-006  0.9393241E+02  0.7561462E-02  0.1293599E+00
          1   -1    0    0  501    0  0.00000000000E+00  0.00000000000E+00  0.27060469221E+03  0.27060469221E+03  0.00000000000E+00 0. -1.
         -1   -1    0    0    0  501 -0.00000000000E+00 -0.00000000000E+00 -0.45471451294E+02  0.45471451294E+02  0.00000000000E+00 0.  1.
         23    2    1    2    0    0 -0.92813849671E+01  0.14324304149E+02  0.12175258033E+03  0.15290091754E+03  0.90904730194E+02 0.  0.
          5    1    1    2  502    0  0.59850069519E+02 -0.37114175265E+02  0.54978480663E+02  0.89440474971E+02  0.41800000000E+01 0.  1.
         -5    1    1    2    0  502 -0.50568684552E+02  0.22789871116E+02  0.48402179928E+02  0.73734750997E+02  0.41800000000E+01 0.  1.
        -11    1    3    3    0    0  0.27862093880E+01 -0.22638983335E+02  0.10991326277E+03  0.11225511953E+03  0.00000000000E+00 0. -1.
         11    1    3    3    0    0 -0.12067594355E+02  0.36963287484E+02  0.11839317558E+02  0.40645798004E+02  0.00000000000E+00 0.  1.
</event>
<event>
 7    1  0.4687179E-006  0.1622508E+03  0.7561462E-02  0.1186179E+00
         -2   -1    0    0    0  501 -0.00000000000E+00  0.00000000000E+00  0.20439956967E+03  0.20439956967E+03  0.00000000000E+00 0. -1.
          2   -1    0    0  501    0  0.00000000000E+00 -0.00000000000E+00 -0.15523704628E+03  0.15523704628E+03  0.00000000000E+00 0.  1.
         23    2    1    2    0    0 -0.12776042302E+03 -0.43115051903E+02 -0.16977123758E+02  0.16417669067E+03  0.92109335244E+02 0.  0.
          5    1    1    2  502    0  0.79930912160E+02  0.87431132001E+02  0.40315233526E+02  0.12520361024E+03  0.41800000000E+01 0. -1.
         -5    1    1    2    0  502  0.47829510855E+02 -0.44316080098E+02  0.25824413621E+02  0.70256315039E+02  0.41800000000E+01 0. -1.
        -11    1    3    3    0    0 -0.20800724500E+02 -0.24367138816E+02 -0.41917651136E+02  0.52759047286E+02  0.00000000000E+00 0.  1.
         11    1    3    3    0    0 -0.10695969852E+03 -0.18747913087E+02  0.24940527378E+02  0.11141764339E+03  0.00000000000E+00 0. -1.
</event>
<event>
 7    1  0.4687179E-006  0.1568176E+03  0.7561462E-02  0.1192337E+00
         -1   -1    0    0    0  501 -0.00000000000E+00  0.00000000000E+00  0.15910427641E+03  0.15910427641E+03  0.00000000000E+00 0.  1.
          1   -1    0    0  501    0  0.00000000000E+00 -0.00000000000E+00 -0.18911666106E+03  0.18911666106E+03  0.00000000000E+00 0. -1.
         23    2    1    2    0    0 -0.14620471687E+02  0.12422442392E+03 -0.65473867759E+02  0.16780363604E+03  0.90696015456E+02 0.  0.
          5    1    1    2  502    0 -0.53710519452E+02 -0.34247987810E+02  0.13147577970E+02  0.65177264251E+02  0.41800000000E+01 0. -1.
         -5    1    1    2    0  502  0.68330991138E+02 -0.89976436109E+02  0.22313905140E+02  0.11524003717E+03  0.41800000000E+01 0. -1.
        -11    1    3    3    0    0  0.27162014024E+00  0.12162040165E+03 -0.24411198647E+02  0.12404637235E+03  0.00000000000E+00 0.  1.
         11    1    3    3    0    0 -0.14892091827E+02  0.26040222700E+01 -0.41062669112E+02  0.43757263689E+02  0.00000000000E+00 0. -1.
</event>
<event>
 7    1  0.4687179E-006  0.1876807E+03  0.7561462E-02  0.1160570E+00
         -1   -1    0    0    0  501 -0.00000000000E+00  0.00000000000E+00  0.26028965197E+03  0.26028965197E+03  0.00000000000E+00 0.  1.
          1   -1    0    0  501    0  0.00000000000E+00 -0.00000000000E+00 -0.16274665333E+03  0.16274665333E+03  0.00000000000E+00 0. -1.
         23    2    1    2    0    0 -0.52093326367E+02 -0.15361868063E+03 -0.13751119472E+02  0.18991427144E+03  0.97805539318E+02 0.  0.
          5    1    1    2  502    0  0.35176429820E+01  0.13288326896E+03  0.12035824782E+03  0.17937089284E+03  0.41800000000E+01 0.  1.
         -5    1    1    2    0  502  0.48575683385E+02  0.20735411666E+02 -0.90641297044E+01  0.53751141017E+02  0.41800000000E+01 0.  1.
        -11    1    3    3    0    0 -0.81277777347E+02 -0.11896153451E+03 -0.11932759424E+02  0.14456941077E+03  0.00000000000E+00 0.  1.
         11    1    3    3    0    0  0.29184450980E+02 -0.34657146120E+02 -0.18183600480E+01  0.45344860673E+02  0.00000000000E+00 0. -1.
</event>
<event>
 7    1  0.4687179E-006  0.1177177E+03  0.7561462E-02  0.1246910E+00
         -1   -1    0    0    0  501 -0.00000000000E+00  0.00000000000E+00  0.33699712965E+02  0.33699712965E+02  0.00000000000E+00 0.  1.
          1   -1    0    0  501    0  0.00000000000E+00 -0.00000000000E+00 -0.61731492839E+03  0.61731492839E+03  0.00000000000E+00 0. -1.
         23    2    1    2    0    0  0.57646835730E+02  0.29010338242E+02 -0.42275330016E+03  0.43726457506E+03  0.91187709733E+02 0.  0.
          5    1    1    2  502    0  0.32308238933E+02 -0.19309164346E+02 -0.93485978793E+02  0.10086509189E+03  0.41800000000E+01 0. -1.
         -5    1    1    2    0  502 -0.89955074663E+02 -0.97011738955E+01 -0.67375936471E+02  0.11288497441E+03  0.41800000000E+01 0. -1.
        -11    1    3    3    0    0 -0.17369083352E+02 -0.12366568507E+02 -0.43358332487E+02  0.48317306104E+02  0.00000000000E+00 0.  1.
         11    1    3    3    0    0  0.75015919082E+02  0.41376906748E+02 -0.37939496768E+03  0.38894726895E+03  0.00000000000E+00 0. -1.
</event>
<event>
 7    1  0.4687179E-006  0.1220439E+03  0.7561462E-02  0.1239763E+00
         -1   -1    0    0    0  501 -0.00000000000E+00  0.00000000000E+00  0.18840560259E+02  0.18840560259E+02  0.00000000000E+00 0.  1.
          1   -1    0    0  501    0  0.00000000000E+00 -0.00000000000E+00 -0.97823220093E+03  0.97823220093E+03  0.00000000000E+00 0. -1.
         23    2    1    2    0    0 -0.22552047371E+02  0.75125097011E+02 -0.35538679187E+03  0.37528381504E+03  0.91573986242E+02 0.  0.
          5    1    1    2  502    0 -0.15428742701E+02 -0.99820970031E+02 -0.44932564893E+03  0.46055757875E+03  0.41800000000E+01 0. -1.
         -5    1    1    2    0  502  0.37980790073E+02  0.24695873020E+02 -0.15467919987E+03  0.16123136739E+03  0.41800000000E+01 0. -1.
        -11    1    3    3    0    0 -0.96225944490E+01  0.82199389103E+02 -0.34990479829E+03  0.35955903794E+03  0.00000000000E+00 0.  1.
         11    1    3    3    0    0 -0.12929452922E+02 -0.70742920921E+01 -0.54819935757E+01  0.15724777106E+02  0.00000000000E+00 0. -1.
</event>
<event>
 7    1  0.4687179E-006  0.1354361E+03  0.7561462E-02  0.1219605E+00
          2   -1    0    0  501    0  0.00000000000E+00  0.00000000000E+00  0.94021825861E+02  0.94021825861E+02  0.00000000000E+00 0.  1.
         -2   -1    0    0    0  501 -0.00000000000E+00 -0.00000000000E+00 -0.99379703706E+03  0.99379703706E+03  0.00000000000E+00 0. -1.
         23    2    1    2    0    0  0.68674019915E+02  0.53072888877E+02  0.42842390249E+02  0.13298415567E+03  0.91194641908E+02 0.  0.
          5    1    1    2  502    0  0.93214765644E+01  0.30440165684E+02 -0.33626211959E+03  0.33779162081E+03  0.41800000000E+01 0.  1.
         -5    1    1    2    0  502 -0.77995496479E+02 -0.83513054560E+02 -0.60635548185E+03  0.61704308644E+03  0.41800000000E+01 0.  1.
        -11    1    3    3    0    0  0.55924628777E+02 -0.12758952712E+02  0.29917784895E+02  0.64694890302E+02  0.00000000000E+00 0.  1.
         11    1    3    3    0    0  0.12749391138E+02  0.65831841589E+02  0.12924605354E+02  0.68289265371E+02  0.00000000000E+00 0. -1.
</event>
<event>
 7    1  0.4687179E-006  0.1480111E+03  0.7561462E-02  0.1202938E+00
         -4   -1    0    0    0  501 -0.00000000000E+00  0.00000000000E+00  0.78154287340E+02  0.78154287340E+02  0.00000000000E+00 0.  1.
          4   -1    0    0  501    0  0.00000000000E+00 -0.00000000000E+00 -0.40220094338E+03  0.40220094338E+03  0.00000000000E+00 0. -1.
         23    2    1    2    0    0  0.75222201760E+02  0.90892899215E+02 -0.25494775436E+03  0.29504162151E+03  0.90173733448E+02 0.  0.
          5    1    1    2  502    0 -0.10132978378E+03 -0.99225635700E+02 -0.45774584120E+02  0.14908466324E+03  0.41800000000E+01 0.  1.
         -5    1    1    2    0  502  0.26107582025E+02  0.83327364846E+01 -0.23324317558E+02  0.36228945970E+02  0.41800000000E+01 0.  1.
        -11    1    3    3    0    0  0.25383410014E+02  0.32451599374E+01 -0.13922033651E+03  0.14155264273E+03  0.00000000000E+00 0. -1.
         11    1    3    3    0    0  0.49838791745E+02  0.87647739278E+02 -0.11572741785E+03  0.15348897877E+03  0.00000000000E+00 0.  1.
</event>
<event>
 7    1  0.4687179E-006  0.1371101E+03  0.7561462E-02  0.1217271E+00
          1   -1    0    0  501    0  0.00000000000E+00  0.00000000000E+00  0.10457291282E+03  0.10457291282E+03  0.00000000000E+00 0. -1.
         -1   -1    0    0    0  501 -0.00000000000E+00 -0.00000000000E+00 -0.36837837317E+03  0.36837837317E+03  0.00000000000E+00 0.  1.
         23    2    1    2    0    0  0.27165873782E+02  0.12036550119E+03  0.37245965514E+01  0.15287919506E+03  0.90179471543E+02 0.  0.
          5    1    1    2  502    0  0.24227546541E+01 -0.11775036685E+03 -0.26493444718E+03  0.28996336378E+03  0.41800000000E+01 0.  1.
         -5    1    1    2    0  502 -0.29588628436E+02 -0.26151343364E+01 -0.25956097260E+01  0.30108727143E+02  0.41800000000E+01 0.  1.
        -11    1    3    3    0    0  0.32441394512E+02  0.92767696420E+02 -0.35619297981E+02  0.10453240629E+03  0.00000000000E+00 0.  1.
         11    1    3    3    0    0 -0.52755207295E+01  0.27597804770E+02  0.39343894532E+02  0.48346788766E+02  0.00000000000E+00 0. -1.
</event>
<event>
 7    1  0.4687179E-006  0.1181434E+03  0.7561462E-02  0.1246192E+00
         -1   -1    0    0    0  501 -0.00000000000E+00  0.00000000000E+00  0.69099401125E+02  0.69099401125E+02  0.00000000000E+00 0.  1.
          1   -1    0    0  501    0  0.00000000000E+00 -0.00000000000E+00 -0.37768533008E+03  0.37768533008E+03  0.00000000000E+00 0. -1.
         23    2    1    2    0    0  0.97715167986E+02  0.48893489447E+02 -0.20758760539E+03  0.25239339103E+03  0.93118110799E+02 0.  0.
          5    1    1    2  502    0 -0.73986273667E+02 -0.23694665150E+01  0.68825968443E+01  0.74460899820E+02  0.41800000000E+01 0.  1.
         -5    1    1    2    0  502 -0.23728894318E+02 -0.46524022932E+02 -0.10788092041E+03  0.11993044036E+03  0.41800000000E+01 0.  1.
        -11    1    3    3    0    0  0.58940604829E+02  0.23791816854E+02 -0.32642741852E+02  0.71453439683E+02  0.00000000000E+00 0.  1.
         11    1    3    3    0    0  0.38774563156E+02  0.25101672593E+02 -0.17494486354E+03  0.18093995134E+03  0.00000000000E+00 0. -1.
</event>
<event>
 7    1  0.4687179E-006  0.1384944E+03  0.7561462E-02  0.1215369E+00
         -2   -1    0    0    0  501 -0.00000000000E+00  0.00000000000E+00  0.18516632899E+03  0.18516632899E+03  0.00000000000E+00 0.  1.
          2   -1    0    0  501    0  0.00000000000E+00 -0.00000000000E+00 -0.13269745566E+03  0.13269745566E+03  0.00000000000E+00 0. -1.
         23    2    1    2    0    0 -0.92360854926E+02  0.61076765011E+02  0.75266551855E+01  0.14486445653E+03  0.93102961712E+02 0.  0.
          5    1    1    2  502    0  0.35750580201E+01 -0.75349455770E+02  0.90693861286E+01  0.76092362885E+02  0.41800000000E+01 0. -1.
         -5    1    1    2    0  502  0.88785796906E+02  0.14272690759E+02  0.35872832022E+02  0.96906965235E+02  0.41800000000E+01 0. -1.
        -11    1    3    3    0    0 -0.11331073793E+02  0.12800310942E+02  0.41284934979E+02  0.44684304288E+02  0.00000000000E+00 0.  1.
         11    1    3    3    0    0 -0.81029781133E+02  0.48276454069E+02 -0.33758279793E+02  0.10018015224E+03  0.00000000000E+00 0. -1.
</event>
<event>
 7    1  0.4687179E-006  0.1075514E+03  0.7561462E-02  0.1265173E+00
          1   -1    0    0  501    0  0.00000000000E+00  0.00000000000E+00  0.16169504520E+03  0.16169504520E+03  0.00000000000E+00 0. -1.
         -1   -1    0    0    0  501 -0.00000000000E+00 -0.00000000000E+00 -0.11085032582E+03  0.11085032582E+03  0.00000000000E+00 0.  1.
         23    2    1    2    0    0 -0.11377753548E+02  0.59537850299E+02  0.73653891136E+02  0.13169163486E+03  0.90794174477E+02 0.  0.
          5    1    1    2  502    0  0.38517800491E+02 -0.83862658200E+02  0.83035021770E+01  0.92752288077E+02  0.41800000000E+01 0. -1.
         -5    1    1    2    0  502 -0.27140046943E+02  0.24324807901E+02 -0.31112673935E+02  0.48101448075E+02  0.41800000000E+01 0. -1.
        -11    1    3    3    0    0 -0.25309034103E+02  0.43165856720E+00 -0.10925647570E+02  0.27569971185E+02  0.00000000000E+00 0.  1.
         11    1    3    3    0    0  0.13931280554E+02  0.59106191732E+02  0.84579538707E+02  0.10412166368E+03  0.00000000000E+00 0. -1.
</event>
<event>
 7    1  0.4687179E-006  0.4482788E+02  0.7561462E-02  0.1475419E+00
          1   -1    0    0  501    0  0.00000000000E+00  0.00000000000E+00  0.11894460604E+03  0.11894460604E+03  0.00000000000E+00 0. -1.
         -1   -1    0    0    0  501 -0.00000000000E+00 -0.00000000000E+00 -0.13392823857E+03  0.13392823857E+03  0.00000000000E+00 0.  1.
         23    2    1    2    0    0 -0.37777912707E+02 -0.63463400577E+01  0.45385490004E+02  0.10879259810E+03  0.91151192956E+02 0.  0.
          5    1    1    2  502    0  0.23346128775E+02 -0.45221581058E+01 -0.98640732485E+02  0.10155273580E+03  0.41800000000E+01 0.  1.
         -5    1    1    2    0  502  0.14431783932E+02  0.10868498164E+02  0.38271609950E+02  0.42527510719E+02  0.41800000000E+01 0.  1.
        -11    1    3    3    0    0 -0.11990360246E+02 -0.15506145528E+02  0.69565639298E+02  0.72274390063E+02  0.00000000000E+00 0. -1.
         11    1    3    3    0    0 -0.25787552461E+02  0.91598054707E+01 -0.24180149294E+02  0.36518208035E+02  0.00000000000E+00 0.  1.
</event>
<event>
 7    1  0.4687179E-006  0.7311386E+02  0.7561462E-02  0.1349813E+00
          1   -1    0    0  501    0  0.00000000000E+00  0.00000000000E+00  0.81264664027E+03  0.81264664027E+03  0.00000000000E+00 0. -1.
         -1   -1    0    0    0  501 -0.00000000000E+00 -0.00000000000E+00 -0.15083857096E+02  0.15083857096E+02  0.00000000000E+00 0.  1.
         23    2    1    2    0    0  0.13521828224E+02  0.83771108426E+01  0.36421479134E+03  0.37640992160E+03  0.93696312764E+02 0.  0.
          5    1    1    2  502    0 -0.32119683451E+02 -0.14296474085E+02  0.27109810004E+02  0.44592347266E+02  0.41800000000E+01 0.  1.
         -5    1    1    2    0  502  0.18597855227E+02  0.59193632425E+01  0.40623818183E+03  0.40672822850E+03  0.41800000000E+01 0.  1.
        -11    1    3    3    0    0  0.10964616520E+02 -0.40479997776E+02  0.22432643826E+03  0.22821306698E+03  0.00000000000E+00 0.  1.
         11    1    3    3    0    0  0.25572117040E+01  0.48857108619E+02  0.13988835307E+03  0.14819685462E+03  0.00000000000E+00 0. -1.
</event>
<event>
 7    1  0.4687179E-006  0.9752807E+02  0.7561462E-02  0.1285582E+00
         -1   -1    0    0    0  501 -0.00000000000E+00  0.00000000000E+00  0.55145179220E+02  0.55145179220E+02  0.00000000000E+00 0.  1.
          1   -1    0    0  501    0  0.00000000000E+00 -0.00000000000E+00 -0.21973370055E+03  0.21973370055E+03  0.00000000000E+00 0. -1.
         23    2    1    2    0    0  0.45545977852E+01 -0.16085112659E+02 -0.80511630570E+02  0.12323417067E+03  0.91788141677E+02 0.  0.
          5    1    1    2  502    0 -0.13308847671E+02 -0.53361071878E+02 -0.27975759854E+02  0.61843713971E+02  0.41800000000E+01 0.  1.
         -5    1    1    2    0  502  0.87542498857E+01  0.69446184537E+02 -0.56101130902E+02  0.89800995130E+02  0.41800000000E+01 0.  1.
        -11    1    3    3    0    0  0.23029800506E+02  0.19179361435E+02  0.35912050182E+01  0.30184704238E+02  0.00000000000E+00 0.  1.
         11    1    3    3    0    0 -0.18475202721E+02 -0.35264474094E+02 -0.84102835588E+02  0.93049466428E+02  0.00000000000E+00 0. -1.
</event>
<event>
 7    1  0.4687179E-006  0.6493140E+02  0.7561462E-02  0.1378230E+00
         -1   -1    0    0    0  501 -0.00000000000E+00  0.00000000000E+00  0.81398747283E+02  0.81398747283E+02  0.00000000000E+00 0.  1.
          1   -1    0    0  501    0  0.00000000000E+00 -0.00000000000E+00 -0.16767085248E+03  0.16767085248E+03  0.00000000000E+00 0. -1.
         23    2    1    2    0    0  0.37742985278E+02 -0.14469017406E+02 -0.56370714078E+02  0.11425549288E+03  0.90789728745E+02 0.  0.
          5    1    1    2  502    0 -0.83123558272E+01  0.10924655514E+02 -0.77372480253E+02  0.78691908466E+02  0.41800000000E+01 0. -1.
         -5    1    1    2    0  502 -0.29430629451E+02  0.35443618921E+01  0.47471089136E+02  0.56122198414E+02  0.41800000000E+01 0. -1.
        -11    1    3    3    0    0 -0.20905761743E+02 -0.16892566250E+02  0.71031254866E+01  0.27800432734E+02  0.00000000000E+00 0.  1.
         11    1    3    3    0    0  0.58648747020E+02  0.24235488435E+01 -0.63473839565E+02  0.86455060148E+02  0.00000000000E+00 0. -1.
</event>
<event>
 7    1  0.4687179E-006  0.1520044E+03  0.7561462E-02  0.1198031E+00
          1   -1    0    0  501    0  0.00000000000E+00  0.00000000000E+00  0.17378108891E+03  0.17378108891E+03  0.00000000000E+00 0. -1.
         -1   -1    0    0    0  501 -0.00000000000E+00 -0.00000000000E+00 -0.19333256801E+03  0.19333256801E+03  0.00000000000E+00 0.  1.
         23    2    1    2    0    0  0.11797644588E+03 -0.45595587088E+02  0.64162240021E+02  0.17050895003E+03  0.94652573389E+02 0.  0.
          5    1    1    2  502    0 -0.39040124222E+02 -0.43242315275E+02 -0.20275709255E+02  0.61827226328E+02  0.41800000000E+01 0. -1.
         -5    1    1    2    0  502 -0.78936321663E+02  0.88837902364E+02 -0.63438009866E+02  0.13477748057E+03  0.41800000000E+01 0. -1.
        -11    1    3    3    0    0  0.77568336582E+02 -0.26280502378E+02 -0.11381761392E+02  0.82686493079E+02  0.00000000000E+00 0.  1.
         11    1    3    3    0    0  0.40408109303E+02 -0.19315084710E+02  0.75544001413E+02  0.87822456947E+02  0.00000000000E+00 0. -1.
</event>
<event>
 7    1  0.4687179E-006  0.9550756E+02  0.7561462E-02  0.1290037E+00
          2   -1    0    0  501    0  0.00000000000E+00  0.00000000000E+00  0.19281551656E+03  0.19281551656E+03  0.00000000000E+00 0. -1.
         -2   -1    0    0    0  501 -0.00000000000E+00 -0.00000000000E+00 -0.71918969496E+02  0.71918969496E+02  0.00000000000E+00 0.  1.
         23    2    1    2    0    0 -0.21388073407E+02 -0.31006452064E+02  0.95406733402E+02  0.13163589916E+03  0.82502820646E+02 0.  0.
          5    1    1    2  502    0 -0.40209608689E+02  0.15993468916E+00  0.45864059029E+02  0.61137734016E+02  0.41800000000E+01 0.  1.
         -5    1    1    2    0  502  0.61597682096E+02  0.30846517375E+02 -0.20374245366E+02  0.71960852885E+02  0.41800000000E+01 0.  1.
        -11    1    3    3    0    0 -0.45156345019E+02 -0.35428857828E+02  0.90188333504E+02  0.10690292308E+03  0.00000000000E+00 0. -1.
         11    1    3    3    0    0  0.23768271612E+02  0.44224057645E+01  0.52183998982E+01  0.24732976078E+02  0.00000000000E+00 0.  1.
</event>
<event>
 7    1  0.4687179E-006  0.1156317E+03  0.7561462E-02  0.1250482E+00
          2   -1    0    0  501    0  0.00000000000E+00  0.00000000000E+00  0.95220548459E+03  0.95220548459E+03  0.00000000000E+00 0. -1.
         -2   -1    0    0    0  501 -0.00000000000E+00 -0.00000000000E+00 -0.21326382121E+02  0.21326382121E+02  0.00000000000E+00 0.  1.
         23    2    1    2    0    0  0.29729252472E+02  0.80981130043E+02  0.56288713997E+03  0.57540134316E+03  0.82480309727E+02 0.  0.
          5    1    1    2  502    0  0.16210881864E+02  0.57383760718E+01  0.46431596502E+00  0.17703379341E+02  0.41800000000E+01 0. -1.
         -5    1    1    2    0  502 -0.45940134337E+02 -0.86719506115E+02  0.36752764654E+03  0.38042714422E+03  0.41800000000E+01 0. -1.
        -11    1    3    3    0    0  0.55824151398E+02  0.51247444440E+02  0.43445183738E+03  0.44101137791E+03  0.00000000000E+00 0. -1.
         11    1    3    3    0    0 -0.26094898926E+02  0.29733685604E+02  0.12843530258E+03  0.13438996525E+03  0.00000000000E+00 0.  1.
</event>
<event>
 7    1  0.4687179E-006  0.9993913E+02  0.7561462E-02  0.1280424E+00
         -2   -1    0    0    0  501 -0.00000000000E+00  0.00000000000E+00  0.45450896509E+03  0.45450896509E+03  0.00000000000E+00 0.  1.
          2   -1    0    0  501    0  0.00000000000E+00 -0.00000000000E+00 -0.53188609369E+02  0.53188609369E+02  0.00000000000E+00 0. -1.
         23    2    1    2    0    0  0.23919340430E+02 -0.75341741016E+02  0.47012546598E+02  0.12375292165E+03  0.82801529528E+02 0.  0.
          5    1    1    2  502    0 -0.41976172385E+02  0.65736653629E+02  0.91478162490E+02  0.12028729480E+03  0.41800000000E+01 0.  1.
         -5    1    1    2    0  502  0.18056831955E+02  0.96050873864E+01  0.26282964663E+03  0.26365735801E+03  0.41800000000E+01 0.  1.
        -11    1    3    3    0    0  0.22917821301E+02  0.24941321446E+01  0.39256792335E+02  0.45525190530E+02  0.00000000000E+00 0. -1.
         11    1    3    3    0    0  0.10015191284E+01 -0.77835873160E+02  0.77557542621E+01  0.78227731115E+02  0.00000000000E+00 0.  1.
</event>
<event>
 7    1  0.4687179E-006  0.1091301E+03  0.7561462E-02  0.1262189E+00
          1   -1    0    0  501    0  0.00000000000E+00  0.00000000000E+00  0.45913605432E+03  0.45913605432E+03  0.00000000000E+00 0. -1.
         -1   -1    0    0    0  501 -0.00000000000E+00 -0.00000000000E+00 -0.28352977263E+02  0.28352977263E+02  0.00000000000E+00 0.  1.
         23    2    1    2    0    0  0.25634616389E+02  0.17417197556E+02  0.20827290872E+03  0.23034973107E+03  0.93396476215E+02 0.  0.
          5    1    1    2  502    0  0.48189067118E+02 -0.22762246420E+02  0.75700420163E+02  0.92673254311E+02  0.41800000000E+01 0.  1.
         -5    1    1    2    0  502 -0.73823683507E+02  0.53450488641E+01  0.14680974817E+03  0.16446604619E+03  0.41800000000E+01 0.  1.
        -11    1    3    3    0    0  0.30458751805E+02  0.49556067681E+02  0.85949240802E+02  0.10378251972E+03  0.00000000000E+00 0.  1.
         11    1    3    3    0    0 -0.48241354168E+01 -0.32138870124E+02  0.12232366792E+03  0.12656721135E+03  0.00000000000E+00 0. -1.
</event>
<event>
 7    1  0.4687179E-006  0.1081426E+03  0.7561462E-02  0.1264049E+00
          1   -1    0    0  501    0  0.00000000000E+00  0.00000000000E+00  0.13023173497E+02  0.13023173497E+02  0.00000000000E+00 0. -1.
         -1   -1    0    0    0  501 -0.00000000000E+00 -0.00000000000E+00 -0.12660479809E+04  0.12660479809E+04  0.00000000000E+00 0.  1.
         23    2    1    2    0    0 -0.41062904483E+02  0.17882726568E+02 -0.27340427617E+03  0.29048120226E+03  0.87312522629E+02 0.  0.
          5    1    1    2  502    0 -0.10076513311E+02  0.43381088342E+02 -0.53322937060E+03  0.53510231640E+03  0.41800000000E+01 0.  1.
         -5    1    1    2    0  502  0.51139417794E+02 -0.61263814910E+02 -0.44639116067E+03  0.45348763577E+03  0.41800000000E+01 0.  1.
        -11    1    3    3    0    0 -0.22637498546E+02  0.49847105943E+02 -0.10885725224E+03  0.12184864249E+03  0.00000000000E+00 0. -1.
         11    1    3    3    0    0 -0.18425405937E+02 -0.31964379374E+02 -0.16454702392E+03  0.16863255977E+03  0.00000000000E+00 0.  1.
</event>
<event>
 7    1  0.4687179E-006  0.1733480E+03  0.7561462E-02  0.1174401E+00
          1   -1    0    0  501    0  0.00000000000E+00  0.00000000000E+00  0.20019196617E+03  0.20019196617E+03  0.00000000000E+00 0. -1.
         -1   -1    0    0    0  501 -0.00000000000E+00 -0.00000000000E+00 -0.17983882317E+03  0.17983882317E+03  0.00000000000E+00 0.  1.
         23    2    1    2    0    0  0.50603730908E+02 -0.14544435929E+03 -0.12444926710E+02  0.17893796560E+03  0.90272476983E+02 0.  0.
          5    1    1    2  502    0  0.89947490898E+01  0.11739959155E+03 -0.16154738065E+02  0.11892021514E+03  0.41800000000E+01 0.  1.
         -5    1    1    2    0  502 -0.59598479997E+02  0.28044767746E+02  0.48952807771E+02  0.82172608603E+02  0.41800000000E+01 0.  1.
        -11    1    3    3    0    0 -0.40885802790E+01 -0.67701143599E+02  0.30822783865E+02  0.74499700258E+02  0.00000000000E+00 0. -1.
         11    1    3    3    0    0  0.54692311187E+02 -0.77743215693E+02 -0.43267710575E+02  0.10443826534E+03  0.00000000000E+00 0.  1.
</event>
<event>
 7    1  0.4687179E-006  0.1232829E+03  0.7561462E-02  0.1237778E+00
          1   -1    0    0  501    0  0.00000000000E+00  0.00000000000E+00  0.27679722898E+03  0.27679722898E+03  0.00000000000E+00 0. -1.
         -1   -1    0    0    0  501 -0.00000000000E+00 -0.00000000000E+00 -0.60982102109E+02  0.60982102109E+02  0.00000000000E+00 0.  1.
         23    2    1    2    0    0 -0.38498936971E+02  0.48365675256E+02  0.14226478119E+03  0.18005100381E+03  0.91420398787E+02 0.  0.
          5    1    1    2  502    0 -0.39303490831E+02 -0.47219255525E+02  0.30888202922E+02  0.68891044146E+02  0.41800000000E+01 0. -1.
         -5    1    1    2    0  502  0.77802427802E+02 -0.11464197312E+01  0.42662142760E+02  0.88837283135E+02  0.41800000000E+01 0. -1.
        -11    1    3    3    0    0  0.71649289274E+01  0.59607866568E+02  0.10094817944E+03  0.11745198549E+03  0.00000000000E+00 0. -1.
         11    1    3    3    0    0 -0.45663865898E+02 -0.11242191312E+02  0.41316601753E+02  0.62599018321E+02  0.00000000000E+00 0.  1.
</event>
<event>
 7    1  0.4687179E-006  0.1000372E+03  0.7561462E-02  0.1280218E+00
          3   -1    0    0  501    0  0.00000000000E+00  0.00000000000E+00  0.95136986169E+02  0.95136986169E+02  0.00000000000E+00 0. -1.
         -3   -1    0    0    0  501 -0.00000000000E+00 -0.00000000000E+00 -0.17431208086E+03  0.17431208086E+03  0.00000000000E+00 0.  1.
         23    2    1    2    0    0 -0.54800033785E+02  0.45461902854E+02 -0.33474126202E+02  0.11843431243E+03  0.88523109541E+02 0.  0.
          5    1    1    2  502    0 -0.96092378981E+01 -0.60651412851E+02 -0.56836522653E+02  0.83778243244E+02  0.41800000000E+01 0.  1.
         -5    1    1    2    0  502  0.64409271683E+02  0.15189509996E+02  0.11135554160E+02  0.67236511355E+02  0.41800000000E+01 0.  1.
        -11    1    3    3    0    0 -0.21110187289E+02  0.25315735227E+02 -0.61790613044E+02  0.70032894541E+02  0.00000000000E+00 0.  1.
         11    1    3    3    0    0 -0.33689846496E+02  0.20146167627E+02  0.28316486842E+02  0.48401417893E+02  0.00000000000E+00 0. -1.
</event>
<event>
 7    1  0.4687179E-006  0.2244545E+03  0.7561462E-02  0.1130605E+00
          2   -1    0    0  501    0  0.00000000000E+00  0.00000000000E+00  0.78740857495E+03  0.78740857495E+03  0.00000000000E+00 0. -1.
         -2   -1    0    0    0  501 -0.00000000000E+00 -0.00000000000E+00 -0.72018185061E+02  0.72018185061E+02  0.00000000000E+00 0.  1.
         23    2    1    2    0    0 -0.14743435707E+03 -0.14434419724E+03  0.42821547747E+03  0.48434137783E+03  0.92983537305E+02 0.  0.
          5    1    1    2  502    0  0.80137990799E+02  0.11301606421E+02  0.50986385203E+02  0.95743969800E+02  0.41800000000E+01 0. -1.
         -5    1    1    2    0  502  0.67296366270E+02  0.13304259082E+03  0.23618852722E+03  0.27934141239E+03  0.41800000000E+01 0. -1.
        -11    1    3    3    0    0 -0.61333555351E+02 -0.14673764126E+02  0.72679642559E+02  0.96226060961E+02  0.00000000000E+00 0. -1.
         11    1    3    3    0    0 -0.86100801719E+02 -0.12967043311E+03  0.35553583491E+03  0.38811531687E+03  0.00000000000E+00 0.  1.
</event>
<event>
 7    1  0.4687179E-006  0.1015583E+03  0.7561462E-02  0.1277053E+00
         -1   -1    0    0    0  501 -0.00000000000E+00  0.00000000000E+00  0.12559653802E+03  0.12559653802E+03  0.00000000000E+00 0.  1.
          1   -1    0    0  501    0  0.00000000000E+00 -0.00000000000E+00 -0.10397817920E+03  0.10397817920E+03  0.00000000000E+00 0. -1.
         23    2    1    2    0    0 -0.25326583772E+02 -0.27404254293E+02 -0.18292609080E+01  0.96947072619E+02  0.89459262768E+02 0.  0.
          5    1    1    2  502    0 -0.25189621635E+02  0.60785885332E+02  0.28283870751E+02  0.71741833252E+02  0.41800000000E+01 0. -1.
         -5    1    1    2    0  502  0.50516205407E+02 -0.33381631039E+02 -0.48362510324E+01  0.60885811349E+02  0.41800000000E+01 0. -1.
        -11    1    3    3    0    0 -0.57551614836E+01 -0.47846530961E+02 -0.30201667759E+02  0.56873132006E+02  0.00000000000E+00 0. -1.
         11    1    3    3    0    0 -0.19571422289E+02  0.20442276667E+02  0.28372406851E+02  0.40073940613E+02  0.00000000000E+00 0.  1.
</event>
<event>
 7    1  0.4687179E-006  0.1761814E+03  0.7561462E-02  0.1171551E+00
          1   -1    0    0  501    0  0.00000000000E+00  0.00000000000E+00  0.85437627457E+03  0.85437627457E+03  0.00000000000E+00 0. -1.
         -1   -1    0    0    0  501 -0.00000000000E+00 -0.00000000000E+00 -0.42086648677E+02  0.42086648677E+02  0.00000000000E+00 0.  1.
         23    2    1    2    0    0  0.59913305426E+02  0.14034302215E+03  0.44248775130E+03  0.47731790794E+03  0.93547886964E+02 0.  0.
          5    1    1    2  502    0 -0.79489059719E+02 -0.62267177916E+02  0.12121201319E+03  0.15781488080E+03  0.41800000000E+01 0.  1.
         -5    1    1    2    0  502  0.19575754293E+02 -0.78075844237E+02  0.24858986140E+03  0.26133013450E+03  0.41800000000E+01 0.  1.
        -11    1    3    3    0    0  0.55343043585E+02  0.35481202397E+02  0.24504279936E+03  0.25370798512E+03  0.00000000000E+00 0.  1.
         11    1    3    3    0    0  0.45702618413E+01  0.10486181976E+03  0.19744495194E+03  0.22360992282E+03  0.00000000000E+00 0. -1.
</event>
<event>
 7    1  0.4687179E-006  0.1255091E+03  0.7561462E-02  0.1234276E+00
          2   -1    0    0  501    0  0.00000000000E+00  0.00000000000E+00  0.87325541834E+03  0.87325541834E+03  0.00000000000E+00 0. -1.
         -2   -1    0    0    0  501 -0.00000000000E+00 -0.00000000000E+00 -0.21673943512E+02  0.21673943512E+02  0.00000000000E+00 0.  1.
         23    2    1    2    0    0 -0.70728321068E+01 -0.73623059580E+02  0.52235325467E+03  0.53505473712E+03  0.89220340705E+02 0.  0.
          5    1    1    2  502    0  0.46339256286E+02 -0.69041264768E+01  0.17744561505E+03  0.18357399690E+03  0.41800000000E+01 0. -1.
         -5    1    1    2    0  502 -0.39266424179E+02  0.80527186057E+02  0.15178260510E+03  0.17630062783E+03  0.41800000000E+01 0. -1.
        -11    1    3    3    0    0  0.39190081318E+02 -0.45921361087E+02  0.31970418542E+03  0.32535426854E+03  0.00000000000E+00 0.  1.
         11    1    3    3    0    0 -0.46262913425E+02 -0.27701698493E+02  0.20264906924E+03  0.20970046858E+03  0.00000000000E+00 0. -1.
</event>
<event>
 7    1  0.4687179E-006  0.9783641E+02  0.7561462E-02  0.1284913E+00
         -2   -1    0    0    0  501 -0.00000000000E+00  0.00000000000E+00  0.30491308479E+03  0.30491308479E+03  0.00000000000E+00 0.  1.
          2   -1    0    0  501    0  0.00000000000E+00 -0.00000000000E+00 -0.48023799207E+02  0.48023799207E+02  0.00000000000E+00 0. -1.
         23    2    1    2    0    0  0.11859113227E+02  0.18110742242E+02  0.40465579813E+02  0.10202731391E+03  0.91123389333E+02 0.  0.
          5    1    1    2  502    0  0.55517519595E+02 -0.16264217058E+02  0.81538388327E+02  0.10006348440E+03  0.41800000000E+01 0.  1.
         -5    1    1    2    0  502 -0.67376632822E+02 -0.18465251837E+01  0.13488531744E+03  0.15084608569E+03  0.41800000000E+01 0.  1.
        -11    1    3    3    0    0  0.26769027444E+02 -0.17194283178E+02 -0.14545491439E+02  0.34982788990E+02  0.00000000000E+00 0. -1.
         11    1    3    3    0    0 -0.14909914217E+02  0.35305025420E+02  0.55011071252E+02  0.67044524923E+02  0.00000000000E+00 0.  1.
</event>
<event>
 7    1  0.4687179E-006  0.1273245E+03  0.7561462E-02  0.1231481E+00
          2   -1    0    0  501    0  0.00000000000E+00  0.00000000000E+00  0.27645065007E+03  0.27645065007E+03  0.00000000000E+00 0. -1.
         -2   -1    0    0    0  501 -0.00000000000E+00 -0.00000000000E+00 -0.10868914329E+03  0.10868914329E+03  0.00000000000E+00 0.  1.
         23    2    1    2    0    0 -0.27024876993E+01 -0.10477443572E+03  0.17348231462E+03  0.22184510458E+03  0.90189528895E+02 0.  0.
          5    1    1    2  502    0  0.29219326764E+02  0.23576781335E+02  0.48920682682E+02  0.61808893121E+02  0.41800000000E+01 0. -1.
         -5    1    1    2    0  502 -0.26516839065E+02  0.81197654388E+02 -0.54641490520E+02  0.10148579565E+03  0.41800000000E+01 0. -1.
        -11    1    3    3    0    0 -0.33947806060E+02 -0.91147684977E+02  0.15521298260E+03  0.18317047792E+03  0.00000000000E+00 0. -1.
         11    1    3    3    0    0  0.31245318361E+02 -0.13626750746E+02  0.18269332014E+02  0.38674626664E+02  0.00000000000E+00 0.  1.
</event>
<event>
 7    1  0.4687179E-006  0.1094259E+03  0.7561462E-02  0.1261637E+00
         -3   -1    0    0    0  501 -0.00000000000E+00  0.00000000000E+00  0.45374003514E+02  0.45374003514E+02  0.00000000000E+00 0.  1.
          3   -1    0    0  501    0  0.00000000000E+00 -0.00000000000E+00 -0.36247835321E+03  0.36247835321E+03  0.00000000000E+00 0. -1.
         23    2    1    2    0    0  0.10163509107E+02 -0.32806523651E+02 -0.23403731255E+03  0.25381325989E+03  0.92022509861E+02 0.  0.
          5    1    1    2  502    0 -0.37762643869E+02  0.69489255818E+02 -0.32476249197E+02  0.85597623262E+02  0.41800000000E+01 0.  1.
         -5    1    1    2    0  502  0.27599134762E+02 -0.36682732167E+02 -0.50590787953E+02  0.68441473570E+02  0.41800000000E+01 0.  1.
        -11    1    3    3    0    0  0.36804016113E+02 -0.49826553439E+02 -0.11468546016E+03  0.13034560139E+03  0.00000000000E+00 0.  1.
         11    1    3    3    0    0 -0.26640507006E+02  0.17020029788E+02 -0.11935185239E+03  0.12346765850E+03  0.00000000000E+00 0. -1.
</event>
<event>
 7    1  0.4687179E-006  0.1083057E+03  0.7561462E-02  0.1263740E+00
         -1   -1    0    0    0  501 -0.00000000000E+00  0.00000000000E+00  0.22798086617E+02  0.22798086617E+02  0.00000000000E+00 0.  1.
          1   -1    0    0  501    0  0.00000000000E+00 -0.00000000000E+00 -0.61954645899E+03  0.61954645899E+03  0.00000000000E+00 0. -1.
         23    2    1    2    0    0 -0.48342202762E+02  0.12851887949E+02 -0.29378550997E+03  0.31077999865E+03  0.88159753297E+02 0.  0.
          5    1    1    2  502    0  0.80525500551E+02  0.10569580553E+02 -0.12477573565E+03  0.14893800347E+03  0.41800000000E+01 0.  1.
         -5    1    1    2    0  502 -0.32183297789E+02 -0.23421468501E+02 -0.17818712675E+03  0.18262654348E+03  0.41800000000E+01 0.  1.
        -11    1    3    3    0    0  0.21824449246E+02 -0.59540595768E+01 -0.12492903582E+03  0.12696070810E+03  0.00000000000E+00 0. -1.
         11    1    3    3    0    0 -0.70166652008E+02  0.18805947526E+02 -0.16885647415E+03  0.18381929055E+03  0.00000000000E+00 0.  1.
</event>
<event>
 7    1  0.4687179E-006  0.1549908E+03  0.7561462E-02  0.1194471E+00
         -2   -1    0    0    0  501 -0.00000000000E+00  0.00000000000E+00  0.66453640743E+02  0.66453640743E+02  0.00000000000E+00 0.  1.
          2   -1    0    0  501    0  0.00000000000E+00 -0.00000000000E+00 -0.52005574905E+03  0.52005574905E+03  0.00000000000E+00 0. -1.
         23    2    1    2    0    0  0.11456964922E+03  0.85989178036E+02 -0.28843149045E+03  0.33461864629E+03  0.90865672829E+02 0.  0.
          5    1    1    2  502    0 -0.21411820629E+00 -0.35777836636E+02 -0.10915844050E+03  0.11494841005E+03  0.41800000000E+01 0. -1.
         -5    1    1    2    0  502 -0.11435553102E+03 -0.50211341400E+02 -0.56012177359E+02  0.13694233345E+03  0.41800000000E+01 0. -1.
        -11    1    3    3    0    0  0.89530551963E+02  0.43173462384E+02 -0.10493690678E+03  0.14453865225E+03  0.00000000000E+00 0.  1.
         11    1    3    3    0    0  0.25039097261E+02  0.42815715652E+02 -0.18349458367E+03  0.19007999404E+03  0.00000000000E+00 0. -1.
</event>
<event>
 7    1  0.4687179E-006  0.1078818E+03  0.7561462E-02  0.1264543E+00
         -1   -1    0    0    0  501 -0.00000000000E+00  0.00000000000E+00  0.72732844623E+02  0.72732844623E+02  0.00000000000E+00 0.  1.
          1   -1    0    0  501    0  0.00000000000E+00 -0.00000000000E+00 -0.20703964592E+03  0.20703964592E+03  0.00000000000E+00 0. -1.
         23    2    1    2    0    0 -0.54281070858E+02  0.14559883046E+02 -0.69966967899E+02  0.12829348067E+03  0.91681054409E+02 0.  0.
          5    1    1    2  502    0  0.61071106905E+02 -0.47372309781E+02 -0.82509902481E+02  0.11313342671E+03  0.41800000000E+01 0.  1.
         -5    1    1    2    0  502 -0.67900360469E+01  0.32812426736E+02  0.18170069079E+02  0.38345583163E+02  0.41800000000E+01 0.  1.
        -11    1    3    3    0    0 -0.68529454049E+02 -0.16441362297E+02 -0.60512365771E+02  0.92888916872E+02  0.00000000000E+00 0. -1.
         11    1    3    3    0    0  0.14248383191E+02  0.31001245342E+02 -0.94546021283E+01  0.35404563798E+02  0.00000000000E+00 0.  1.
</event>
<event>
 7    1  0.4687179E-006  0.7567513E+02  0.7561462E-02  0.1341793E+00
          1   -1    0    0  501    0  0.00000000000E+00  0.00000000000E+00  0.27316102657E+03  0.27316102657E+03  0.00000000000E+00 0. -1.
         -1   -1    0    0    0  501 -0.00000000000E+00 -0.00000000000E+00 -0.70604499844E+02  0.70604499844E+02  0.00000000000E+00 0.  1.
         23    2    1    2    0    0 -0.10126506701E+02 -0.46016415018E+02  0.18401544863E+03  0.20881624539E+03  0.86732245544E+02 0.  0.
          5    1    1    2  502    0 -0.10903587465E+02  0.32549323537E+01  0.66272961879E+02  0.67372551388E+02  0.41800000000E+01 0. -1.
         -5    1    1    2    0  502  0.21030094166E+02  0.42761482664E+02 -0.47731883774E+02  0.67576729640E+02  0.41800000000E+01 0. -1.
        -11    1    3    3    0    0  0.16657589851E+02  0.16458774412E+02  0.88741753888E+02  0.91779439080E+02  0.00000000000E+00 0. -1.
         11    1    3    3    0    0 -0.26784096552E+02 -0.62475189430E+02  0.95273694737E+02  0.11703680631E+03  0.00000000000E+00 0.  1.
</event>
<event>
 7    1  0.4687179E-006  0.1263669E+03  0.7561462E-02  0.1232948E+00
          2   -1    0    0  501    0  0.00000000000E+00  0.00000000000E+00  0.97494828946E+03  0.97494828946E+03  0.00000000000E+00 0. -1.
         -2   -1    0    0    0  501 -0.00000000000E+00 -0.00000000000E+00 -0.25426848746E+02  0.25426848746E+02  0.00000000000E+00 0.  1.
         23    2    1    2    0    0 -0.59809979563E+02  0.94185702424E+02  0.51112393592E+03  0.53102787568E+03  0.91075499868E+02 0.  0.
          5    1    1    2  502    0  0.30001181426E+02 -0.10140621369E+02  0.31728254998E+03  0.31888648766E+03  0.41800000000E+01 0.  1.
         -5    1    1    2    0  502  0.29808798137E+02 -0.84045081055E+02  0.12111495481E+03  0.15046077487E+03  0.41800000000E+01 0.  1.
        -11    1    3    3    0    0 -0.65136357832E+02  0.38676745404E+02  0.18077919495E+03  0.19600957393E+03  0.00000000000E+00 0.  1.
         11    1    3    3    0    0  0.53263782687E+01  0.55508957020E+02  0.33034474097E+03  0.33501830174E+03  0.00000000000E+00 0. -1.
</event>
<event>
 7    1  0.4687179E-006  0.8788304E+02  0.7561462E-02  0.1308061E+00
          1   -1    0    0  501    0  0.00000000000E+00  0.00000000000E+00  0.81865883043E+02  0.81865883043E+02  0.00000000000E+00 0. -1.
         -1   -1    0    0    0  501 -0.00000000000E+00 -0.00000000000E+00 -0.20685109259E+03  0.20685109259E+03  0.00000000000E+00 0.  1.
         23    2    1    2    0    0  0.14535332849E+02 -0.60552470794E+01  0.23462342839E+02  0.95767705112E+02  0.91504261609E+02 0.  0.
          5    1    1    2  502    0  0.41430865767E+02 -0.34575231367E+01 -0.95808576359E+01  0.42868827107E+02  0.41800000000E+01 0. -1.
         -5    1    1    2    0  502 -0.55966198616E+02  0.95127702162E+01 -0.13886669475E+03  0.15008044341E+03  0.41800000000E+01 0.  1.
        -11    1    3    3    0    0  0.24672651125E+02 -0.37013638864E+02 -0.13511995481E+02  0.46490033313E+02  0.00000000000E+00 0. -1.
         11    1    3    3    0    0 -0.10137318276E+02  0.30958391785E+02  0.36974338320E+02  0.49277671799E+02  0.00000000000E+00 0.  1.
</event>
<event>
 7    1  0.4687179E-006  0.1368628E+03  0.7561462E-02  0.1217614E+00
          4   -1    0    0  501    0  0.00000000000E+00  0.00000000000E+00  0.18329522792E+03  0.18329522792E+03  0.00000000000E+00 0.  1.
         -4   -1    0    0    0  501 -0.00000000000E+00 -0.00000000000E+00 -0.13245683006E+03  0.13245683006E+03  0.00000000000E+00 0. -1.
         23    2    1    2    0    0  0.10242510473E+03  0.43244556354E+02  0.54554620420E+02  0.14835391471E+03  0.81680375044E+02 0.  0.
          5    1    1    2  502    0 -0.10526886071E+02  0.38094797954E+02  0.16347753933E+02  0.42973834134E+02  0.41800000000E+01 0. -1.
         -5    1    1    2    0  502 -0.91898218657E+02 -0.81339354308E+02 -0.20063976501E+02  0.12442430914E+03  0.41800000000E+01 0. -1.
        -11    1    3    3    0    0  0.66748084087E+02  0.27550907628E+02  0.75192542661E+02  0.10425103219E+03  0.00000000000E+00 0.  1.
         11    1    3    3    0    0  0.35677020641E+02  0.15693648726E+02 -0.20637922241E+02  0.44102882520E+02  0.00000000000E+00 0. -1.
</event>
<event>
 7    1  0.4687179E-006  0.1087830E+03  0.7561462E-02  0.1262840E+00
          2   -1    0    0  501    0  0.00000000000E+00  0.00000000000E+00  0.30946159877E+03  0.30946159877E+03  0.00000000000E+00 0.  1.
         -2   -1    0    0    0  501 -0.00000000000E+00 -0.00000000000E+00 -0.59906609909E+02  0.59906609909E+02  0.00000000000E+00 0. -1.
         23    2    1    2    0    0  0.40888291587E+02 -0.53574217153E+02  0.17575621184E+03  0.20925651889E+03  0.91411134794E+02 0.  0.
          5    1    1    2  502    0 -0.10398244068E+02  0.74264224148E+02 -0.26410317409E+01  0.75151486456E+02  0.41800000000E+01 0.  1.
         -5    1    1    2    0  502 -0.30490047519E+02 -0.20690006995E+02  0.76439808755E+02  0.84960203329E+02  0.41800000000E+01 0.  1.
        -11    1    3    3    0    0 -0.24925870652E+02 -0.15056553850E+02  0.89533737057E+02  0.94150352697E+02  0.00000000000E+00 0. -1.
         11    1    3    3    0    0  0.65814162239E+02 -0.38517663303E+02  0.86222474787E+02  0.11510616619E+03  0.00000000000E+00 0.  1.
</event>
<event>
 7    1  0.4687179E-006  0.1308738E+03  0.7561462E-02  0.1226165E+00
         -1   -1    0    0    0  501 -0.00000000000E+00  0.00000000000E+00  0.14212379709E+03  0.14212379709E+03  0.00000000000E+00 0.  1.
          1   -1    0    0  501    0  0.00000000000E+00 -0.00000000000E+00 -0.14107459001E+03  0.14107459001E+03  0.00000000000E+00 0. -1.
         23    2    1    2    0    0  0.31661614064E+02 -0.84939277267E+02 -0.17384024587E+02  0.12761832206E+03  0.88131113616E+02 0.  0.
          5    1    1    2  502    0  0.29698732870E+01  0.10183285905E+03  0.41939876001E+02  0.11025051895E+03  0.41800000000E+01 0. -1.
         -5    1    1    2    0  502 -0.34631487351E+02 -0.16893581783E+02 -0.23506644334E+02  0.45329546098E+02  0.41800000000E+01 0. -1.
        -11    1    3    3    0    0 -0.25210244089E+02 -0.44837564840E+02  0.10763105142E+02  0.52552907247E+02  0.00000000000E+00 0.  1.
         11    1    3    3    0    0  0.56871858153E+02 -0.40101712427E+02 -0.28147129729E+02  0.75065414815E+02  0.00000000000E+00 0. -1.
</event>
<event>
 7    1  0.4687179E-006  0.1436475E+03  0.7561462E-02  0.1208504E+00
         -1   -1    0    0    0  501 -0.00000000000E+00  0.00000000000E+00  0.55982580225E+02  0.55982580225E+02  0.00000000000E+00 0.  1.
          1   -1    0    0  501    0  0.00000000000E+00 -0.00000000000E+00 -0.57596329190E+03  0.57596329190E+03  0.00000000000E+00 0. -1.
         23    2    1    2    0    0 -0.71717212231E+02 -0.88840453136E+02 -0.39502229818E+03  0.42147958402E+03  0.92555059522E+02 0.  0.
          5    1    1    2  502    0  0.84666673126E+02  0.98222313789E+02 -0.13799910549E+03  0.18941302484E+03  0.41800000000E+01 0. -1.
         -5    1    1    2    0  502 -0.12949460894E+02 -0.93818606527E+01  0.13040691987E+02  0.21053263269E+02  0.41800000000E+01 0. -1.
        -11    1    3    3    0    0 -0.47034323929E+02 -0.10252587512E+03 -0.25799965772E+03  0.28158054990E+03  0.00000000000E+00 0.  1.
         11    1    3    3    0    0 -0.24682888303E+02  0.13685421987E+02 -0.13702264045E+03  0.13989903412E+03  0.00000000000E+00 0. -1.
</event>
<event>
 7    1  0.4687179E-006  0.1422702E+03  0.7561462E-02  0.1210306E+00
          2   -1    0    0  501    0  0.00000000000E+00  0.00000000000E+00  0.55421065978E+03  0.55421065978E+03  0.00000000000E+00 0. -1.
         -2   -1    0    0    0  501 -0.00000000000E+00 -0.00000000000E+00 -0.62851057408E+02  0.62851057408E+02  0.00000000000E+00 0.  1.
         23    2    1    2    0    0  0.96858737349E+02 -0.38839769772E+02  0.41443024414E+03  0.43690459226E+03  0.90791259279E+02 0.  0.
          5    1    1    2  502    0 -0.11853475596E+03  0.27463349767E+02  0.27461166692E+02  0.12480509616E+03  0.41800000000E+01 0.  1.
         -5    1    1    2    0  502  0.21676018611E+02  0.11376420004E+02  0.49468191540E+02  0.55352028772E+02  0.41800000000E+01 0.  1.
        -11    1    3    3    0    0  0.99755572083E+02 -0.74851146143E+00  0.31335552564E+03  0.32885166851E+03  0.00000000000E+00 0.  1.
         11    1    3    3    0    0 -0.28968347346E+01 -0.38091258310E+02  0.10107471850E+03  0.10805292375E+03  0.00000000000E+00 0. -1.
</event>
<event>
 7    1  0.4687179E-006  0.1112039E+03  0.7561462E-02  0.1258357E+00
         -4   -1    0    0    0  501 -0.00000000000E+00  0.00000000000E+00  0.24117280059E+02  0.24117280059E+02  0.00000000000E+00 0.  1.
          4   -1    0    0  501    0  0.00000000000E+00 -0.00000000000E+00 -0.52855135378E+03  0.52855135378E+03  0.00000000000E+00 0. -1.
         23    2    1    2    0    0  0.53636157257E+00 -0.28973859044E+02 -0.18105063557E+03  0.20472998533E+03  0.91078329267E+02 0.  0.
          5    1    1    2  502    0  0.51476014263E+02 -0.20429145572E+02 -0.16274987779E+03  0.17196547663E+03  0.41800000000E+01 0. -1.
         -5    1    1    2    0  502 -0.52012375835E+02  0.49403004616E+02 -0.16063356037E+03  0.17597317188E+03  0.41800000000E+01 0. -1.
        -11    1    3    3    0    0 -0.12238729174E+01 -0.61963258338E+02 -0.10717356581E+03  0.12380273203E+03  0.00000000000E+00 0.  1.
         11    1    3    3    0    0  0.17602344900E+01  0.32989399295E+02 -0.73877069753E+02  0.80927253300E+02  0.00000000000E+00 0. -1.
</event>
<event>
 7    1  0.4687179E-006  0.1383585E+03  0.7561462E-02  0.1215555E+00
         -1   -1    0    0    0  501 -0.00000000000E+00  0.00000000000E+00  0.39553397302E+03  0.39553397302E+03  0.00000000000E+00 0.  1.
          1   -1    0    0  501    0  0.00000000000E+00 -0.00000000000E+00 -0.71379502138E+02  0.71379502138E+02  0.00000000000E+00 0. -1.
         23    2    1    2    0    0 -0.58665220733E+02 -0.61681997337E+02  0.22507107755E+02  0.12944344029E+03  0.94882861552E+02 0.  0.
          5    1    1    2  502    0  0.65483172706E+02 -0.20483218666E+02  0.13963763686E+03  0.15563980911E+03  0.41800000000E+01 0.  1.
         -5    1    1    2    0  502 -0.68179519727E+01  0.82165216004E+02  0.16200972627E+03  0.18183022575E+03  0.41800000000E+01 0.  1.
        -11    1    3    3    0    0  0.24921080176E+02 -0.83941446596E+01  0.14409015136E+02  0.29985690235E+02  0.00000000000E+00 0.  1.
         11    1    3    3    0    0 -0.83586300909E+02 -0.53287852678E+02  0.80980926192E+01  0.99457750058E+02  0.00000000000E+00 0. -1.
</event>
<event>
 7    1  0.4687179E-006  0.1397098E+03  0.7561462E-02  0.1213720E+00
          1   -1    0    0  501    0  0.00000000000E+00  0.00000000000E+00  0.68527139301E+02  0.68527139301E+02  0.00000000000E+00 0. -1.
         -1   -1    0    0    0  501 -0.00000000000E+00 -0.00000000000E+00 -0.38355007113E+03  0.38355007113E+03  0.00000000000E+00 0.  1.
         23    2    1    2    0    0  0.15138320322E+02 -0.55041707306E+02 -0.20721692428E+02  0.10750435481E+03  0.88707606668E+02 0.  0.
          5    1    1    2  502    0  0.28377226340E+02  0.10439669558E+03 -0.22026715773E+03  0.24543640765E+03  0.41800000000E+01 0. -1.
         -5    1    1    2    0  502 -0.43515546662E+02 -0.49354988272E+02 -0.74034081664E+02  0.99136447972E+02  0.41800000000E+01 0.  1.
        -11    1    3    3    0    0  0.43425039281E+02 -0.62373318767E+02 -0.18362306791E+02  0.78187845867E+02  0.00000000000E+00 0.  1.
         11    1    3    3    0    0 -0.28286718959E+02  0.73316114608E+01 -0.23593856375E+01  0.29316508944E+02  0.00000000000E+00 0. -1.
</event>
<event>
 7    1  0.4687179E-006  0.1604841E+03  0.7561462E-02  0.1188151E+00
          1   -1    0    0  501    0  0.00000000000E+00  0.00000000000E+00  0.57595773141E+02  0.57595773141E+02  0.00000000000E+00 0. -1.
         -1   -1    0    0    0  501 -0.00000000000E+00 -0.00000000000E+00 -0.49254172062E+03  0.49254172062E+03  0.00000000000E+00 0.  1.
         23    2    1    2    0    0  0.89688600757E+02  0.86559146660E+02 -0.25515076477E+03  0.29812381447E+03  0.90770948072E+02 0.  0.
          5    1    1    2  502    0  0.27100430165E+02 -0.69807979084E+01 -0.77712580441E+01  0.29343307689E+02  0.41800000000E+01 0. -1.
         -5    1    1    2    0  502 -0.11678903092E+03 -0.79578348752E+02 -0.17202392467E+03  0.22267037161E+03  0.41800000000E+01 0. -1.
        -11    1    3    3    0    0  0.51262236246E+02  0.98506282840E+02 -0.15946127945E+03  0.19431727733E+03  0.00000000000E+00 0.  1.
         11    1    3    3    0    0  0.38426364511E+02 -0.11947136180E+02 -0.95689485316E+02  0.10380653714E+03  0.00000000000E+00 0. -1.
</event>
<event>
 7    1  0.4687179E-006  0.1163797E+03  0.7561462E-02  0.1249192E+00
         -2   -1    0    0    0  501 -0.00000000000E+00  0.00000000000E+00  0.83560112323E+02  0.83560112323E+02  0.00000000000E+00 0.  1.
          2   -1    0    0  501    0  0.00000000000E+00 -0.00000000000E+00 -0.21726681103E+03  0.21726681103E+03  0.00000000000E+00 0. -1.
         23    2    1    2    0    0 -0.77829447001E+02 -0.17725878259E+02 -0.72341390829E+02  0.14025247805E+03  0.89810084013E+02 0.  0.
          5    1    1    2  502    0 -0.17256667750E+02  0.42564131042E+02 -0.30448563409E+01  0.46219491380E+02  0.41800000000E+01 0. -1.
         -5    1    1    2    0  502  0.95086114752E+02 -0.24838252784E+02 -0.58320451533E+02  0.11435495392E+03  0.41800000000E+01 0. -1.
        -11    1    3    3    0    0 -0.43731031880E+01  0.90816113629E+01  0.18085937174E+02  0.20705091642E+02  0.00000000000E+00 0.  1.
         11    1    3    3    0    0 -0.73456343813E+02 -0.26807489622E+02 -0.90427328003E+02  0.11954738640E+03  0.00000000000E+00 0. -1.
</event>
<event>
 7    1  0.4687179E-006  0.2617108E+03  0.7561462E-02  0.1106120E+00
          1   -1    0    0  501    0  0.00000000000E+00  0.00000000000E+00  0.31785755761E+03  0.31785755761E+03  0.00000000000E+00 0. -1.
         -1   -1    0    0    0  501 -0.00000000000E+00 -0.00000000000E+00 -0.24091869499E+03  0.24091869499E+03  0.00000000000E+00 0.  1.
         23    2    1    2    0    0  0.53693760329E+02  0.20387903456E+02  0.80033017984E+02  0.13254702168E+03  0.88683383351E+02 0.  0.
          5    1    1    2  502    0  0.13668875183E+03  0.12524898063E+03  0.13413713393E+02  0.18592612009E+03  0.41800000000E+01 0. -1.
         -5    1    1    2    0  502 -0.19038251216E+03 -0.14563688409E+03 -0.16507868762E+02  0.24030311083E+03  0.41800000000E+01 0.  1.
        -11    1    3    3    0    0  0.32223000877E+02  0.51316054368E+02  0.71900544090E+02  0.94028439644E+02  0.00000000000E+00 0. -1.
         11    1    3    3    0    0  0.21470759452E+02 -0.30928150912E+02  0.81324738942E+01  0.38518582035E+02  0.00000000000E+00 0.  1.
</event>
<event>
 7    1  0.4687179E-006  0.1853933E+03  0.7561462E-02  0.1162683E+00
         -1   -1    0    0    0  501 -0.00000000000E+00  0.00000000000E+00  0.47915178848E+02  0.47915178848E+02  0.00000000000E+00 0.  1.
          1   -1    0    0  501    0  0.00000000000E+00 -0.00000000000E+00 -0.81407262913E+03  0.81407262913E+03  0.00000000000E+00 0. -1.
         23    2    1    2    0    0  0.11047184509E+03 -0.10343900469E+03 -0.22546482896E+03  0.28675000624E+03  0.92127741389E+02 0.  0.
          5    1    1    2  502    0 -0.13391322350E+03  0.60647263745E+02 -0.39131277793E+03  0.41803588913E+03  0.41800000000E+01 0.  1.
         -5    1    1    2    0  502  0.23441378414E+02  0.42791740948E+02 -0.14937984339E+03  0.15720191261E+03  0.41800000000E+01 0.  1.
        -11    1    3    3    0    0  0.72648702113E+01 -0.63769864876E+02 -0.60806431982E+02  0.88412647149E+02  0.00000000000E+00 0.  1.
         11    1    3    3    0    0  0.10320697488E+03 -0.39669139816E+02 -0.16465839698E+03  0.19833735910E+03  0.00000000000E+00 0. -1.
</event>
<event>
 7    1  0.4687179E-006  0.1392117E+03  0.7561462E-02  0.1214394E+00
         -1   -1    0    0    0  501 -0.00000000000E+00  0.00000000000E+00  0.43926161865E+02  0.43926161865E+02  0.00000000000E+00 0.  1.
          1   -1    0    0  501    0  0.00000000000E+00 -0.00000000000E+00 -0.51222604272E+03  0.51222604272E+03  0.00000000000E+00 0. -1.
         23    2    1    2    0    0 -0.94749606385E+02  0.41876887883E+02 -0.23851406071E+03  0.27476275524E+03  0.88738113917E+02 0.  0.
          5    1    1    2  502    0  0.10363966994E+03 -0.61379555016E+02 -0.12229804285E+03  0.17170589578E+03  0.41800000000E+01 0.  1.
         -5    1    1    2    0  502 -0.88900635576E+01  0.19502667132E+02 -0.10748777730E+03  0.10968355357E+03  0.41800000000E+01 0.  1.
        -11    1    3    3    0    0 -0.10188266222E+03  0.88419224320E+01 -0.18736072745E+03  0.21345327040E+03  0.00000000000E+00 0. -1.
         11    1    3    3    0    0  0.71330558340E+01  0.33034965451E+02 -0.51153333263E+02  0.61309484844E+02  0.00000000000E+00 0.  1.
</event>
<event>
 7    1  0.4687179E-006  0.1328930E+03  0.7561462E-02  0.1223225E+00
         -2   -1    0    0    0  501 -0.00000000000E+00  0.00000000000E+00  0.25972692167E+02  0.25972692167E+02  0.00000000000E+00 0. -1.
          2   -1    0    0  501    0  0.00000000000E+00 -0.00000000000E+00 -0.93951743342E+03  0.93951743342E+03  0.00000000000E+00 0.  1.
         23    2    1    2    0    0  0.85528227889E+02 -0.71526916840E+02 -0.45597508016E+03  0.47820808745E+03  0.91315516607E+02 0.  0.
          5    1    1    2  502    0  0.83378665852E+01  0.12102874614E+02 -0.26104074326E+03  0.26148755542E+03  0.41800000000E+01 0. -1.
         -5    1    1    2    0  502 -0.93866094474E+02  0.59424042226E+02 -0.19652891783E+03  0.22579448272E+03  0.41800000000E+01 0. -1.
        -11    1    3    3    0    0  0.71079829191E+02 -0.50005482692E+01 -0.17176713206E+03  0.18596046692E+03  0.00000000000E+00 0.  1.
         11    1    3    3    0    0  0.14448398698E+02 -0.66526368570E+02 -0.28420794810E+03  0.29224762052E+03  0.00000000000E+00 0. -1.
</event>
<event>
 7    1  0.4687179E-006  0.2029404E+03  0.7561462E-02  0.1147282E+00
         -1   -1    0    0    0  501 -0.00000000000E+00  0.00000000000E+00  0.26052175328E+03  0.26052175328E+03  0.00000000000E+00 0.  1.
          1   -1    0    0  501    0  0.00000000000E+00 -0.00000000000E+00 -0.16912289743E+03  0.16912289743E+03  0.00000000000E+00 0. -1.
         23    2    1    2    0    0  0.17371379690E+03  0.43663908883E+02  0.32488825636E+02  0.20336745124E+03  0.90662981755E+02 0.  0.
          5    1    1    2  502    0 -0.16753189380E+02  0.27769516221E+02 -0.18089971667E+02  0.37370240305E+02  0.41800000000E+01 0.  1.
         -5    1    1    2    0  502 -0.15696060752E+03 -0.71433425104E+02  0.77000001884E+02  0.18890695917E+03  0.41800000000E+01 0.  1.
        -11    1    3    3    0    0  0.15463749973E+01  0.27733156649E+02  0.25671585167E+01  0.27894615183E+02  0.00000000000E+00 0. -1.
         11    1    3    3    0    0  0.17216742190E+03  0.15930752235E+02  0.29921667120E+02  0.17547283605E+03  0.00000000000E+00 0.  1.
</event>
<event>
 7    1  0.4687179E-006  0.9155196E+02  0.7561462E-02  0.1299136E+00
         -1   -1    0    0    0  501 -0.00000000000E+00  0.00000000000E+00  0.17659952893E+03  0.17659952893E+03  0.00000000000E+00 0.  1.
          1   -1    0    0  501    0  0.00000000000E+00 -0.00000000000E+00 -0.10056043304E+03  0.10056043304E+03  0.00000000000E+00 0. -1.
         23    2    1    2    0    0  0.41004169618E+02 -0.50091100053E+02 -0.64152863734E+01  0.11395111433E+03  0.93558753350E+02 0.  0.
          5    1    1    2  502    0  0.26504453620E+02  0.31489453753E+02 -0.14236300674E+02  0.43751759008E+02  0.41800000000E+01 0.  1.
         -5    1    1    2    0  502 -0.67508623238E+02  0.18601646300E+02  0.96690682942E+02  0.11945708863E+03  0.41800000000E+01 0.  1.
        -11    1    3    3    0    0  0.25513186760E+02 -0.49954258444E+02  0.37440304144E+02  0.67439802860E+02  0.00000000000E+00 0.  1.
         11    1    3    3    0    0  0.15490982857E+02 -0.13684160840E+00 -0.43855590517E+02  0.46511311475E+02  0.00000000000E+00 0. -1.
</event>
<event>
 7    1  0.4687179E-006  0.9410366E+02  0.7561462E-02  0.1293208E+00
         -4   -1    0    0    0  501 -0.00000000000E+00  0.00000000000E+00  0.20763232686E+03  0.20763232686E+03  0.00000000000E+00 0.  1.
          4   -1    0    0  501    0  0.00000000000E+00 -0.00000000000E+00 -0.83469096427E+02  0.83469096427E+02  0.00000000000E+00 0. -1.
         23    2    1    2    0    0 -0.16984982208E+02  0.58048927387E+02  0.79421983498E+01  0.10996026068E+03  0.91487774174E+02 0.  0.
          5    1    1    2  502    0  0.33382871228E+02 -0.26524526461E+02 -0.14797144446E+02  0.45325428615E+02  0.41800000000E+01 0.  1.
         -5    1    1    2    0  502 -0.16397889020E+02 -0.31524400927E+02  0.13101817653E+03  0.13581573399E+03  0.41800000000E+01 0.  1.
        -11    1    3    3    0    0 -0.40477466164E+01  0.82140727879E+02  0.40620342045E+01  0.82340655517E+02  0.00000000000E+00 0. -1.
         11    1    3    3    0    0 -0.12937235592E+02 -0.24091800492E+02  0.38801641453E+01  0.27619605165E+02  0.00000000000E+00 0.  1.
</event>
<event>
 7    1  0.4687179E-006  0.1509706E+03  0.7561462E-02  0.1199285E+00
         -2   -1    0    0    0  501 -0.00000000000E+00  0.00000000000E+00  0.29506944697E+03  0.29506944697E+03  0.00000000000E+00 0. -1.
          2   -1    0    0  501    0  0.00000000000E+00 -0.00000000000E+00 -0.11894213468E+03  0.11894213468E+03  0.00000000000E+00 0.  1.
         23    2    1    2    0    0  0.14623048265E+03 -0.31344646661E+02  0.48587483449E+02  0.18103231584E+03  0.89700138784E+02 0.  0.
          5    1    1    2  502    0 -0.84423617659E+02  0.15651858020E+02  0.14334823862E+03  0.16714819112E+03  0.41800000000E+01 0.  1.
         -5    1    1    2    0  502 -0.61806864993E+02  0.15692788641E+02 -0.15808409777E+02  0.65831074693E+02  0.41800000000E+01 0.  1.
        -11    1    3    3    0    0  0.36192747889E+02 -0.20260585816E+02 -0.24778661974E+02  0.48315509172E+02  0.00000000000E+00 0.  1.
         11    1    3    3    0    0  0.11003773476E+03 -0.11084060845E+02  0.73366145423E+02  0.13271680666E+03  0.00000000000E+00 0. -1.
</event>
<event>
 7    1  0.4687179E-006  0.1077426E+03  0.7561462E-02  0.1264808E+00
          2   -1    0    0  501    0  0.00000000000E+00  0.00000000000E+00  0.39298576685E+02  0.39298576685E+02  0.00000000000E+00 0. -1.
         -2   -1    0    0    0  501 -0.00000000000E+00 -0.00000000000E+00 -0.41138302583E+03  0.41138302583E+03  0.00000000000E+00 0.  1.
         23    2    1    2    0    0 -0.97938708788E+01  0.38113836151E+02 -0.64991610322E+02  0.11677689023E+03  0.88681160714E+02 0.  0.
          5    1    1    2  502    0  0.57630574227E+02 -0.42345536133E+02 -0.24522294522E+03  0.25547248928E+03  0.41800000000E+01 0. -1.
         -5    1    1    2    0  502 -0.47836703348E+02  0.42316999819E+01 -0.61869893606E+02  0.78432223013E+02  0.41800000000E+01 0. -1.
        -11    1    3    3    0    0  0.35387682412E+02 -0.16913546059E+01 -0.33789932698E+02  0.48958230142E+02  0.00000000000E+00 0.  1.
         11    1    3    3    0    0 -0.45181553291E+02  0.39805190757E+02 -0.31201677623E+02  0.67818660083E+02  0.00000000000E+00 0. -1.
</event>
<event>
 7    1  0.4687179E-006  0.1044855E+03  0.7561462E-02  0.1271137E+00
          1   -1    0    0  501    0  0.00000000000E+00  0.00000000000E+00  0.12852122577E+02  0.12852122577E+02  0.00000000000E+00 0. -1.
         -1   -1    0    0    0  501 -0.00000000000E+00 -0.00000000000E+00 -0.12418213316E+04  0.12418213316E+04  0.00000000000E+00 0.  1.
         23    2    1    2    0    0  0.37201742653E+02  0.20172644063E+02 -0.28257363605E+03  0.29910941238E+03  0.88474151930E+02 0.  0.
          5    1    1    2  502    0 -0.78991782547E+02 -0.30375019334E+02 -0.50520517652E+03  0.51226173612E+03  0.41800000000E+01 0.  1.
         -5    1    1    2    0  502  0.41790039894E+02  0.10202375270E+02 -0.44119039642E+03  0.44330230564E+03  0.41800000000E+01 0.  1.
        -11    1    3    3    0    0 -0.91320713466E+01  0.31933874682E+02 -0.40580332506E+02  0.52439779420E+02  0.00000000000E+00 0. -1.
         11    1    3    3    0    0  0.46333813999E+02 -0.11761230619E+02 -0.24199330354E+03  0.24666963296E+03  0.00000000000E+00 0.  1.
</event>
<event>
 7    1  0.4687179E-006  0.2096335E+03  0.7561462E-02  0.1141857E+00
         -1   -1    0    0    0  501 -0.00000000000E+00  0.00000000000E+00  0.28598175867E+03  0.28598175867E+03  0.00000000000E+00 0.  1.
          1   -1    0    0  501    0  0.00000000000E+00 -0.00000000000E+00 -0.22298070394E+03  0.22298070394E+03  0.00000000000E+00 0. -1.
         23    2    1    2    0    0 -0.18918887307E+03 -0.40840263581E+02 -0.89241764702E+02  0.23276501771E+03  0.93568713144E+02 0.  0.
          5    1    1    2  502    0  0.11030407394E+03 -0.29154812472E+02  0.37204614715E+02  0.12007767309E+03  0.41800000000E+01 0.  1.
         -5    1    1    2    0  502  0.78884799132E+02  0.69995076053E+02  0.11503820472E+03  0.15611977181E+03  0.41800000000E+01 0.  1.
        -11    1    3    3    0    0 -0.10896426115E+03  0.12229061848E+01 -0.50344922136E+01  0.10908735866E+03  0.00000000000E+00 0.  1.
         11    1    3    3    0    0 -0.80224611923E+02 -0.42063169766E+02 -0.84207272488E+02  0.12367765905E+03  0.00000000000E+00 0. -1.
</event>
<event>
 7    1  0.4687179E-006  0.9149138E+02  0.7561462E-02  0.1299280E+00
          3   -1    0    0  501    0  0.00000000000E+00  0.00000000000E+00  0.23146169792E+03  0.23146169792E+03  0.00000000000E+00 0. -1.
         -3   -1    0    0    0  501 -0.00000000000E+00 -0.00000000000E+00 -0.73813979510E+02  0.73813979510E+02  0.00000000000E+00 0.  1.
         23    2    1    2    0    0  0.36482095778E+01 -0.45075693208E+02  0.13465150968E+03  0.17030510059E+03  0.93955684639E+02 0.  0.
          5    1    1    2  502    0  0.38063365423E+02 -0.94561076217E+01  0.47692018014E+02  0.61888922603E+02  0.41800000000E+01 0.  1.
         -5    1    1    2    0  502 -0.41711575000E+02  0.54531800829E+02 -0.24695809281E+02  0.73081654242E+02  0.41800000000E+01 0.  1.
        -11    1    3    3    0    0  0.27847192513E+02 -0.41958799162E+02  0.21849466880E+02  0.54894500279E+02  0.00000000000E+00 0.  1.
         11    1    3    3    0    0 -0.24198982935E+02 -0.31168940452E+01  0.11280204280E+03  0.11541060031E+03  0.00000000000E+00 0. -1.
</event>
<event>
 7    1  0.4687179E-006  0.1108798E+03  0.7561462E-02  0.1258949E+00
          1   -1    0    0  501    0  0.00000000000E+00  0.00000000000E+00  0.34444918203E+03  0.34444918203E+03  0.00000000000E+00 0. -1.
         -1   -1    0    0    0  501 -0.00000000000E+00 -0.00000000000E+00 -0.45189411828E+02  0.45189411828E+02  0.00000000000E+00 0.  1.
         23    2    1    2    0    0  0.17237402440E+02 -0.59351482819E+02  0.14157939911E+03  0.17909131828E+03  0.90604897631E+02 0.  0.
          5    1    1    2  502    0 -0.32658159961E+01 -0.28204164161E+02 -0.10135017036E+01  0.28716546030E+02  0.41800000000E+01 0.  1.
         -5    1    1    2    0  502 -0.13971586444E+02  0.87555646980E+02  0.15869387280E+03  0.18183072956E+03  0.41800000000E+01 0.  1.
        -11    1    3    3    0    0  0.19824045181E+02  0.18076273609E+02  0.64271724765E+02  0.69646242104E+02  0.00000000000E+00 0.  1.
         11    1    3    3    0    0 -0.25866427403E+01 -0.77427756428E+02  0.77307674342E+02  0.10944507617E+03  0.00000000000E+00 0. -1.
</event>
<event>
 7    1  0.4687179E-006  0.1537891E+03  0.7561462E-02  0.1195893E+00
          2   -1    0    0  501    0  0.00000000000E+00  0.00000000000E+00  0.20308251014E+03  0.20308251014E+03  0.00000000000E+00 0. -1.
         -2   -1    0    0    0  501 -0.00000000000E+00 -0.00000000000E+00 -0.18455912020E+03  0.18455912020E+03  0.00000000000E+00 0.  1.
         23    2    1    2    0    0 -0.12990460074E+03  0.61707045788E+02  0.78530548256E+02  0.18781366795E+03  0.91782144593E+02 0.  0.
          5    1    1    2  502    0  0.87922703500E+02 -0.40289535282E+02  0.27251326166E+02  0.10056716970E+03  0.41800000000E+01 0.  1.
         -5    1    1    2    0  502  0.41981897236E+02 -0.21417510506E+02 -0.87258484479E+02  0.99260792690E+02  0.41800000000E+01 0.  1.
        -11    1    3    3    0    0 -0.84979018252E+02  0.78314595852E+02  0.78877902652E+02  0.13991544944E+03  0.00000000000E+00 0. -1.
         11    1    3    3    0    0 -0.44925582484E+02 -0.16607550064E+02 -0.34735439588E+00  0.47898218503E+02  0.00000000000E+00 0.  1.
</event>
<event>
 7    1  0.4687179E-006  0.1753884E+03  0.7561462E-02  0.1172342E+00
          2   -1    0    0  501    0  0.00000000000E+00  0.00000000000E+00  0.60324856461E+03  0.60324856461E+03  0.00000000000E+00 0. -1.
         -2   -1    0    0    0  501 -0.00000000000E+00 -0.00000000000E+00 -0.57142092307E+02  0.57142092307E+02  0.00000000000E+00 0.  1.
         23    2    1    2    0    0 -0.44542314804E+02 -0.14323973023E+03  0.24633798824E+03  0.30260542960E+03  0.91575124621E+02 0.  0.
          5    1    1    2  502    0  0.52259169023E+02  0.13268748855E+02  0.40271681483E+02  0.67426709638E+02  0.41800000000E+01 0.  1.
         -5    1    1    2    0  502 -0.77168542192E+01  0.12997098138E+03  0.25949680258E+03  0.29035851768E+03  0.41800000000E+01 0.  1.
        -11    1    3    3    0    0 -0.51375821838E+02 -0.46026379211E+02  0.56300981586E+02  0.89037650353E+02  0.00000000000E+00 0. -1.
         11    1    3    3    0    0  0.68335070345E+01 -0.97213351019E+02  0.19003700666E+03  0.21356777925E+03  0.00000000000E+00 0.  1.
</event>
<event>
 7    1  0.4687179E-006  0.7759637E+02  0.7561462E-02  0.1336014E+00
          1   -1    0    0  501    0  0.00000000000E+00  0.00000000000E+00  0.26512135816E+03  0.26512135816E+03  0.00000000000E+00 0. -1.
         -1   -1    0    0    0  501 -0.00000000000E+00 -0.00000000000E+00 -0.62960411404E+02  0.62960411404E+02  0.00000000000E+00 0.  1.
         23    2    1    2    0    0  0.64205052658E+02  0.26265244838E+02  0.11027753606E+03  0.15807277787E+03  0.89519362555E+02 0.  0.
          5    1    1    2  502    0 -0.47107060523E+02 -0.10947036362E+02 -0.22332925251E+02  0.53433554126E+02  0.41800000000E+01 0.  1.
         -5    1    1    2    0  502 -0.17097992135E+02 -0.15318208476E+02  0.11421633595E+03  0.11657543756E+03  0.41800000000E+01 0.  1.
        -11    1    3    3    0    0  0.35072459937E+02  0.38177873405E+02  0.97732708001E+01  0.52755514270E+02  0.00000000000E+00 0.  1.
         11    1    3    3    0    0  0.29132592721E+02 -0.11912628567E+02  0.10050426526E+03  0.10531726360E+03  0.00000000000E+00 0. -1.
</event>
<event>
 7    1  0.4687179E-006  0.1285319E+03  0.7561462E-02  0.1229651E+00
          1   -1    0    0  501    0  0.00000000000E+00  0.00000000000E+00  0.45539559938E+02  0.45539559938E+02  0.00000000000E+00 0. -1.
         -1   -1    0    0    0  501 -0.00000000000E+00 -0.00000000000E+00 -0.48231112214E+03  0.48231112214E+03  0.00000000000E+00 0.  1.
         23    2    1    2    0    0  0.30224859224E+02  0.63366125983E+02 -0.70411149772E+02  0.13440772324E+03  0.90437260116E+02 0.  0.
          5    1    1    2  502    0  0.44608362079E+02 -0.14171782505E+00 -0.98920801309E+02  0.10859430640E+03  0.41800000000E+01 0. -1.
         -5    1    1    2    0  502 -0.74833221304E+02 -0.63224408158E+02 -0.26743961112E+03  0.28484865243E+03  0.41800000000E+01 0. -1.
        -11    1    3    3    0    0 -0.37000068285E+01 -0.22018559577E+02 -0.10112207568E+02  0.24510482621E+02  0.00000000000E+00 0.  1.
         11    1    3    3    0    0  0.33924866053E+02  0.85384685560E+02 -0.60298942204E+02  0.10989724062E+03  0.00000000000E+00 0. -1.
</event>
<event>
 7    1  0.4687179E-006  0.1797156E+03  0.7561462E-02  0.1168079E+00
          2   -1    0    0  501    0  0.00000000000E+00  0.00000000000E+00  0.14848564666E+03  0.14848564666E+03  0.00000000000E+00 0.  1.
         -2   -1    0    0    0  501 -0.00000000000E+00 -0.00000000000E+00 -0.25039097919E+03  0.25039097919E+03  0.00000000000E+00 0. -1.
         23    2    1    2    0    0 -0.40281746357E+02 -0.15385978849E+03 -0.44121983955E+02  0.18844270203E+03  0.90931011644E+02 0.  0.
          5    1    1    2  502    0 -0.33138732666E+01  0.12473691574E+03  0.92931685885E+01  0.12519630700E+03  0.41800000000E+01 0.  1.
         -5    1    1    2    0  502  0.43595619623E+02  0.29122872749E+02 -0.67076517158E+02  0.85237616822E+02  0.41800000000E+01 0.  1.
        -11    1    3    3    0    0 -0.64678424371E+02 -0.13927865660E+03 -0.29105573309E+02  0.15629771963E+03  0.00000000000E+00 0.  1.
         11    1    3    3    0    0  0.24396678014E+02 -0.14581131890E+02 -0.15016410645E+02  0.32144982407E+02  0.00000000000E+00 0. -1.
</event>
<event>
 7    1  0.4687179E-006  0.9444480E+02  0.7561462E-02  0.1292431E+00
         -1   -1    0    0    0  501 -0.00000000000E+00  0.00000000000E+00  0.67265446149E+02  0.67265446149E+02  0.00000000000E+00 0.  1.
          1   -1    0    0  501    0  0.00000000000E+00 -0.00000000000E+00 -0.31264206651E+03  0.31264206651E+03  0.00000000000E+00 0. -1.
         23    2    1    2    0    0  0.54843070186E+02 -0.76308028703E+02 -0.13533047145E+03  0.18864808035E+03  0.91886256450E+02 0.  0.
          5    1    1    2  502    0 -0.28095961984E+02  0.36933563110E+02 -0.13103309263E+03  0.13907053939E+03  0.41800000000E+01 0. -1.
         -5    1    1    2    0  502 -0.26747108202E+02  0.39374465593E+02  0.20986943712E+02  0.52188892921E+02  0.41800000000E+01 0. -1.
        -11    1    3    3    0    0  0.39503003885E+02 -0.62127411005E+02 -0.27150355787E+02  0.78469384689E+02  0.00000000000E+00 0.  1.
         11    1    3    3    0    0  0.15340066301E+02 -0.14180617698E+02 -0.10818011566E+03  0.11017869566E+03  0.00000000000E+00 0. -1.
</event>
<event>
 7    1  0.4687179E-006  0.2273855E+03  0.7561462E-02  0.1128494E+00
          4   -1    0    0  501    0  0.00000000000E+00  0.00000000000E+00  0.13263007620E+03  0.13263007620E+03  0.00000000000E+00 0. -1.
         -4   -1    0    0    0  501 -0.00000000000E+00 -0.00000000000E+00 -0.40886588905E+03  0.40886588905E+03  0.00000000000E+00 0.  1.
         23    2    1    2    0    0 -0.19557378967E+03  0.56177456274E+02 -0.96383418348E+02  0.24250233725E+03  0.90070008546E+02 0.  0.
          5    1    1    2  502    0  0.20647265995E+03 -0.28586778868E+02 -0.15121110432E+03  0.25754695436E+03  0.41800000000E+01 0. -1.
         -5    1    1    2    0  502 -0.10898870277E+02 -0.27590677406E+02 -0.28641290189E+02  0.41446673651E+02  0.41800000000E+01 0. -1.
        -11    1    3    3    0    0 -0.13059367014E+03  0.72446817772E+02 -0.91928548032E+02  0.17536848642E+03  0.00000000000E+00 0.  1.
         11    1    3    3    0    0 -0.64980119527E+02 -0.16269361498E+02 -0.44548703154E+01  0.67133850827E+02  0.00000000000E+00 0. -1.
</event>
<event>
 7    1  0.4687179E-006  0.2768440E+03  0.7561462E-02  0.1097425E+00
         -1   -1    0    0    0  501 -0.00000000000E+00  0.00000000000E+00  0.14374655808E+04  0.14374655808E+04  0.00000000000E+00 0.  1.
          1   -1    0    0  501    0  0.00000000000E+00 -0.00000000000E+00 -0.70111029676E+02  0.70111029676E+02  0.00000000000E+00 0. -1.
         23    2    1    2    0    0 -0.15535725330E+02 -0.26225385252E+03  0.33680831851E+03  0.43673997836E+03  0.91013863559E+02 0.  0.
          5    1    1    2  502    0  0.57533032773E+02  0.57834270799E+02  0.26090072870E+03  0.27338894524E+03  0.41800000000E+01 0. -1.
         -5    1    1    2    0  502 -0.41997307443E+02  0.20441958172E+03  0.76964550392E+03  0.79744768689E+03  0.41800000000E+01 0. -1.
        -11    1    3    3    0    0 -0.17631298835E+02 -0.15517150889E+03  0.12744549716E+03  0.20157235578E+03  0.00000000000E+00 0.  1.
         11    1    3    3    0    0  0.20955735052E+01 -0.10708234363E+03  0.20936282136E+03  0.23516762258E+03  0.00000000000E+00 0. -1.
</event>
<event>
 7    1  0.4687179E-006  0.1137458E+03  0.7561462E-02  0.1253786E+00
          1   -1    0    0  501    0  0.00000000000E+00  0.00000000000E+00  0.22995401175E+02  0.22995401175E+02  0.00000000000E+00 0. -1.
         -1   -1    0    0    0  501 -0.00000000000E+00 -0.00000000000E+00 -0.71707518032E+03  0.71707518032E+03  0.00000000000E+00 0.  1.
         23    2    1    2    0    0 -0.60345033054E+02 -0.60138637457E+01 -0.23146074052E+03  0.25701761016E+03  0.93841824164E+02 0.  0.
          5    1    1    2  502    0  0.53934937420E+02  0.58099035416E+02 -0.34773621075E+03  0.35668251998E+03  0.41800000000E+01 0. -1.
         -5    1    1    2    0  502  0.64100956337E+01 -0.52085171670E+02 -0.11488282788E+03  0.12637045135E+03  0.41800000000E+01 0. -1.
        -11    1    3    3    0    0  0.13528325210E+02  0.13441028319E+02 -0.76828018683E+01  0.20559724459E+02  0.00000000000E+00 0. -1.
         11    1    3    3    0    0 -0.73873358264E+02 -0.19454892065E+02 -0.22377793865E+03  0.23645788570E+03  0.00000000000E+00 0.  1.
</event>
<event>
 7    1  0.4687179E-006  0.1154348E+03  0.7561462E-02  0.1250824E+00
         -2   -1    0    0    0  501 -0.00000000000E+00  0.00000000000E+00  0.68014937505E+02  0.68014937505E+02  0.00000000000E+00 0.  1.
          2   -1    0    0  501    0  0.00000000000E+00 -0.00000000000E+00 -0.26348005881E+03  0.26348005881E+03  0.00000000000E+00 0. -1.
         23    2    1    2    0    0  0.51589420923E+01  0.77528606351E+02 -0.12445455230E+03  0.16801663729E+03  0.81874021102E+02 0.  0.
          5    1    1    2  502    0  0.54863095661E+02 -0.46862911007E+02 -0.62239084685E+02  0.95379598217E+02  0.41800000000E+01 0. -1.
         -5    1    1    2    0  502 -0.60022037753E+02 -0.30665695344E+02 -0.87714843226E+01  0.68098760813E+02  0.41800000000E+01 0. -1.
        -11    1    3    3    0    0 -0.21115870293E+02  0.40302509200E+02 -0.11183555926E+03  0.12073675721E+03  0.00000000000E+00 0. -1.
         11    1    3    3    0    0  0.26274812385E+02  0.37226097151E+02 -0.12618993037E+02  0.47279880079E+02  0.00000000000E+00 0.  1.
</event>
<event>
 7    1  0.4687179E-006  0.1075695E+03  0.7561462E-02  0.1265138E+00
         -1   -1    0    0    0  501 -0.00000000000E+00  0.00000000000E+00  0.28641957392E+03  0.28641957392E+03  0.00000000000E+00 0.  1.
          1   -1    0    0  501    0  0.00000000000E+00 -0.00000000000E+00 -0.66428550393E+02  0.66428550393E+02  0.00000000000E+00 0. -1.
         23    2    1    2    0    0 -0.55230215273E+02 -0.53435931136E+02  0.42287494156E+02  0.12358873893E+03  0.87064164914E+02 0.  0.
          5    1    1    2  502    0  0.72444477621E+02  0.72392250775E+02  0.85511281385E+02  0.13348592418E+03  0.41800000000E+01 0. -1.
         -5    1    1    2    0  502 -0.17214262348E+02 -0.18956319639E+02  0.92192247986E+02  0.95773461205E+02  0.41800000000E+01 0.  1.
        -11    1    3    3    0    0 -0.29131386535E+02 -0.22256197657E+01 -0.22576547368E+02  0.36922778279E+02  0.00000000000E+00 0. -1.
         11    1    3    3    0    0 -0.26098828738E+02 -0.51210311371E+02  0.64864041524E+02  0.86665960648E+02  0.00000000000E+00 0.  1.
</event>
<event>
 7    1  0.4687179E-006  0.9973463E+02  0.7561462E-02  0.1280855E+00
          1   -1    0    0  501    0  0.00000000000E+00  0.00000000000E+00  0.31808655413E+02  0.31808655413E+02  0.00000000000E+00 0. -1.
         -1   -1    0    0    0  501 -0.00000000000E+00 -0.00000000000E+00 -0.50802842337E+03  0.50802842337E+03  0.00000000000E+00 0.  1.
         23    2    1    2    0    0 -0.17042770699E+02  0.14097619308E+02 -0.77763514725E+02  0.12162219389E+03  0.90860304428E+02 0.  0.
          5    1    1    2  502    0 -0.44228291648E+02 -0.12162276845E+02 -0.68235125112E+02  0.82325982892E+02  0.41800000000E+01 0. -1.
         -5    1    1    2    0  502  0.61271062347E+02 -0.19353424635E+01 -0.33022112812E+03  0.33588890200E+03  0.41800000000E+01 0. -1.
        -11    1    3    3    0    0 -0.48293215072E+02  0.30049414750E+02 -0.37075657605E+02  0.67895554609E+02  0.00000000000E+00 0.  1.
         11    1    3    3    0    0  0.31250444373E+02 -0.15951795442E+02 -0.40687857120E+02  0.53726639280E+02  0.00000000000E+00 0. -1.
</event>
<event>
 7    1  0.4687179E-006  0.1192033E+03  0.7561462E-02  0.1244417E+00
          1   -1    0    0  501    0  0.00000000000E+00  0.00000000000E+00  0.29478786054E+02  0.29478786054E+02  0.00000000000E+00 0. -1.
         -1   -1    0    0    0  501 -0.00000000000E+00 -0.00000000000E+00 -0.61768072387E+03  0.61768072387E+03  0.00000000000E+00 0.  1.
         23    2    1    2    0    0  0.17119725684E+02 -0.70264192677E+02 -0.18523728226E+03  0.21907287206E+03  0.91923504912E+02 0.  0.
          5    1    1    2  502    0 -0.60078954968E+02  0.35485718043E+02 -0.11301054301E+03  0.13288179802E+03  0.41800000000E+01 0.  1.
         -5    1    1    2    0  502  0.42959229284E+02  0.34778474634E+02 -0.28995411255E+03  0.29520483984E+03  0.41800000000E+01 0.  1.
        -11    1    3    3    0    0  0.29501488295E+02  0.10540000176E+02 -0.28752032945E+02  0.42521862774E+02  0.00000000000E+00 0. -1.
         11    1    3    3    0    0 -0.12381762611E+02 -0.80804192853E+02 -0.15648524931E+03  0.17655100929E+03  0.00000000000E+00 0.  1.
</event>
<event>
 7    1  0.4687179E-006  0.7228347E+02  0.7561462E-02  0.1352496E+00
         -4   -1    0    0    0  501 -0.00000000000E+00  0.00000000000E+00  0.77717779646E+03  0.77717779646E+03  0.00000000000E+00 0. -1.
          4   -1    0    0  501    0  0.00000000000E+00 -0.00000000000E+00 -0.20796031252E+02  0.20796031252E+02  0.00000000000E+00 0.  1.
         23    2    1    2    0    0  0.83559624081E+01 -0.45919686895E+02  0.19263087799E+03  0.21862863904E+03  0.92268016663E+02 0.  0.
          5    1    1    2  502    0 -0.82132823360E+00  0.42995477501E+02  0.52409506126E+02  0.67922856226E+02  0.41800000000E+01 0.  1.
         -5    1    1    2    0  502 -0.75346341745E+01  0.29242093945E+01  0.51134138108E+03  0.51142233244E+03  0.41800000000E+01 0.  1.
        -11    1    3    3    0    0  0.43092490972E+02 -0.14623039968E+02  0.45924529185E+02  0.64651824854E+02  0.00000000000E+00 0.  1.
         11    1    3    3    0    0 -0.34736528564E+02 -0.31296646927E+02  0.14670634881E+03  0.15397681418E+03  0.00000000000E+00 0. -1.
</event>
<event>
 7    1  0.4687179E-006  0.2899229E+03  0.7561462E-02  0.1090389E+00
         -2   -1    0    0    0  501 -0.00000000000E+00  0.00000000000E+00  0.68564609256E+02  0.68564609256E+02  0.00000000000E+00 0.  1.
          2   -1    0    0  501    0  0.00000000000E+00 -0.00000000000E+00 -0.14795168893E+04  0.14795168893E+04  0.00000000000E+00 0. -1.
         23    2    1    2    0    0 -0.27923141431E+03 -0.48392953372E+02 -0.92664337306E+03  0.97317691872E+03  0.89962845811E+02 0.  0.
          5    1    1    2  502    0  0.54921137981E+02 -0.20312298950E+02 -0.18796601408E+03  0.19692032839E+03  0.41800000000E+01 0. -1.
         -5    1    1    2    0  502  0.22431027633E+03  0.68705252322E+02 -0.29634289291E+03  0.37798425145E+03  0.41800000000E+01 0. -1.
        -11    1    3    3    0    0 -0.26232921876E+02 -0.17715617142E+02 -0.42229408191E+02  0.52776246523E+02  0.00000000000E+00 0.  1.
         11    1    3    3    0    0 -0.25299849243E+03 -0.30677336229E+02 -0.88441396487E+03  0.92040067220E+03  0.00000000000E+00 0. -1.
</event>
<event>
 7    1  0.4687179E-006  0.8895474E+02  0.7561462E-02  0.1305403E+00
          3   -1    0    0  501    0  0.00000000000E+00  0.00000000000E+00  0.40938497841E+02  0.40938497841E+02  0.00000000000E+00 0. -1.
         -3   -1    0    0    0  501 -0.00000000000E+00 -0.00000000000E+00 -0.30223407609E+03  0.30223407609E+03  0.00000000000E+00 0.  1.
         23    2    1    2    0    0 -0.77604506527E-01 -0.27728003893E+02 -0.98209494231E+02  0.13578982085E+03  0.89581931593E+02 0.  0.
          5    1    1    2  502    0 -0.84358953906E+01  0.64677615042E+02 -0.15523863576E+03  0.16843653004E+03  0.41800000000E+01 0.  1.
         -5    1    1    2    0  502  0.85134998972E+01 -0.36949611150E+02 -0.78474482531E+01  0.38946223035E+02  0.41800000000E+01 0.  1.
        -11    1    3    3    0    0  0.29820305419E+02  0.48197761540E+01 -0.84156860940E+02  0.89413970389E+02  0.00000000000E+00 0.  1.
         11    1    3    3    0    0 -0.29897909925E+02 -0.32547780047E+02 -0.14052633291E+02  0.46375850464E+02  0.00000000000E+00 0. -1.
</event>
<event>
 7    1  0.4687179E-006  0.8123844E+02  0.7561462E-02  0.1325573E+00
          2   -1    0    0  501    0  0.00000000000E+00  0.00000000000E+00  0.70011270948E+02  0.70011270948E+02  0.00000000000E+00 0.  1.
         -2   -1    0    0    0  501 -0.00000000000E+00 -0.00000000000E+00 -0.28108381323E+03  0.28108381323E+03  0.00000000000E+00 0. -1.
         23    2    1    2    0    0 -0.80717367770E+01  0.70857720215E+02 -0.28997833921E+02  0.11896448382E+03  0.90695670185E+02 0.  0.
          5    1    1    2  502    0 -0.78041107671E+01 -0.34877557961E+02  0.89294740839E+01  0.37075006427E+02  0.41800000000E+01 0.  1.
         -5    1    1    2    0  502  0.15875847544E+02 -0.35980162255E+02 -0.19100418245E+03  0.19505559393E+03  0.41800000000E+01 0.  1.
        -11    1    3    3    0    0  0.21156143945E+02  0.29636807193E+02  0.25645534010E+02  0.44537806208E+02  0.00000000000E+00 0.  1.
         11    1    3    3    0    0 -0.29227880722E+02  0.41220913023E+02 -0.54643367930E+02  0.74426677614E+02  0.00000000000E+00 0. -1.
</event>
<event>
 7    1  0.4687179E-006  0.1041427E+03  0.7561462E-02  0.1271818E+00
          4   -1    0    0  501    0  0.00000000000E+00  0.00000000000E+00  0.26211103892E+02  0.26211103892E+02  0.00000000000E+00 0. -1.
         -4   -1    0    0    0  501 -0.00000000000E+00 -0.00000000000E+00 -0.80667893174E+03  0.80667893174E+03  0.00000000000E+00 0.  1.
         23    2    1    2    0    0 -0.61170784719E+02 -0.63228690379E+02 -0.22914634927E+03  0.26075260202E+03  0.88000783430E+02 0.  0.
          5    1    1    2  502    0  0.49820686768E+02  0.62256386447E+02 -0.14416207560E+03  0.16479725400E+03  0.41800000000E+01 0. -1.
         -5    1    1    2    0  502  0.11350097951E+02  0.97230393195E+00 -0.40715940298E+03  0.40734017962E+03  0.41800000000E+01 0. -1.
        -11    1    3    3    0    0  0.88339306761E+01 -0.42337560503E+02 -0.13392389148E+03  0.14073420362E+03  0.00000000000E+00 0.  1.
         11    1    3    3    0    0 -0.70004715395E+02 -0.20891129876E+02 -0.95222457789E+02  0.12001839839E+03  0.00000000000E+00 0. -1.
</event>
<event>
 7    1  0.4687179E-006  0.8852594E+02  0.7561462E-02  0.1306461E+00
         -1   -1    0    0    0  501 -0.00000000000E+00  0.00000000000E+00  0.30758369569E+03  0.30758369569E+03  0.00000000000E+00 0.  1.
          1   -1    0    0  501    0  0.00000000000E+00 -0.00000000000E+00 -0.46623907834E+02  0.46623907834E+02  0.00000000000E+00 0. -1.
         23    2    1    2    0    0 -0.31555824112E+02 -0.38013609842E+02  0.91526143292E+02  0.13788336217E+03  0.90520616922E+02 0.  0.
          5    1    1    2  502    0  0.23954487336E+02  0.61727298106E+02  0.17775934112E+03  0.18973648187E+03  0.41800000000E+01 0.  1.
         -5    1    1    2    0  502  0.76013367764E+01 -0.23713688265E+02 -0.83256965537E+01  0.26587759496E+02  0.41800000000E+01 0.  1.
        -11    1    3    3    0    0 -0.10814366088E+02 -0.56589424137E+02  0.93656407294E+02  0.10995833786E+03  0.00000000000E+00 0.  1.
         11    1    3    3    0    0 -0.20741458024E+02  0.18575814295E+02 -0.21302640026E+01  0.27925024305E+02  0.00000000000E+00 0. -1.
</event>
<event>
 7    1  0.4687179E-006  0.1030147E+03  0.7561462E-02  0.1274081E+00
         -2   -1    0    0    0  501 -0.00000000000E+00  0.00000000000E+00  0.21827439169E+03  0.21827439169E+03  0.00000000000E+00 0.  1.
          2   -1    0    0  501    0  0.00000000000E+00 -0.00000000000E+00 -0.89823620320E+02  0.89823620320E+02  0.00000000000E+00 0. -1.
         23    2    1    2    0    0  0.78451026989E+02  0.36515407746E+02  0.44577403745E+02  0.13439696370E+03  0.92668550695E+02 0.  0.
          5    1    1    2  502    0 -0.43562450648E+02 -0.42843045249E+02  0.11239951687E+03  0.12800131806E+03  0.41800000000E+01 0.  1.
         -5    1    1    2    0  502 -0.34888576341E+02  0.63276375027E+01 -0.28526149238E+02  0.45699730260E+02  0.41800000000E+01 0.  1.
        -11    1    3    3    0    0  0.21419135462E+02  0.46488800742E+02 -0.12929283030E+02  0.52793506400E+02  0.00000000000E+00 0. -1.
         11    1    3    3    0    0  0.57031891527E+02 -0.99733929963E+01  0.57506686774E+02  0.81603457297E+02  0.00000000000E+00 0.  1.
</event>
<event>
 7    1  0.4687179E-006  0.1462291E+03  0.7561462E-02  0.1205185E+00
          1   -1    0    0  501    0  0.00000000000E+00  0.00000000000E+00  0.90370633133E+03  0.90370633133E+03  0.00000000000E+00 0. -1.
         -1   -1    0    0    0  501 -0.00000000000E+00 -0.00000000000E+00 -0.31461953199E+02  0.31461953199E+02  0.00000000000E+00 0.  1.
         23    2    1    2    0    0 -0.12845794908E+03  0.77813135623E+00  0.43506389656E+03  0.46264766242E+03  0.90885726526E+02 0.  0.
          5    1    1    2  502    0  0.86174045328E+02  0.19157883959E+02  0.10590097660E+03  0.13793288169E+03  0.41800000000E+01 0.  1.
         -5    1    1    2    0  502  0.42283903755E+02 -0.19936015315E+02  0.33127950497E+03  0.33458774042E+03  0.41800000000E+01 0.  1.
        -11    1    3    3    0    0 -0.12358436875E+03  0.30284300278E+02  0.34243829123E+03  0.36531386278E+03  0.00000000000E+00 0.  1.
         11    1    3    3    0    0 -0.48735803362E+01 -0.29506168921E+02  0.92625605330E+02  0.97333799641E+02  0.00000000000E+00 0. -1.
</event>
<event>
 7    1  0.4687179E-006  0.1640635E+03  0.7561462E-02  0.1184184E+00
          2   -1    0    0  501    0  0.00000000000E+00  0.00000000000E+00  0.44302580709E+03  0.44302580709E+03  0.00000000000E+00 0. -1.
         -2   -1    0    0    0  501 -0.00000000000E+00 -0.00000000000E+00 -0.82083510031E+02  0.82083510031E+02  0.00000000000E+00 0.  1.
         23    2    1    2    0    0 -0.15423969145E+03  0.23193683087E+02  0.18918411940E+03  0.26152465419E+03  0.90976284613E+02 0.  0.
          5    1    1    2  502    0  0.11874428285E+03  0.70033424036E+01  0.42941130401E+02  0.12653325490E+03  0.41800000000E+01 0.  1.
         -5    1    1    2    0  502  0.35495408600E+02 -0.30197025491E+02  0.12881704726E+03  0.13705140804E+03  0.41800000000E+01 0.  1.
        -11    1    3    3    0    0 -0.53446978625E+02  0.30000505128E+02  0.19995063283E+02  0.64470244204E+02  0.00000000000E+00 0.  1.
         11    1    3    3    0    0 -0.10079271283E+03 -0.68068220404E+01  0.16918905612E+03  0.19705440998E+03  0.00000000000E+00 0. -1.
</event>
<event>
 7    1  0.4687179E-006  0.7771650E+02  0.7561462E-02  0.1335659E+00
          2   -1    0    0  501    0  0.00000000000E+00  0.00000000000E+00  0.29115911245E+03  0.29115911245E+03  0.00000000000E+00 0. -1.
         -2   -1    0    0    0  501 -0.00000000000E+00 -0.00000000000E+00 -0.75821879820E+02  0.75821879820E+02  0.00000000000E+00 0.  1.
         23    2    1    2    0    0  0.11589325255E+02 -0.12934545635E+01  0.16575876124E+03  0.18884179757E+03  0.89717735695E+02 0.  0.
          5    1    1    2  502    0  0.22859107778E+02 -0.24405641958E+02  0.10362152582E+03  0.10896360485E+03  0.41800000000E+01 0. -1.
         -5    1    1    2    0  502 -0.34448433033E+02  0.25699096521E+02 -0.54043054424E+02  0.69175589856E+02  0.41800000000E+01 0.  1.
        -11    1    3    3    0    0  0.41889607472E+02  0.14569582236E+02  0.44402751698E+02  0.62758396244E+02  0.00000000000E+00 0. -1.
         11    1    3    3    0    0 -0.30300282217E+02 -0.15863036799E+02  0.12135600954E+03  0.12608340133E+03  0.00000000000E+00 0.  1.
</event>
<event>
 7    1  0.4687179E-006  0.9238456E+02  0.7561462E-02  0.1297178E+00
         -4   -1    0    0    0  501 -0.00000000000E+00  0.00000000000E+00  0.11986935689E+03  0.11986935689E+03  0.00000000000E+00 0.  1.
          4   -1    0    0  501    0  0.00000000000E+00 -0.00000000000E+00 -0.15508702408E+03  0.15508702408E+03  0.00000000000E+00 0. -1.
         23    2    1    2    0    0  0.34750438497E+02 -0.38412884855E+02 -0.80657821409E+02  0.13213795010E+03  0.90948397481E+02 0.  0.
          5    1    1    2  502    0 -0.49492797659E+02  0.68644993462E+02  0.62101221594E+02  0.10505096987E+03  0.41800000000E+01 0. -1.
         -5    1    1    2    0  502  0.14742359162E+02 -0.30232108607E+02 -0.16661067372E+02  0.37767461002E+02  0.41800000000E+01 0. -1.
        -11    1    3    3    0    0 -0.48984633417E+01 -0.23146313224E+02 -0.86111812461E+02  0.89302805131E+02  0.00000000000E+00 0. -1.
         11    1    3    3    0    0  0.39648901839E+02 -0.15266571631E+02  0.54539910517E+01  0.42835144972E+02  0.00000000000E+00 0.  1.
</event>
<event>
 7    1  0.4687179E-006  0.1012766E+03  0.7561462E-02  0.1277634E+00
          1   -1    0    0  501    0  0.00000000000E+00  0.00000000000E+00  0.99704701176E+02  0.99704701176E+02  0.00000000000E+00 0. -1.
         -1   -1    0    0    0  501 -0.00000000000E+00 -0.00000000000E+00 -0.32259626341E+03  0.32259626341E+03  0.00000000000E+00 0.  1.
         23    2    1    2    0    0 -0.12261550264E+02 -0.71946433995E+02  0.43952592638E+02  0.12416859715E+03  0.90329259600E+02 0.  0.
          5    1    1    2  502    0  0.23939247373E+02  0.15907806085E+02 -0.42684778625E+01  0.29357080278E+02  0.41800000000E+01 0. -1.
         -5    1    1    2    0  502 -0.11677697109E+02  0.56038627910E+02 -0.26257567701E+03  0.26877528715E+03  0.41800000000E+01 0.  1.
        -11    1    3    3    0    0  0.36198780289E+02 -0.10175422709E+02  0.13270991289E+02  0.39874931116E+02  0.00000000000E+00 0.  1.
         11    1    3    3    0    0 -0.48460330553E+02 -0.61771011286E+02  0.30681601349E+02  0.84293666037E+02  0.00000000000E+00 0. -1.
</event>
<event>
 7    1  0.4687179E-006  0.1152346E+03  0.7561462E-02  0.1251172E+00
         -3   -1    0    0    0  501 -0.00000000000E+00  0.00000000000E+00  0.23590260461E+03  0.23590260461E+03  0.00000000000E+00 0.  1.
          3   -1    0    0  501    0  0.00000000000E+00 -0.00000000000E+00 -0.63254918431E+02  0.63254918431E+02  0.00000000000E+00 0. -1.
         23    2    1    2    0    0  0.15050042296E+02  0.51136812583E+02  0.59096019472E+02  0.12200805203E+03  0.92477823655E+02 0.  0.
          5    1    1    2  502    0 -0.33178325759E+02 -0.86145802243E+02  0.97625218684E+02  0.13442490940E+03  0.41800000000E+01 0.  1.
         -5    1    1    2    0  502  0.18128283463E+02  0.35008989660E+02  0.15926448020E+02  0.42724561611E+02  0.41800000000E+01 0.  1.
        -11    1    3    3    0    0  0.47881906113E+02  0.16386667779E+02  0.53874853209E+02  0.73916842615E+02  0.00000000000E+00 0.  1.
         11    1    3    3    0    0 -0.32831863817E+02  0.34750144804E+02  0.52211662632E+01  0.48091209413E+02  0.00000000000E+00 0. -1.
</event>
<event>
 7    1  0.4687179E-006  0.2067784E+03  0.7561462E-02  0.1144143E+00
          1   -1    0    0  501    0  0.00000000000E+00  0.00000000000E+00  0.11983723631E+04  0.11983723631E+04  0.00000000000E+00 0. -1.
         -1   -1    0    0    0  501 -0.00000000000E+00 -0.00000000000E+00 -0.39505286127E+02  0.39505286127E+02  0.00000000000E+00 0.  1.
         23    2    1    2    0    0  0.17169925810E+03 -0.77885627872E+02  0.59707646259E+03  0.63223511107E+03  0.87602096027E+02 0.  0.
          5    1    1    2  502    0  0.18451410799E+02  0.11948901881E+01  0.76219132172E+02  0.78541141016E+02  0.41800000000E+01 0. -1.
         -5    1    1    2    0  502 -0.19015066890E+03  0.76690737684E+02  0.48557148220E+03  0.52710139713E+03  0.41800000000E+01 0. -1.
        -11    1    3    3    0    0  0.94442985839E+02 -0.53325271007E+02  0.20559828365E+03  0.23245153547E+03  0.00000000000E+00 0.  1.
         11    1    3    3    0    0  0.77256272264E+02 -0.24560356865E+02  0.39147817894E+03  0.39978357560E+03  0.00000000000E+00 0. -1.
</event>
<event>
 7    1  0.4687179E-006  0.1094409E+03  0.7561462E-02  0.1261609E+00
          2   -1    0    0  501    0  0.00000000000E+00  0.00000000000E+00  0.13687751090E+03  0.13687751090E+03  0.00000000000E+00 0. -1.
         -2   -1    0    0    0  501 -0.00000000000E+00 -0.00000000000E+00 -0.90873439545E+02  0.90873439545E+02  0.00000000000E+00 0.  1.
         23    2    1    2    0    0 -0.24340457114E+02 -0.10930195908E+02  0.28561813108E+02  0.98661453573E+02  0.90589062353E+02 0.  0.
          5    1    1    2  502    0  0.73549385032E+02 -0.20877351857E+01  0.24204705143E+02  0.77570682786E+02  0.41800000000E+01 0.  1.
         -5    1    1    2    0  502 -0.49208927918E+02  0.13017931094E+02 -0.67624468959E+01  0.51518814086E+02  0.41800000000E+01 0.  1.
        -11    1    3    3    0    0 -0.50486667192E+02 -0.32646688120E+02  0.22152580172E+02  0.64073759197E+02  0.00000000000E+00 0. -1.
         11    1    3    3    0    0  0.26146210078E+02  0.21716492212E+02  0.64092329353E+01  0.34587694376E+02  0.00000000000E+00 0.  1.
</event>
<event>
 7    1  0.4687179E-006  0.1106212E+03  0.7561462E-02  0.1259424E+00
         -2   -1    0    0    0  501 -0.00000000000E+00  0.00000000000E+00  0.10276321379E+03  0.10276321379E+03  0.00000000000E+00 0. -1.
          2   -1    0    0  501    0  0.00000000000E+00 -0.00000000000E+00 -0.17603550753E+03  0.17603550753E+03  0.00000000000E+00 0.  1.
         23    2    1    2    0    0 -0.21038644590E+02  0.40844148245E+02 -0.97345208615E+02  0.14338530002E+03  0.94722677378E+02 0.  0.
          5    1    1    2  502    0 -0.38756984357E+02 -0.46287031394E+02  0.40751423677E+02  0.72957138399E+02  0.41800000000E+01 0. -1.
         -5    1    1    2    0  502  0.59795628948E+02  0.54428831492E+01 -0.16678508804E+02  0.62456282904E+02  0.41800000000E+01 0. -1.
        -11    1    3    3    0    0 -0.49755926979E+02 -0.10269116454E+01 -0.26964123123E+02  0.56601861744E+02  0.00000000000E+00 0.  1.
         11    1    3    3    0    0  0.28717282389E+02  0.41871059890E+02 -0.70381085492E+02  0.86783438277E+02  0.00000000000E+00 0. -1.
</event>
<event>
 7    1  0.4687179E-006  0.1077880E+03  0.7561462E-02  0.1264722E+00
         -1   -1    0    0    0  501 -0.00000000000E+00  0.00000000000E+00  0.32203388945E+02  0.32203388945E+02  0.00000000000E+00 0.  1.
          1   -1    0    0  501    0  0.00000000000E+00 -0.00000000000E+00 -0.64199581912E+03  0.64199581912E+03  0.00000000000E+00 0. -1.
         23    2    1    2    0    0  0.41099300106E+02 -0.77384054607E+02 -0.34236400391E+03  0.36623320491E+03  0.96105175903E+02 0.  0.
          5    1    1    2  502    0 -0.14048629119E+02  0.48525841301E+02 -0.26312049354E+03  0.26795892927E+03  0.41800000000E+01 0.  1.
         -5    1    1    2    0  502 -0.27050670987E+02  0.28858213306E+02 -0.43079327282E+01  0.40007073880E+02  0.41800000000E+01 0.  1.
        -11    1    3    3    0    0  0.16683983968E+02  0.19230143042E+02 -0.11830300717E+03  0.12101138471E+03  0.00000000000E+00 0.  1.
         11    1    3    3    0    0  0.24415316139E+02 -0.96614197649E+02 -0.22406099673E+03  0.24522182021E+03  0.00000000000E+00 0. -1.
</event>
<event>
 7    1  0.4687179E-006  0.1435290E+03  0.7561462E-02  0.1208658E+00
         -2   -1    0    0    0  501 -0.00000000000E+00  0.00000000000E+00  0.14074094724E+03  0.14074094724E+03  0.00000000000E+00 0.  1.
          2   -1    0    0  501    0  0.00000000000E+00 -0.00000000000E+00 -0.17649486734E+03  0.17649486734E+03  0.00000000000E+00 0. -1.
         23    2    1    2    0    0  0.22985297571E+02 -0.10692045721E+03 -0.11411114861E+02  0.14930406173E+03  0.10100089719E+03 0.  0.
          5    1    1    2  502    0  0.23602127865E+02 -0.10473068851E+02  0.21134660013E+02  0.33628735700E+02  0.41800000000E+01 0. -1.
         -5    1    1    2    0  502 -0.46587425436E+02  0.11739352606E+03 -0.45477465245E+02  0.13430301715E+03  0.41800000000E+01 0. -1.
        -11    1    3    3    0    0 -0.28785098276E+02 -0.28078140275E+02  0.25945734063E+02  0.47855459042E+02  0.00000000000E+00 0.  1.
         11    1    3    3    0    0  0.51770395846E+02 -0.78842316938E+02 -0.37356848924E+02  0.10144860269E+03  0.00000000000E+00 0. -1.
</event>
<event>
 7    1  0.4687179E-006  0.1570912E+03  0.7561462E-02  0.1192020E+00
          1   -1    0    0  501    0  0.00000000000E+00  0.00000000000E+00  0.32866124021E+02  0.32866124021E+02  0.00000000000E+00 0. -1.
         -1   -1    0    0    0  501 -0.00000000000E+00 -0.00000000000E+00 -0.91956610140E+03  0.91956610140E+03  0.00000000000E+00 0.  1.
         23    2    1    2    0    0  0.13487679586E+03  0.26892742424E+02 -0.35505692746E+03  0.38921981910E+03  0.80694957628E+02 0.  0.
          5    1    1    2  502    0  0.50319987275E+01  0.24502633514E+02 -0.17237228763E+03  0.17422794840E+03  0.41800000000E+01 0. -1.
         -5    1    1    2    0  502 -0.13990879458E+03 -0.51395375938E+02 -0.35927076229E+03  0.38898445793E+03  0.41800000000E+01 0. -1.
        -11    1    3    3    0    0  0.35536145228E+02  0.18380102476E+02 -0.32317267024E+02  0.51430064482E+02  0.00000000000E+00 0. -1.
         11    1    3    3    0    0  0.99340650629E+02  0.85126399482E+01 -0.32273966044E+03  0.33778975462E+03  0.00000000000E+00 0.  1.
</event>
<event>
 7    1  0.4687179E-006  0.1001147E+03  0.7561462E-02  0.1280055E+00
         -2   -1    0    0    0  501 -0.00000000000E+00  0.00000000000E+00  0.71712998976E+03  0.71712998976E+03  0.00000000000E+00 0.  1.
          2   -1    0    0  501    0  0.00000000000E+00 -0.00000000000E+00 -0.14195056126E+02  0.14195056126E+02  0.00000000000E+00 0. -1.
         23    2    1    2    0    0 -0.12091660006E+02  0.23961240219E+02  0.28237350351E+03  0.29578571244E+03  0.83869201292E+02 0.  0.
          5    1    1    2  502    0  0.52428499753E+02 -0.43458876495E+02  0.25671084267E+03  0.26562257185E+03  0.41800000000E+01 0. -1.
         -5    1    1    2    0  502 -0.40336839747E+02  0.19497636276E+02  0.16385058746E+03  0.16991676160E+03  0.41800000000E+01 0.  1.
        -11    1    3    3    0    0 -0.25506282676E+01 -0.31059578104E+02  0.12398208012E+03  0.12783880197E+03  0.00000000000E+00 0. -1.
         11    1    3    3    0    0 -0.95410317384E+01  0.55020818323E+02  0.15839142339E+03  0.16794691048E+03  0.00000000000E+00 0.  1.
</event>
<event>
 7    1  0.4687179E-006  0.1733590E+03  0.7561462E-02  0.1174389E+00
          4   -1    0    0  501    0  0.00000000000E+00  0.00000000000E+00  0.11974533889E+04  0.11974533889E+04  0.00000000000E+00 0. -1.
         -4   -1    0    0    0  501 -0.00000000000E+00 -0.00000000000E+00 -0.32595837390E+02  0.32595837390E+02  0.00000000000E+00 0.  1.
         23    2    1    2    0    0  0.15951352021E+03 -0.40823971506E+02  0.59751324163E+03  0.62619638247E+03  0.89379391945E+02 0.  0.
          5    1    1    2  502    0 -0.31655785592E+02  0.18557576299E+02  0.34031312040E+03  0.34231121032E+03  0.41800000000E+01 0. -1.
         -5    1    1    2    0  502 -0.12785773462E+03  0.22266395208E+02  0.22703118949E+03  0.26154163351E+03  0.41800000000E+01 0. -1.
        -11    1    3    3    0    0  0.58591214623E+02  0.20228540235E+02  0.12982236843E+03  0.14386094541E+03  0.00000000000E+00 0. -1.
         11    1    3    3    0    0  0.10092230559E+03 -0.61052511742E+02  0.46769087321E+03  0.48233543705E+03  0.00000000000E+00 0.  1.
</event>
<event>
 7    1  0.4687179E-006  0.1376756E+03  0.7561462E-02  0.1216491E+00
          1   -1    0    0  501    0  0.00000000000E+00  0.00000000000E+00  0.51632626899E+03  0.51632626899E+03  0.00000000000E+00 0. -1.
         -1   -1    0    0    0  501 -0.00000000000E+00 -0.00000000000E+00 -0.41418142941E+02  0.41418142941E+02  0.00000000000E+00 0.  1.
         23    2    1    2    0    0 -0.84242461453E+02 -0.36163530101E+02  0.28259043415E+03  0.31068191222E+03  0.90891715188E+02 0.  0.
          5    1    1    2  502    0  0.11721647177E+03  0.29100717407E+02  0.14393723052E+03  0.18794135186E+03  0.41800000000E+01 0. -1.
         -5    1    1    2    0  502 -0.32974010319E+02  0.70628126944E+01  0.48380461386E+02  0.59121147854E+02  0.41800000000E+01 0. -1.
        -11    1    3    3    0    0 -0.46692387666E+02 -0.60014889675E+02  0.11956371978E+03  0.14169491570E+03  0.00000000000E+00 0. -1.
         11    1    3    3    0    0 -0.37550073788E+02  0.23851359574E+02  0.16302671437E+03  0.16898699652E+03  0.00000000000E+00 0.  1.
</event>
<event>
 7    1  0.4687179E-006  0.1185948E+03  0.7561462E-02  0.1245433E+00
         -4   -1    0    0    0  501 -0.00000000000E+00  0.00000000000E+00  0.56400280163E+02  0.56400280163E+02  0.00000000000E+00 0.  1.
          4   -1    0    0  501    0  0.00000000000E+00 -0.00000000000E+00 -0.47309869177E+03  0.47309869177E+03  0.00000000000E+00 0. -1.
         23    2    1    2    0    0  0.84278153973E+02  0.73532812316E+02 -0.23407521732E+03  0.28148856345E+03  0.10924615447E+03 0.  0.
          5    1    1    2  502    0 -0.67470680297E+02 -0.48513340307E+02 -0.24147183622E+02  0.86639458473E+02  0.41800000000E+01 0.  1.
         -5    1    1    2    0  502 -0.16807473676E+02 -0.25019472009E+02 -0.15847601067E+03  0.16137095001E+03  0.41800000000E+01 0.  1.
        -11    1    3    3    0    0 -0.55061574941E+01  0.15992774541E+02  0.66702185025E+01  0.18181815716E+02  0.00000000000E+00 0.  1.
         11    1    3    3    0    0  0.89784311467E+02  0.57540037775E+02 -0.24074543582E+03  0.26330674774E+03  0.00000000000E+00 0. -1.
</event>
<event>
 7    1  0.4687179E-006  0.1773087E+03  0.7561462E-02  0.1170433E+00
         -1   -1    0    0    0  501 -0.00000000000E+00  0.00000000000E+00  0.29540526249E+03  0.29540526249E+03  0.00000000000E+00 0.  1.
          1   -1    0    0  501    0  0.00000000000E+00 -0.00000000000E+00 -0.12259158858E+03  0.12259158858E+03  0.00000000000E+00 0. -1.
         23    2    1    2    0    0 -0.50824533214E+02  0.14010645319E+03  0.84286912190E+02  0.19924287176E+03  0.10188467490E+03 0.  0.
          5    1    1    2  502    0  0.61971470381E+02 -0.38426268459E+02 -0.13438190073E+02  0.74263709855E+02  0.41800000000E+01 0. -1.
         -5    1    1    2    0  502 -0.11146937167E+02 -0.10168018473E+03  0.10196495179E+03  0.14449026946E+03  0.41800000000E+01 0.  1.
        -11    1    3    3    0    0  0.28499455100E+02  0.18376538144E+02  0.25839493172E+02  0.42633267557E+02  0.00000000000E+00 0. -1.
         11    1    3    3    0    0 -0.79323988314E+02  0.12172991504E+03  0.58447419018E+02  0.15660960420E+03  0.00000000000E+00 0.  1.
</event>
<event>
 7    1  0.4687179E-006  0.1006686E+03  0.7561462E-02  0.1278896E+00
         -1   -1    0    0    0  501 -0.00000000000E+00  0.00000000000E+00  0.14356430854E+03  0.14356430854E+03  0.00000000000E+00 0.  1.
          1   -1    0    0  501    0  0.00000000000E+00 -0.00000000000E+00 -0.19393516889E+03  0.19393516889E+03  0.00000000000E+00 0. -1.
         23    2    1    2    0    0 -0.37075267477E+02  0.80877035637E+02 -0.11392027936E+03  0.17136604556E+03  0.92047928658E+02 0.  0.
          5    1    1    2  502    0  0.75139382918E+01 -0.16083385874E+02 -0.37929889805E+02  0.42086619138E+02  0.41800000000E+01 0.  1.
         -5    1    1    2    0  502  0.29561329185E+02 -0.64793649763E+02  0.10147930881E+03  0.12404681273E+03  0.41800000000E+01 0.  1.
        -11    1    3    3    0    0 -0.51254245693E+02  0.30987815246E+02 -0.10178663852E+03  0.11810064427E+03  0.00000000000E+00 0. -1.
         11    1    3    3    0    0  0.14178978216E+02  0.49889220391E+02 -0.12133640831E+02  0.53265401287E+02  0.00000000000E+00 0.  1.
</event>
<event>
 7    1  0.4687179E-006  0.2549337E+03  0.7561462E-02  0.1110226E+00
          2   -1    0    0  501    0  0.00000000000E+00  0.00000000000E+00  0.85915269859E+02  0.85915269859E+02  0.00000000000E+00 0. -1.
         -2   -1    0    0    0  501 -0.00000000000E+00 -0.00000000000E+00 -0.75785697867E+03  0.75785697867E+03  0.00000000000E+00 0.  1.
         23    2    1    2    0    0 -0.12083623766E+03 -0.19610023842E+03 -0.34246532868E+03  0.42275165019E+03  0.91541010233E+02 0.  0.
          5    1    1    2  502    0  0.12350660974E+03  0.83133754287E+02 -0.18149989040E+03  0.23478668268E+03  0.41800000000E+01 0. -1.
         -5    1    1    2    0  502 -0.26703720789E+01  0.11296648413E+03 -0.14797648974E+03  0.18623391565E+03  0.41800000000E+01 0. -1.
        -11    1    3    3    0    0 -0.63670121385E+02 -0.17615469532E+03 -0.26041815645E+03  0.32078338057E+03  0.00000000000E+00 0.  1.
         11    1    3    3    0    0 -0.57166116277E+02 -0.19945543100E+02 -0.82047172229E+02  0.10196826963E+03  0.00000000000E+00 0. -1.
</event>
<event>
 7    1  0.4687179E-006  0.5373339E+02  0.7561462E-02  0.1426185E+00
         -2   -1    0    0    0  501 -0.00000000000E+00  0.00000000000E+00  0.83902455735E+02  0.83902455735E+02  0.00000000000E+00 0. -1.
          2   -1    0    0  501    0  0.00000000000E+00 -0.00000000000E+00 -0.14522621153E+03  0.14522621153E+03  0.00000000000E+00 0.  1.
         23    2    1    2    0    0  0.14612787553E+02 -0.11342601189E+02 -0.38944461043E+02  0.10072295846E+03  0.91028869885E+02 0.  0.
          5    1    1    2  502    0 -0.78875728185E+01  0.20745798139E+02 -0.72948038621E+02  0.76364197659E+02  0.41800000000E+01 0.  1.
         -5    1    1    2    0  502 -0.67252147343E+01 -0.94031969499E+01  0.50568743870E+02  0.52041511149E+02  0.41800000000E+01 0.  1.
        -11    1    3    3    0    0  0.43056148568E+02 -0.94606377097E+01  0.89545507072E+01  0.44983547812E+02  0.00000000000E+00 0. -1.
         11    1    3    3    0    0 -0.28443361015E+02 -0.18819634792E+01 -0.47899011750E+02  0.55739410645E+02  0.00000000000E+00 0.  1.
</event>
<event>
 7    1  0.4687179E-006  0.1733076E+03  0.7561462E-02  0.1174442E+00
          1   -1    0    0  501    0  0.00000000000E+00  0.00000000000E+00  0.38620358554E+03  0.38620358554E+03  0.00000000000E+00 0. -1.
         -1   -1    0    0    0  501 -0.00000000000E+00 -0.00000000000E+00 -0.88582221302E+02  0.88582221302E+02  0.00000000000E+00 0.  1.
         23    2    1    2    0    0  0.12231888046E+03 -0.86464097742E+02  0.13208049681E+03  0.21887725186E+03  0.89577034054E+02 0.  0.
          5    1    1    2  502    0 -0.10685154607E+03  0.18993265061E+02  0.14940525915E+03  0.18470896264E+03  0.41800000000E+01 0.  1.
         -5    1    1    2    0  502 -0.15467334381E+02  0.67470832681E+02  0.16135608273E+02  0.71199592343E+02  0.41800000000E+01 0.  1.
        -11    1    3    3    0    0 -0.40301878075E+01 -0.29999833393E+02  0.44077656527E+01  0.30588573282E+02  0.00000000000E+00 0.  1.
         11    1    3    3    0    0  0.12634906826E+03 -0.56464264349E+02  0.12767273116E+03  0.18828867858E+03  0.00000000000E+00 0. -1.
</event>
<event>
 7    1  0.4687179E-006  0.1017712E+03  0.7561462E-02  0.1276615E+00
         -1   -1    0    0    0  501 -0.00000000000E+00  0.00000000000E+00  0.86281981525E+02  0.86281981525E+02  0.00000000000E+00 0.  1.
          1   -1    0    0  501    0  0.00000000000E+00 -0.00000000000E+00 -0.28047271897E+03  0.28047271897E+03  0.00000000000E+00 0. -1.
         23    2    1    2    0    0  0.43423147105E+02 -0.50298170820E+02 -0.19404159373E+03  0.22510389131E+03  0.92758536513E+02 0.  0.
          5    1    1    2  502    0  0.16418369058E+02 -0.14094787319E+02  0.39417495369E+02  0.45160128579E+02  0.41800000000E+01 0.  1.
         -5    1    1    2    0  502 -0.59841516164E+02  0.64392958139E+02 -0.39566639087E+02  0.96490680604E+02  0.41800000000E+01 0.  1.
        -11    1    3    3    0    0  0.43570400549E+02 -0.37183810627E+00 -0.28179104044E+02  0.51890075855E+02  0.00000000000E+00 0.  1.
         11    1    3    3    0    0 -0.14725344332E+00 -0.49926332714E+02 -0.16586248968E+03  0.17321381546E+03  0.00000000000E+00 0. -1.
</event>
<event>
 7    1  0.4687179E-006  0.1010786E+03  0.7561462E-02  0.1278044E+00
          2   -1    0    0  501    0  0.00000000000E+00  0.00000000000E+00  0.74125433753E+02  0.74125433753E+02  0.00000000000E+00 0. -1.
         -2   -1    0    0    0  501 -0.00000000000E+00 -0.00000000000E+00 -0.23600106638E+03  0.23600106638E+03  0.00000000000E+00 0.  1.
         23    2    1    2    0    0 -0.59392016855E+02 -0.61611880200E+01 -0.17813170860E+02  0.11020908949E+03  0.90903038707E+02 0.  0.
          5    1    1    2  502    0  0.52890859287E+02  0.49642065794E+02 -0.13716332144E+03  0.15521928631E+03  0.41800000000E+01 0. -1.
         -5    1    1    2    0  502  0.65011575688E+01 -0.43480877774E+02 -0.68991403216E+01  0.44698124333E+02  0.41800000000E+01 0. -1.
        -11    1    3    3    0    0  0.49689043340E+01  0.16399513142E+02 -0.35788612499E+02  0.39679450931E+02  0.00000000000E+00 0.  1.
         11    1    3    3    0    0 -0.64360921189E+02 -0.22560701162E+02  0.17975441639E+02  0.70529638560E+02  0.00000000000E+00 0. -1.
</event>
<event>
 7    1  0.4687179E-006  0.6213156E+02  0.7561462E-02  0.1389098E+00
          1   -1    0    0  501    0  0.00000000000E+00  0.00000000000E+00  0.22066448305E+03  0.22066448305E+03  0.00000000000E+00 0. -1.
         -1   -1    0    0    0  501 -0.00000000000E+00 -0.00000000000E+00 -0.77446784315E+02  0.77446784315E+02  0.00000000000E+00 0.  1.
         23    2    1    2    0    0 -0.28888646526E+02  0.26958104112E+02  0.14512636265E+03  0.17778226747E+03  0.94781750436E+02 0.  0.
          5    1    1    2  502    0 -0.97652911548E+01 -0.37833006693E+02 -0.46031697534E+02  0.60523440786E+02  0.41800000000E+01 0. -1.
         -5    1    1    2    0  502  0.38653937680E+02  0.10874902581E+02  0.44123033619E+02  0.59805559107E+02  0.41800000000E+01 0.  1.
        -11    1    3    3    0    0 -0.14302972516E+02  0.41495740497E+00 -0.11435943741E+02  0.18317423992E+02  0.00000000000E+00 0.  1.
         11    1    3    3    0    0 -0.14585674010E+02  0.26543146707E+02  0.15656230639E+03  0.15946484348E+03  0.00000000000E+00 0. -1.
</event>
<event>
 7    1  0.8715511E-006  0.2187514E+03  0.7561462E-02  0.1134817E+00
          4   -1    0    0  501    0  0.00000000000E+00  0.00000000000E+00  0.18213751893E+03  0.18213751893E+03  0.00000000000E+00 0. -1.
         -4   -1    0    0    0  501 -0.00000000000E+00 -0.00000000000E+00 -0.32097337764E+03  0.32097337764E+03  0.00000000000E+00 0.  1.
         23    2    1    2    0    0  0.19001577137E+03 -0.78796220523E+02 -0.31994882007E+01  0.22677853204E+03  0.95411886733E+02 0.  0.
          5    1    1    2  502    0 -0.20252081767E+03  0.80613168330E+02 -0.14337639885E+03  0.26093567914E+03  0.41800000000E+01 0.  1.
         -5    1    1    2    0  502  0.12505046306E+02 -0.18169478064E+01  0.77400283416E+01  0.15396685396E+02  0.41800000000E+01 0.  1.
        -11    1    3    3    0    0  0.79719568642E+02 -0.40539089048E+02 -0.48279513582E+02  0.10163433867E+03  0.00000000000E+00 0. -1.
         11    1    3    3    0    0  0.11029620273E+03 -0.38257131475E+02  0.45080025381E+02  0.12514419337E+03  0.00000000000E+00 0.  1.
</event>
<event>
 7    1  0.4687179E-006  0.1254079E+03  0.7561462E-02  0.1234433E+00
         -1   -1    0    0    0  501 -0.00000000000E+00  0.00000000000E+00  0.64741038946E+03  0.64741038946E+03  0.00000000000E+00 0.  1.
          1   -1    0    0  501    0  0.00000000000E+00 -0.00000000000E+00 -0.27500549475E+02  0.27500549475E+02  0.00000000000E+00 0. -1.
         23    2    1    2    0    0  0.68411571184E+02 -0.89960662400E+01  0.18784586401E+03  0.21984825226E+03  0.91028089712E+02 0.  0.
          5    1    1    2  502    0  0.19465007585E+02 -0.33590698304E+02  0.19074994945E+03  0.19470551391E+03  0.41800000000E+01 0. -1.
         -5    1    1    2    0  502 -0.87876578770E+02  0.42586764544E+02  0.24131402652E+03  0.26035717276E+03  0.41800000000E+01 0. -1.
        -11    1    3    3    0    0  0.30939300413E+02 -0.49799295084E+02  0.10302893200E+03  0.11854185307E+03  0.00000000000E+00 0. -1.
         11    1    3    3    0    0  0.37472270772E+02  0.40803228844E+02  0.84816932015E+02  0.10130639919E+03  0.00000000000E+00 0.  1.
</event>
<event>
 7    1  0.4687179E-006  0.7362389E+02  0.7561462E-02  0.1348186E+00
         -3   -1    0    0    0  501 -0.00000000000E+00  0.00000000000E+00  0.41302320643E+03  0.41302320643E+03  0.00000000000E+00 0.  1.
          3   -1    0    0  501    0  0.00000000000E+00 -0.00000000000E+00 -0.32840868135E+02  0.32840868135E+02  0.00000000000E+00 0. -1.
         23    2    1    2    0    0  0.36266275931E+02 -0.16200770059E+02  0.14014423849E+03  0.17228875591E+03  0.92007065542E+02 0.  0.
          5    1    1    2  502    0  0.23879209423E+01  0.40792178018E+01  0.23197335896E+03  0.23205916024E+03  0.41800000000E+01 0. -1.
         -5    1    1    2    0  502 -0.38654196873E+02  0.12121552257E+02  0.80647408474E+01  0.41516158420E+02  0.41800000000E+01 0. -1.
        -11    1    3    3    0    0  0.41261039406E+02 -0.50691929607E+02  0.90858689545E+02  0.11192607634E+03  0.00000000000E+00 0. -1.
         11    1    3    3    0    0 -0.49947634750E+01  0.34491159548E+02  0.49285548945E+02  0.60362679562E+02  0.00000000000E+00 0.  1.
</event>
<event>
 7    1  0.4687179E-006  0.1262538E+03  0.7561462E-02  0.1233123E+00
         -2   -1    0    0    0  501 -0.00000000000E+00  0.00000000000E+00  0.31142521502E+03  0.31142521502E+03  0.00000000000E+00 0.  1.
          2   -1    0    0  501    0  0.00000000000E+00 -0.00000000000E+00 -0.66700317453E+02  0.66700317453E+02  0.00000000000E+00 0. -1.
         23    2    1    2    0    0  0.90735163055E+02  0.14108270331E+02  0.10221708258E+03  0.16744176197E+03  0.95689594908E+02 0.  0.
          5    1    1    2  502    0 -0.44308291424E+02  0.48363926645E+02  0.10573652200E+03  0.12449890993E+03  0.41800000000E+01 0.  1.
         -5    1    1    2    0  502 -0.46426871632E+02 -0.62472196976E+02  0.36771292993E+02  0.86184860578E+02  0.41800000000E+01 0.  1.
        -11    1    3    3    0    0 -0.25194990647E+01  0.15367454986E+02 -0.12233995846E+02  0.19803464410E+02  0.00000000000E+00 0. -1.
         11    1    3    3    0    0  0.93254662120E+02 -0.12591846544E+01  0.11445107842E+03  0.14763829756E+03  0.00000000000E+00 0.  1.
</event>
<event>
 7    1  0.4687179E-006  0.1130399E+03  0.7561462E-02  0.1255042E+00
          2   -1    0    0  501    0  0.00000000000E+00  0.00000000000E+00  0.39665889884E+03  0.39665889884E+03  0.00000000000E+00 0. -1.
         -2   -1    0    0    0  501 -0.00000000000E+00 -0.00000000000E+00 -0.37498462496E+02  0.37498462496E+02  0.00000000000E+00 0.  1.
         23    2    1    2    0    0  0.20151103250E+02  0.34567530814E+02  0.22322950865E+03  0.24514444523E+03  0.93077410512E+02 0.  0.
          5    1    1    2  502    0 -0.26767971986E+02  0.41044009862E+02  0.26772505028E+02  0.55994414858E+02  0.41800000000E+01 0. -1.
         -5    1    1    2    0  502  0.66168687365E+01 -0.75611540676E+02  0.10915842267E+03  0.13301850125E+03  0.41800000000E+01 0. -1.
        -11    1    3    3    0    0  0.42469006622E+02 -0.16179881357E+02  0.89448518738E+02  0.10033166294E+03  0.00000000000E+00 0.  1.
         11    1    3    3    0    0 -0.22317903373E+02  0.50747412171E+02  0.13378098991E+03  0.14481278229E+03  0.00000000000E+00 0. -1.
</event>
<event>
 7    1  0.4687179E-006  0.8880131E+02  0.7561462E-02  0.1305781E+00
          2   -1    0    0  501    0  0.00000000000E+00  0.00000000000E+00  0.20842362860E+02  0.20842362860E+02  0.00000000000E+00 0. -1.
         -2   -1    0    0    0  501 -0.00000000000E+00 -0.00000000000E+00 -0.63778846467E+03  0.63778846467E+03  0.00000000000E+00 0.  1.
         23    2    1    2    0    0  0.14726300279E+02  0.26034863798E+01 -0.17691426608E+03  0.20091997493E+03  0.94056029712E+02 0.  0.
          5    1    1    2  502    0 -0.18731624532E+02  0.50343430183E+02 -0.34132002011E+03  0.34554618107E+03  0.41800000000E+01 0. -1.
         -5    1    1    2    0  502  0.40053242529E+01 -0.52946916563E+02 -0.98711815622E+02  0.11216467153E+03  0.41800000000E+01 0. -1.
        -11    1    3    3    0    0 -0.29093479493E+01 -0.31730716108E+02 -0.15124537830E+03  0.15456541369E+03  0.00000000000E+00 0.  1.
         11    1    3    3    0    0  0.17635648228E+02  0.34334202487E+02 -0.25668887771E+02  0.46354561245E+02  0.00000000000E+00 0. -1.
</event>
<event>
 7    1  0.4687179E-006  0.1228389E+03  0.7561462E-02  0.1238486E+00
         -1   -1    0    0    0  501 -0.00000000000E+00  0.00000000000E+00  0.25668392265E+03  0.25668392265E+03  0.00000000000E+00 0.  1.
          1   -1    0    0  501    0  0.00000000000E+00 -0.00000000000E+00 -0.67250949139E+02  0.67250949139E+02  0.00000000000E+00 0. -1.
         23    2    1    2    0    0 -0.54431476997E+02 -0.23969105748E+02  0.30265377859E+02  0.11293676232E+03  0.91112103852E+02 0.  0.
          5    1    1    2  502    0 -0.36166795897E+02 -0.14027406305E+02  0.58125267972E+02  0.70005888537E+02  0.41800000000E+01 0. -1.
         -5    1    1    2    0  502  0.90598272894E+02  0.37996512053E+02  0.10104232768E+03  0.14099222093E+03  0.41800000000E+01 0. -1.
        -11    1    3    3    0    0 -0.54591984950E+02  0.24515692286E+02  0.21957438124E+02  0.63745063166E+02  0.00000000000E+00 0.  1.
         11    1    3    3    0    0  0.16050795299E+00 -0.48484798034E+02  0.83079397349E+01  0.49191699156E+02  0.00000000000E+00 0. -1.
</event>
<event>
 7    1  0.4687179E-006  0.1116276E+03  0.7561462E-02  0.1257585E+00
          4   -1    0    0  501    0  0.00000000000E+00  0.00000000000E+00  0.16696084732E+03  0.16696084732E+03  0.00000000000E+00 0. -1.
         -4   -1    0    0    0  501 -0.00000000000E+00 -0.00000000000E+00 -0.10432767452E+03  0.10432767452E+03  0.00000000000E+00 0.  1.
         23    2    1    2    0    0 -0.37225012162E+02  0.58905111605E+02  0.60608911426E+02  0.12808679916E+03  0.88754009890E+02 0.  0.
          5    1    1    2  502    0  0.15086299308E+02  0.37833192481E+02  0.13735215863E+02  0.43186519135E+02  0.41800000000E+01 0. -1.
         -5    1    1    2    0  502  0.22138712853E+02 -0.96738304087E+02 -0.11710954495E+02  0.10001520354E+03  0.41800000000E+01 0. -1.
        -11    1    3    3    0    0 -0.26604479003E+02  0.38115999642E+01  0.66446485204E+02  0.71676090806E+02  0.00000000000E+00 0. -1.
         11    1    3    3    0    0 -0.10620533159E+02  0.55093511641E+02 -0.58375737779E+01  0.56410708355E+02  0.00000000000E+00 0.  1.
</event>
<event>
 7    1  0.4687179E-006  0.1279798E+03  0.7561462E-02  0.1230485E+00
          2   -1    0    0  501    0  0.00000000000E+00  0.00000000000E+00  0.10468089652E+04  0.10468089652E+04  0.00000000000E+00 0. -1.
         -2   -1    0    0    0  501 -0.00000000000E+00 -0.00000000000E+00 -0.20931367258E+02  0.20931367258E+02  0.00000000000E+00 0.  1.
         23    2    1    2    0    0 -0.61137376580E+02  0.78285311585E+02  0.50095093747E+03  0.51904973702E+03  0.92706088930E+02 0.  0.
          5    1    1    2  502    0  0.70162776231E+02 -0.10190604561E+03  0.33688451754E+03  0.35890988821E+03  0.41800000000E+01 0.  1.
         -5    1    1    2    0  502 -0.90253996515E+01  0.23620734027E+02  0.18804214290E+03  0.18978070719E+03  0.41800000000E+01 0.  1.
        -11    1    3    3    0    0 -0.38774511755E+02  0.74315730030E+02  0.48266904128E+03  0.48989355364E+03  0.00000000000E+00 0. -1.
         11    1    3    3    0    0 -0.22362864825E+02  0.39695815553E+01  0.18281896193E+02  0.29156183381E+02  0.00000000000E+00 0.  1.
</event>
<event>
 7    1  0.4687179E-006  0.1349144E+03  0.7561462E-02  0.1220341E+00
         -1   -1    0    0    0  501 -0.00000000000E+00  0.00000000000E+00  0.43416786165E+02  0.43416786165E+02  0.00000000000E+00 0.  1.
          1   -1    0    0  501    0  0.00000000000E+00 -0.00000000000E+00 -0.80502617322E+03  0.80502617322E+03  0.00000000000E+00 0. -1.
         23    2    1    2    0    0  0.91357804698E+02  0.56560154819E+02 -0.60368281938E+03  0.62011554605E+03  0.92547525345E+02 0.  0.
          5    1    1    2  502    0 -0.81396388507E+02 -0.10314549362E+02 -0.23037847226E+02  0.85322780049E+02  0.41800000000E+01 0. -1.
         -5    1    1    2    0  502 -0.99614161909E+01 -0.46245605457E+02 -0.13488872044E+03  0.14300463328E+03  0.41800000000E+01 0. -1.
        -11    1    3    3    0    0  0.67635712960E+02 -0.11050888957E+02 -0.34209234834E+03  0.34888950487E+03  0.00000000000E+00 0.  1.
         11    1    3    3    0    0  0.23722091738E+02  0.67611043776E+02 -0.26159047104E+03  0.27122604118E+03  0.00000000000E+00 0. -1.
</event>
<event>
 7    1  0.4687179E-006  0.1663605E+03  0.7561462E-02  0.1181697E+00
          1   -1    0    0  501    0  0.00000000000E+00  0.00000000000E+00  0.46296623457E+02  0.46296623457E+02  0.00000000000E+00 0. -1.
         -1   -1    0    0    0  501 -0.00000000000E+00 -0.00000000000E+00 -0.75957309345E+03  0.75957309345E+03  0.00000000000E+00 0.  1.
         23    2    1    2    0    0 -0.70072454654E+01  0.15059010991E+03 -0.33601283146E+03  0.38077931384E+03  0.96756293085E+02 0.  0.
          5    1    1    2  502    0 -0.90410248292E+01 -0.17110280015E+02  0.45182697837E+01  0.20307362556E+02  0.41800000000E+01 0. -1.
         -5    1    1    2    0  502  0.16048270295E+02 -0.13347982989E+03 -0.38178190832E+03  0.40478304051E+03  0.41800000000E+01 0. -1.
        -11    1    3    3    0    0 -0.40419118496E+02  0.22958911810E+02 -0.10312483832E+03  0.11311741267E+03  0.00000000000E+00 0. -1.
         11    1    3    3    0    0  0.33411873030E+02  0.12763119810E+03 -0.23288799314E+03  0.26766190116E+03  0.00000000000E+00 0.  1.
</event>
<event>
 7    1  0.4687179E-006  0.1080762E+03  0.7561462E-02  0.1264174E+00
          2   -1    0    0  501    0  0.00000000000E+00  0.00000000000E+00  0.73974784064E+03  0.73974784064E+03  0.00000000000E+00 0. -1.
         -2   -1    0    0    0  501 -0.00000000000E+00 -0.00000000000E+00 -0.18400858928E+02  0.18400858928E+02  0.00000000000E+00 0.  1.
         23    2    1    2    0    0  0.15036147562E+02 -0.85968977439E+01  0.43842021943E+03  0.44831723274E+03  0.92065520092E+02 0.  0.
          5    1    1    2  502    0  0.46804373178E+02  0.33030693806E+02  0.16021925530E+03  0.17020387261E+03  0.41800000000E+01 0.  1.
         -5    1    1    2    0  502 -0.61840520740E+02 -0.24433796062E+02  0.12270750699E+03  0.13962759421E+03  0.41800000000E+01 0.  1.
        -11    1    3    3    0    0  0.32069146437E+02 -0.43035342029E+02  0.21371097838E+03  0.22034711956E+03  0.00000000000E+00 0.  1.
         11    1    3    3    0    0 -0.17032998875E+02  0.34438444285E+02  0.22470924104E+03  0.22797011318E+03  0.00000000000E+00 0. -1.
</event>
<event>
 7    1  0.4687179E-006  0.1013824E+03  0.7561462E-02  0.1277416E+00
         -3   -1    0    0    0  501 -0.00000000000E+00  0.00000000000E+00  0.17223107412E+03  0.17223107412E+03  0.00000000000E+00 0.  1.
          3   -1    0    0  501    0  0.00000000000E+00 -0.00000000000E+00 -0.14469451529E+03  0.14469451529E+03  0.00000000000E+00 0. -1.
         23    2    1    2    0    0 -0.67174503115E+02  0.32559642472E+02 -0.81607000431E+02  0.14352297986E+03  0.91469115235E+02 0.  0.
          5    1    1    2  502    0 -0.15743639910E+02 -0.36153748075E+02  0.72384222655E+02  0.82534258262E+02  0.41800000000E+01 0. -1.
         -5    1    1    2    0  502  0.82918143025E+02  0.35941056035E+01  0.36759336601E+02  0.90868351285E+02  0.41800000000E+01 0.  1.
        -11    1    3    3    0    0 -0.10997807826E+02  0.19418286259E+02  0.17827719713E+02  0.28563074211E+02  0.00000000000E+00 0.  1.
         11    1    3    3    0    0 -0.56176695289E+02  0.13141356213E+02 -0.99434720144E+02  0.11495990565E+03  0.00000000000E+00 0. -1.
</event>
<event>
 7    1  0.4687179E-006  0.1748523E+03  0.7561462E-02  0.1172880E+00
          1   -1    0    0  501    0  0.00000000000E+00  0.00000000000E+00  0.24692792898E+03  0.24692792898E+03  0.00000000000E+00 0. -1.
         -1   -1    0    0    0  501 -0.00000000000E+00 -0.00000000000E+00 -0.14870348770E+03  0.14870348770E+03  0.00000000000E+00 0.  1.
         23    2    1    2    0    0  0.99881678964E+02 -0.12168688562E+03  0.52636175700E+02  0.18945112630E+03  0.91307799983E+02 0.  0.
          5    1    1    2  502    0 -0.10389619107E+03  0.51648473492E+02  0.65280955779E+02  0.13319556644E+03  0.41800000000E+01 0. -1.
         -5    1    1    2    0  502  0.40145121069E+01  0.70038412127E+02 -0.19692690207E+02  0.72984723938E+02  0.41800000000E+01 0. -1.
        -11    1    3    3    0    0  0.78099428298E+02 -0.61776263953E+02 -0.10002224762E+02  0.10007932848E+03  0.00000000000E+00 0.  1.
         11    1    3    3    0    0  0.21782250665E+02 -0.59910621666E+02  0.62638400462E+02  0.89371797817E+02  0.00000000000E+00 0. -1.
</event>
<event>
 7    1  0.4687179E-006  0.9582564E+02  0.7561462E-02  0.1289327E+00
          3   -1    0    0  501    0  0.00000000000E+00  0.00000000000E+00  0.53032877441E+02  0.53032877441E+02  0.00000000000E+00 0. -1.
         -3   -1    0    0    0  501 -0.00000000000E+00 -0.00000000000E+00 -0.40795437300E+03  0.40795437300E+03  0.00000000000E+00 0.  1.
         23    2    1    2    0    0  0.10590804994E+02 -0.20156839479E+02 -0.10606938048E+02  0.93947166582E+02  0.90526789658E+02 0.  0.
          5    1    1    2  502    0 -0.54811201698E+02 -0.19629651344E+02 -0.23890730280E+03  0.24593446845E+03  0.41800000000E+01 0. -1.
         -5    1    1    2    0  502  0.44220396704E+02  0.39786490823E+02 -0.10540725472E+03  0.12110561541E+03  0.41800000000E+01 0. -1.
        -11    1    3    3    0    0 -0.28923060211E+02  0.77689735511E+00 -0.33040922239E+02  0.43918669423E+02  0.00000000000E+00 0.  1.
         11    1    3    3    0    0  0.39513865206E+02 -0.20933736834E+02  0.22433984190E+02  0.50028497159E+02  0.00000000000E+00 0. -1.
</event>
<event>
 7    1  0.4687179E-006  0.1070269E+03  0.7561462E-02  0.1266177E+00
         -3   -1    0    0    0  501 -0.00000000000E+00  0.00000000000E+00  0.28778533996E+03  0.28778533996E+03  0.00000000000E+00 0.  1.
          3   -1    0    0  501    0  0.00000000000E+00 -0.00000000000E+00 -0.57409461727E+02  0.57409461727E+02  0.00000000000E+00 0. -1.
         23    2    1    2    0    0 -0.26269481785E+02 -0.33224325604E+02  0.25600753761E+02  0.10255787487E+03  0.89826374858E+02 0.  0.
          5    1    1    2  502    0  0.59573076779E+02 -0.20971544089E+02  0.75675672999E+02  0.98656155521E+02  0.41800000000E+01 0. -1.
         -5    1    1    2    0  502 -0.33303594994E+02  0.54195869693E+02  0.12909945147E+03  0.14398077129E+03  0.41800000000E+01 0.  1.
        -11    1    3    3    0    0 -0.50956722231E+02 -0.77597057546E+01 -0.97767927784E+01  0.52463189486E+02  0.00000000000E+00 0.  1.
         11    1    3    3    0    0  0.24687240446E+02 -0.25464619849E+02  0.35377546539E+02  0.50094685387E+02  0.00000000000E+00 0. -1.
</event>
<event>
 7    1  0.4687179E-006  0.1654440E+03  0.7561462E-02  0.1182684E+00
         -2   -1    0    0    0  501 -0.00000000000E+00  0.00000000000E+00  0.67378277088E+02  0.67378277088E+02  0.00000000000E+00 0. -1.
          2   -1    0    0  501    0  0.00000000000E+00 -0.00000000000E+00 -0.59763901111E+03  0.59763901111E+03  0.00000000000E+00 0.  1.
         23    2    1    2    0    0  0.11469499566E+02 -0.15495010577E+03 -0.36813231448E+03  0.40797047129E+03  0.82325085970E+02 0.  0.
          5    1    1    2  502    0  0.17112136996E+02  0.10620391263E+03 -0.16857667548E+03  0.20001915959E+03  0.41800000000E+01 0.  1.
         -5    1    1    2    0  502 -0.28581636562E+02  0.48746193141E+02  0.64482559349E+01  0.57027657316E+02  0.41800000000E+01 0.  1.
        -11    1    3    3    0    0  0.34292135493E+02 -0.12020590051E+03 -0.32431905321E+03  0.34757482266E+03  0.00000000000E+00 0.  1.
         11    1    3    3    0    0 -0.22822635927E+02 -0.34744205260E+02 -0.43813261274E+02  0.60395648629E+02  0.00000000000E+00 0. -1.
</event>
<event>
 7    1  0.4687179E-006  0.1280089E+03  0.7561462E-02  0.1230440E+00
         -2   -1    0    0    0  501 -0.00000000000E+00  0.00000000000E+00  0.47567559531E+02  0.47567559531E+02  0.00000000000E+00 0.  1.
          2   -1    0    0  501    0  0.00000000000E+00 -0.00000000000E+00 -0.44919383299E+03  0.44919383299E+03  0.00000000000E+00 0. -1.
         23    2    1    2    0    0 -0.19344813370E+02  0.74718821482E+02 -0.27561242265E+03  0.30315183828E+03  0.99908485347E+02 0.  0.
          5    1    1    2  502    0 -0.25477545467E+02 -0.94181820592E+02 -0.89504143811E+02  0.13246805204E+03  0.41800000000E+01 0. -1.
         -5    1    1    2    0  502  0.44822358837E+02  0.19462999110E+02 -0.36509706995E+02  0.61141502197E+02  0.41800000000E+01 0. -1.
        -11    1    3    3    0    0 -0.35650850786E+02  0.30098717682E+01 -0.29762088168E+02  0.46538418344E+02  0.00000000000E+00 0.  1.
         11    1    3    3    0    0  0.16306037416E+02  0.71708949714E+02 -0.24585033448E+03  0.25661341994E+03  0.00000000000E+00 0. -1.
</event>
<event>
 7    1  0.4687179E-006  0.1043125E+03  0.7561462E-02  0.1271480E+00
          2   -1    0    0  501    0  0.00000000000E+00  0.00000000000E+00  0.15654194216E+03  0.15654194216E+03  0.00000000000E+00 0. -1.
         -2   -1    0    0    0  501 -0.00000000000E+00 -0.00000000000E+00 -0.13074551963E+03  0.13074551963E+03  0.00000000000E+00 0.  1.
         23    2    1    2    0    0 -0.78524766689E+02 -0.18685192569E+02  0.58565517086E+02  0.13485083305E+03  0.90771977933E+02 0.  0.
          5    1    1    2  502    0 -0.18803668222E+02 -0.50792707420E+01  0.28614048320E+02  0.34865643421E+02  0.41800000000E+01 0. -1.
         -5    1    1    2    0  502  0.97328434910E+02  0.23764463311E+02 -0.61383142885E+02  0.11757098532E+03  0.41800000000E+01 0. -1.
        -11    1    3    3    0    0 -0.64853158558E+02  0.51930201270E+00 -0.69467825853E+01  0.65226218945E+02  0.00000000000E+00 0.  1.
         11    1    3    3    0    0 -0.13671608130E+02 -0.19204494582E+02  0.65512299671E+02  0.69624614105E+02  0.00000000000E+00 0. -1.
</event>
<event>
 7    1  0.4687179E-006  0.9558073E+02  0.7561462E-02  0.1289873E+00
         -2   -1    0    0    0  501 -0.00000000000E+00  0.00000000000E+00  0.13967517730E+03  0.13967517730E+03  0.00000000000E+00 0.  1.
          2   -1    0    0  501    0  0.00000000000E+00 -0.00000000000E+00 -0.98681161783E+02  0.98681161783E+02  0.00000000000E+00 0. -1.
         23    2    1    2    0    0 -0.91744959316E+01  0.38905250401E+02  0.12669719118E+02  0.10402200707E+03  0.95195936295E+02 0.  0.
          5    1    1    2  502    0 -0.48638106352E+02  0.14820147563E+02  0.20865570730E+01  0.51060045865E+02  0.41800000000E+01 0.  1.
         -5    1    1    2    0  502  0.57812602283E+02 -0.53725397964E+02  0.26237739323E+02  0.83274286151E+02  0.41800000000E+01 0.  1.
        -11    1    3    3    0    0 -0.25584230354E+02  0.92247683436E+01  0.47923860106E+02  0.55103044937E+02  0.00000000000E+00 0.  1.
         11    1    3    3    0    0  0.16409734423E+02  0.29680482057E+02 -0.35254140988E+02  0.48918962129E+02  0.00000000000E+00 0. -1.
</event>
<event>
 7    1  0.4687179E-006  0.1521061E+03  0.7561462E-02  0.1197909E+00
          4   -1    0    0  501    0  0.00000000000E+00  0.00000000000E+00  0.10788766362E+03  0.10788766362E+03  0.00000000000E+00 0. -1.
         -4   -1    0    0    0  501 -0.00000000000E+00 -0.00000000000E+00 -0.28064454314E+03  0.28064454314E+03  0.00000000000E+00 0.  1.
         23    2    1    2    0    0 -0.26018826394E+02 -0.12198307051E+03 -0.23796934468E+02  0.15746397377E+03  0.93122285874E+02 0.  0.
          5    1    1    2  502    0 -0.36780401339E+02  0.85850726253E-01 -0.48594822506E+02  0.61087924071E+02  0.41800000000E+01 0. -1.
         -5    1    1    2    0  502  0.62799227733E+02  0.12189721979E+03 -0.10036512255E+03  0.16998030892E+03  0.41800000000E+01 0. -1.
        -11    1    3    3    0    0  0.84380173003E+01 -0.11411424482E+02  0.27383890978E+02  0.30843122893E+02  0.00000000000E+00 0. -1.
         11    1    3    3    0    0 -0.34456843695E+02 -0.11057164603E+03 -0.51180825446E+02  0.12662085088E+03  0.00000000000E+00 0.  1.
</event>
<event>
 7    1  0.4687179E-006  0.1836666E+03  0.7561462E-02  0.1164301E+00
          1   -1    0    0  501    0  0.00000000000E+00  0.00000000000E+00  0.74027532837E+03  0.74027532837E+03  0.00000000000E+00 0. -1.
         -1   -1    0    0    0  501 -0.00000000000E+00 -0.00000000000E+00 -0.47737688428E+02  0.47737688428E+02  0.00000000000E+00 0.  1.
         23    2    1    2    0    0 -0.50737385221E+02 -0.14300099147E+03  0.35574566627E+03  0.39801373751E+03  0.94002076347E+02 0.  0.
          5    1    1    2  502    0 -0.33030888516E+02  0.59878445715E+01  0.38900620553E+02  0.51552153769E+02  0.41800000000E+01 0. -1.
         -5    1    1    2    0  502  0.83768273737E+02  0.13701314690E+03  0.29789135311E+03  0.33844712551E+03  0.41800000000E+01 0. -1.
        -11    1    3    3    0    0  0.10160393030E+02 -0.94398131441E+02  0.14492285048E+03  0.17325378321E+03  0.00000000000E+00 0.  1.
         11    1    3    3    0    0 -0.60897778251E+02 -0.48602860030E+02  0.21082281580E+03  0.22475995430E+03  0.00000000000E+00 0. -1.
</event>
<event>
 7    1  0.4687179E-006  0.1680604E+03  0.7561462E-02  0.1179886E+00
         -1   -1    0    0    0  501 -0.00000000000E+00  0.00000000000E+00  0.60090917751E+03  0.60090917751E+03  0.00000000000E+00 0.  1.
          1   -1    0    0  501    0  0.00000000000E+00 -0.00000000000E+00 -0.68716363360E+02  0.68716363360E+02  0.00000000000E+00 0. -1.
         23    2    1    2    0    0  0.65408250684E+02  0.13740028843E+03  0.11849311941E+03  0.21142022955E+03  0.86607249123E+02 0.  0.
          5    1    1    2  502    0 -0.64419290273E+02 -0.15229094725E+03  0.41023299992E+03  0.44232450101E+03  0.41800000000E+01 0.  1.
         -5    1    1    2    0  502 -0.98896041082E+00  0.14890658821E+02  0.34666948171E+01  0.15880810300E+02  0.41800000000E+01 0.  1.
        -11    1    3    3    0    0  0.45838491896E+02  0.12195296884E+03  0.12992263428E+03  0.18399343697E+03  0.00000000000E+00 0.  1.
         11    1    3    3    0    0  0.19569758788E+02  0.15447319585E+02 -0.11429514873E+02  0.27426792587E+02  0.00000000000E+00 0. -1.
</event>
<event>
 7    1  0.4687179E-006  0.1111298E+03  0.7561462E-02  0.1258492E+00
         -2   -1    0    0    0  501 -0.00000000000E+00  0.00000000000E+00  0.18625393032E+02  0.18625393032E+02  0.00000000000E+00 0.  1.
          2   -1    0    0  501    0  0.00000000000E+00 -0.00000000000E+00 -0.11096473908E+04  0.11096473908E+04  0.00000000000E+00 0. -1.
         23    2    1    2    0    0  0.10856432818E+02 -0.97111479315E+02 -0.52127434570E+03  0.53682587852E+03  0.83105829053E+02 0.  0.
          5    1    1    2  502    0  0.27136377126E+01  0.54339290589E+02 -0.65774673528E+02  0.85462871524E+02  0.41800000000E+01 0.  1.
         -5    1    1    2    0  502 -0.13570070530E+02  0.42772188726E+02 -0.50397297856E+03  0.50598403380E+03  0.41800000000E+01 0.  1.
        -11    1    3    3    0    0 -0.29778537709E+02 -0.62561900723E+02 -0.36980558704E+03  0.37624051475E+03  0.00000000000E+00 0. -1.
         11    1    3    3    0    0  0.40634970526E+02 -0.34549578592E+02 -0.15146875866E+03  0.16058536378E+03  0.00000000000E+00 0.  1.
</event>
<event>
 7    1  0.4687179E-006  0.9246774E+02  0.7561462E-02  0.1296983E+00
         -1   -1    0    0    0  501 -0.00000000000E+00  0.00000000000E+00  0.36555201742E+03  0.36555201742E+03  0.00000000000E+00 0.  1.
          1   -1    0    0  501    0  0.00000000000E+00 -0.00000000000E+00 -0.34350143149E+02  0.34350143149E+02  0.00000000000E+00 0. -1.
         23    2    1    2    0    0  0.10487840873E+01  0.27013293926E+02  0.11353537102E+03  0.14740406731E+03  0.90038106323E+02 0.  0.
          5    1    1    2  502    0 -0.41674197314E+02  0.32928515514E+02  0.11557637571E+03  0.12726506543E+03  0.41800000000E+01 0.  1.
         -5    1    1    2    0  502  0.40625413226E+02 -0.59941809440E+02  0.10209012753E+03  0.12523302783E+03  0.41800000000E+01 0.  1.
        -11    1    3    3    0    0 -0.23816249411E+02  0.24444450793E+02  0.32063542219E+01  0.34278646676E+02  0.00000000000E+00 0. -1.
         11    1    3    3    0    0  0.24865033498E+02  0.25688431333E+01  0.11032901680E+03  0.11312542064E+03  0.00000000000E+00 0.  1.
</event>
<event>
 7    1  0.4687179E-006  0.1254400E+03  0.7561462E-02  0.1234383E+00
          2   -1    0    0  501    0  0.00000000000E+00  0.00000000000E+00  0.68481327204E+03  0.68481327204E+03  0.00000000000E+00 0. -1.
         -2   -1    0    0    0  501 -0.00000000000E+00 -0.00000000000E+00 -0.72383078600E+02  0.72383078600E+02  0.00000000000E+00 0.  1.
         23    2    1    2    0    0  0.78028958262E+02  0.39410131767E+02  0.58785544894E+03  0.60262315596E+03  0.99694345102E+02 0.  0.
          5    1    1    2  502    0 -0.58920180390E+02 -0.73827416568E+02 -0.18206281893E+02  0.96286116313E+02  0.41800000000E+01 0.  1.
         -5    1    1    2    0  502 -0.19108777871E+02  0.34417284801E+02  0.42781026398E+02  0.58287078366E+02  0.41800000000E+01 0.  1.
        -11    1    3    3    0    0  0.77644396092E+02  0.58770703749E+02  0.56170550729E+03  0.57008396292E+03  0.00000000000E+00 0. -1.
         11    1    3    3    0    0  0.38456216940E+00 -0.19360571982E+02  0.26149941651E+02  0.32539193043E+02  0.00000000000E+00 0.  1.
</event>
<event>
 7    1  0.4687179E-006  0.1603911E+03  0.7561462E-02  0.1188256E+00
         -2   -1    0    0    0  501 -0.00000000000E+00  0.00000000000E+00  0.60807341216E+02  0.60807341216E+02  0.00000000000E+00 0.  1.
          2   -1    0    0  501    0  0.00000000000E+00 -0.00000000000E+00 -0.49505151960E+03  0.49505151960E+03  0.00000000000E+00 0. -1.
         23    2    1    2    0    0  0.12970955139E+03 -0.27115843132E+02 -0.17283375656E+03  0.23720097621E+03  0.93983823287E+02 0.  0.
          5    1    1    2  502    0  0.13132252763E+02  0.96883348087E+01  0.34552045090E+01  0.17196823317E+02  0.41800000000E+01 0. -1.
         -5    1    1    2    0  502 -0.14284180415E+03  0.17427508323E+02 -0.26486562634E+03  0.30146106129E+03  0.41800000000E+01 0. -1.
        -11    1    3    3    0    0  0.43723728761E+02 -0.54372458755E+02 -0.96212473474E+02  0.11884851190E+03  0.00000000000E+00 0. -1.
         11    1    3    3    0    0  0.85985822626E+02  0.27256615624E+02 -0.76621283082E+02  0.11835246431E+03  0.00000000000E+00 0.  1.
</event>
<event>
 7    1  0.4687179E-006  0.8360523E+02  0.7561462E-02  0.1319121E+00
          2   -1    0    0  501    0  0.00000000000E+00  0.00000000000E+00  0.17087743897E+03  0.17087743897E+03  0.00000000000E+00 0. -1.
         -2   -1    0    0    0  501 -0.00000000000E+00 -0.00000000000E+00 -0.10164580575E+03  0.10164580575E+03  0.00000000000E+00 0.  1.
         23    2    1    2    0    0  0.31104754239E+02 -0.34766278417E+02  0.86091480418E+02  0.13795914183E+03  0.97184268082E+02 0.  0.
          5    1    1    2  502    0  0.33400037013E+01 -0.79661469550E+01  0.48312529729E+02  0.49256350360E+02  0.41800000000E+01 0. -1.
         -5    1    1    2    0  502 -0.34444757940E+02  0.42732425372E+02 -0.65172376929E+02  0.85307752534E+02  0.41800000000E+01 0. -1.
        -11    1    3    3    0    0 -0.18252719801E+02 -0.48096200954E+02  0.21938437587E+02  0.55925856007E+02  0.00000000000E+00 0.  1.
         11    1    3    3    0    0  0.49357474040E+02  0.13329922537E+02  0.64153042831E+02  0.82033285823E+02  0.00000000000E+00 0. -1.
</event>
<event>
 7    1  0.4687179E-006  0.1100085E+03  0.7561462E-02  0.1260554E+00
          1   -1    0    0  501    0  0.00000000000E+00  0.00000000000E+00  0.52035592988E+02  0.52035592988E+02  0.00000000000E+00 0. -1.
         -1   -1    0    0    0  501 -0.00000000000E+00 -0.00000000000E+00 -0.27046093564E+03  0.27046093564E+03  0.00000000000E+00 0.  1.
         23    2    1    2    0    0 -0.33594785729E+02  0.35302572627E+02 -0.94142189931E+02  0.13955648535E+03  0.90765518875E+02 0.  0.
          5    1    1    2  502    0 -0.37764563823E+02  0.14935426560E+01 -0.39614284047E+01  0.38230331746E+02  0.41800000000E+01 0. -1.
         -5    1    1    2    0  502  0.71359349551E+02 -0.36796115283E+02 -0.12032172431E+03  0.14470971153E+03  0.41800000000E+01 0. -1.
        -11    1    3    3    0    0  0.27445949251E+02  0.29479659816E+02 -0.48911504771E+02  0.63361390231E+02  0.00000000000E+00 0. -1.
         11    1    3    3    0    0 -0.61040734980E+02  0.58229128117E+01 -0.45230685161E+02  0.76195095121E+02  0.00000000000E+00 0.  1.
</event>
<event>
 7    1  0.4687179E-006  0.1194091E+03  0.7561462E-02  0.1244075E+00
          4   -1    0    0  501    0  0.00000000000E+00  0.00000000000E+00  0.25266971049E+02  0.25266971049E+02  0.00000000000E+00 0. -1.
         -4   -1    0    0    0  501 -0.00000000000E+00 -0.00000000000E+00 -0.88089518667E+03  0.88089518667E+03  0.00000000000E+00 0.  1.
         23    2    1    2    0    0  0.67814039895E+02 -0.51023413332E+02 -0.21865815378E+03  0.25150143412E+03  0.90771418610E+02 0.  0.
          5    1    1    2  502    0  0.20681581976E+02  0.59626096444E+01 -0.35515332622E+03  0.35582950703E+03  0.41800000000E+01 0. -1.
         -5    1    1    2    0  502 -0.88495621871E+02  0.45060803687E+02 -0.28181673562E+03  0.29883121656E+03  0.41800000000E+01 0. -1.
        -11    1    3    3    0    0 -0.10235801435E+02 -0.36754739693E+02 -0.11368158205E+03  0.11991323787E+03  0.00000000000E+00 0. -1.
         11    1    3    3    0    0  0.78049841330E+02 -0.14268673639E+02 -0.10497657173E+03  0.13158819625E+03  0.00000000000E+00 0.  1.
</event>
<event>
 7    1  0.4687179E-006  0.9966998E+02  0.7561462E-02  0.1280991E+00
          2   -1    0    0  501    0  0.00000000000E+00  0.00000000000E+00  0.11388821622E+03  0.11388821622E+03  0.00000000000E+00 0. -1.
         -2   -1    0    0    0  501 -0.00000000000E+00 -0.00000000000E+00 -0.23237254277E+03  0.23237254277E+03  0.00000000000E+00 0.  1.
         23    2    1    2    0    0  0.67707428454E+02  0.10018672901E+02  0.51265138347E+02  0.12456954558E+03  0.90580282632E+02 0.  0.
          5    1    1    2  502    0 -0.50513170014E+02 -0.30647580271E+02 -0.18235388113E+03  0.19173227398E+03  0.41800000000E+01 0.  1.
         -5    1    1    2    0  502 -0.17194258441E+02  0.20628907370E+02  0.12604416235E+02  0.29958939421E+02  0.41800000000E+01 0.  1.
        -11    1    3    3    0    0 -0.66254358340E+01  0.34143712167E+02  0.21809391767E+02  0.41052881139E+02  0.00000000000E+00 0. -1.
         11    1    3    3    0    0  0.74332864288E+02 -0.24125039266E+02  0.29455746580E+02  0.83516664442E+02  0.00000000000E+00 0.  1.
</event>
<event>
 7    1  0.4687179E-006  0.1177158E+03  0.7561462E-02  0.1246914E+00
         -3   -1    0    0    0  501 -0.00000000000E+00  0.00000000000E+00  0.44513707761E+03  0.44513707761E+03  0.00000000000E+00 0.  1.
          3   -1    0    0  501    0  0.00000000000E+00 -0.00000000000E+00 -0.35003808381E+02  0.35003808381E+02  0.00000000000E+00 0. -1.
         23    2    1    2    0    0  0.54059542199E+02 -0.21229745843E+02  0.13786135414E+03  0.17493293995E+03  0.90678797426E+02 0.  0.
          5    1    1    2  502    0  0.35749090212E+02  0.40802735482E+01  0.32897795997E+02  0.48932437756E+02  0.41800000000E+01 0. -1.
         -5    1    1    2    0  502 -0.89808632411E+02  0.17149472295E+02  0.23937411910E+03  0.25627550829E+03  0.41800000000E+01 0. -1.
        -11    1    3    3    0    0  0.78422440929E+02 -0.53591659160E+01  0.10112555480E+03  0.12808269881E+03  0.00000000000E+00 0. -1.
         11    1    3    3    0    0 -0.24362898730E+02 -0.15870579927E+02  0.36735799335E+02  0.46850241136E+02  0.00000000000E+00 0.  1.
</event>
<event>
 7    1  0.4687179E-006  0.1070317E+03  0.7561462E-02  0.1266167E+00
         -4   -1    0    0    0  501 -0.00000000000E+00  0.00000000000E+00  0.72802108492E+02  0.72802108492E+02  0.00000000000E+00 0.  1.
          4   -1    0    0  501    0  0.00000000000E+00 -0.00000000000E+00 -0.20255717731E+03  0.20255717731E+03  0.00000000000E+00 0. -1.
         23    2    1    2    0    0  0.45436827293E+02  0.25967208571E+02 -0.52972545425E+02  0.11953148725E+03  0.93503393945E+02 0.  0.
          5    1    1    2  502    0 -0.62251537671E+01 -0.73212966458E+02 -0.35394634200E+02  0.81664824295E+02  0.41800000000E+01 0. -1.
         -5    1    1    2    0  502 -0.39211673526E+02  0.47245757887E+02 -0.41387889191E+02  0.74162974258E+02  0.41800000000E+01 0. -1.
        -11    1    3    3    0    0 -0.14196219827E+02  0.94333387310E+01 -0.55035438450E+02  0.57614408114E+02  0.00000000000E+00 0. -1.
         11    1    3    3    0    0  0.59633047120E+02  0.16533869840E+02  0.20628930252E+01  0.61917079133E+02  0.00000000000E+00 0.  1.
</event>
<event>
 7    1  0.4687179E-006  0.9256561E+02  0.7561462E-02  0.1296755E+00
         -2   -1    0    0    0  501 -0.00000000000E+00  0.00000000000E+00  0.24468580821E+02  0.24468580821E+02  0.00000000000E+00 0.  1.
          2   -1    0    0  501    0  0.00000000000E+00 -0.00000000000E+00 -0.49467561882E+03  0.49467561882E+03  0.00000000000E+00 0. -1.
         23    2    1    2    0    0  0.19991082226E+01  0.19664300542E+02 -0.23728832065E+03  0.25711378516E+03  0.97010670829E+02 0.  0.
          5    1    1    2  502    0 -0.47229563691E+02  0.18827646707E+02 -0.57935287702E+02  0.77195090051E+02  0.41800000000E+01 0. -1.
         -5    1    1    2    0  502  0.45230455468E+02 -0.38491947249E+02 -0.17498342965E+03  0.18483532443E+03  0.41800000000E+01 0.  1.
        -11    1    3    3    0    0 -0.91250969655E+00  0.47038853213E+02 -0.21915752032E+03  0.22415063038E+03  0.00000000000E+00 0. -1.
         11    1    3    3    0    0  0.29116179191E+01 -0.27374552671E+02 -0.18130800328E+02  0.32963154785E+02  0.00000000000E+00 0.  1.
</event>
<event>
 7    1  0.7868448E-006  0.3049768E+03  0.7561462E-02  0.1082779E+00
          1   -1    0    0  501    0  0.00000000000E+00  0.00000000000E+00  0.73223301829E+02  0.73223301829E+02  0.00000000000E+00 0. -1.
         -1   -1    0    0    0  501 -0.00000000000E+00 -0.00000000000E+00 -0.13487966364E+04  0.13487966364E+04  0.00000000000E+00 0.  1.
         23    2    1    2    0    0 -0.94554380411E+02 -0.27592607722E+03 -0.53416441284E+03  0.61553957259E+03  0.92095681426E+02 0.  0.
          5    1    1    2  502    0  0.10747893792E+03  0.17805709156E+03 -0.59079849946E+03  0.62635164989E+03  0.41800000000E+01 0. -1.
         -5    1    1    2    0  502 -0.12924557512E+02  0.97868985654E+02 -0.15061042225E+03  0.18012871573E+03  0.41800000000E+01 0. -1.
        -11    1    3    3    0    0 -0.26852655566E+02 -0.19835129709E+03 -0.39021890813E+03  0.43856025632E+03  0.00000000000E+00 0.  1.
         11    1    3    3    0    0 -0.67701724845E+02 -0.77574780127E+02 -0.14394550471E+03  0.17697931626E+03  0.00000000000E+00 0. -1.
</event>
<event>
 7    1  0.4687179E-006  0.1208826E+03  0.7561462E-02  0.1241648E+00
         -1   -1    0    0    0  501 -0.00000000000E+00  0.00000000000E+00  0.53108118512E+03  0.53108118512E+03  0.00000000000E+00 0.  1.
          1   -1    0    0  501    0  0.00000000000E+00 -0.00000000000E+00 -0.46559598395E+02  0.46559598395E+02  0.00000000000E+00 0. -1.
         23    2    1    2    0    0 -0.41571132980E+02 -0.59814703772E+02  0.65560221170E+02  0.13437903579E+03  0.91943595621E+02 0.  0.
          5    1    1    2  502    0 -0.41635833141E+02  0.14143410871E+01  0.14876681334E+03  0.15454636882E+03  0.41800000000E+01 0. -1.
         -5    1    1    2    0  502  0.83206966121E+02  0.58400362684E+02  0.27019455222E+03  0.28871537891E+03  0.41800000000E+01 0. -1.
        -11    1    3    3    0    0 -0.19098025379E+01 -0.58437584555E+02  0.85709004122E+00  0.58475065094E+02  0.00000000000E+00 0. -1.
         11    1    3    3    0    0 -0.39661330442E+02 -0.13771192162E+01  0.64703131128E+02  0.75903970697E+02  0.00000000000E+00 0.  1.
</event>
<event>
 7    1  0.4687179E-006  0.1426005E+03  0.7561462E-02  0.1209872E+00
         -1   -1    0    0    0  501 -0.00000000000E+00  0.00000000000E+00  0.14095153505E+03  0.14095153505E+03  0.00000000000E+00 0.  1.
          1   -1    0    0  501    0  0.00000000000E+00 -0.00000000000E+00 -0.19489412194E+03  0.19489412194E+03  0.00000000000E+00 0. -1.
         23    2    1    2    0    0 -0.75261782775E+02 -0.97865763022E+02 -0.58836905849E+01  0.15364820676E+03  0.91274914996E+02 0.  0.
          5    1    1    2  502    0  0.26053819320E+02  0.70353268158E+02  0.34062473306E+02  0.82499141386E+02  0.41800000000E+01 0.  1.
         -5    1    1    2    0  502  0.49207963455E+02  0.27512494864E+02 -0.82121369607E+02  0.99698308848E+02  0.41800000000E+01 0.  1.
        -11    1    3    3    0    0  0.10811502895E+02 -0.57418016256E+02 -0.28545521574E+01  0.58496714896E+02  0.00000000000E+00 0.  1.
         11    1    3    3    0    0 -0.86073285670E+02 -0.40447746766E+02 -0.30291384274E+01  0.95151491865E+02  0.00000000000E+00 0. -1.
</event>
<event>
 7    1  0.4687179E-006  0.1245852E+03  0.7561462E-02  0.1235719E+00
         -2   -1    0    0    0  501 -0.00000000000E+00  0.00000000000E+00  0.19138031492E+03  0.19138031492E+03  0.00000000000E+00 0. -1.
          2   -1    0    0  501    0  0.00000000000E+00 -0.00000000000E+00 -0.12865273482E+03  0.12865273482E+03  0.00000000000E+00 0.  1.
         23    2    1    2    0    0 -0.99694069259E+02 -0.41465878390E+02 -0.29380872434E+01  0.14221586231E+03  0.92511581001E+02 0.  0.
          5    1    1    2  502    0  0.17081930656E+02  0.41883702736E+02 -0.27600623622E+02  0.53153586277E+02  0.41800000000E+01 0.  1.
         -5    1    1    2    0  502  0.82612138603E+02 -0.41782434631E+00  0.93266290964E+02  0.12466360115E+03  0.41800000000E+01 0.  1.
        -11    1    3    3    0    0 -0.10057021303E+03 -0.23813032971E+02  0.27563459035E+02  0.10696341694E+03  0.00000000000E+00 0. -1.
         11    1    3    3    0    0  0.87614377402E+00 -0.17652845418E+02 -0.30501546279E+02  0.35252445371E+02  0.00000000000E+00 0.  1.
</event>
<event>
 7    1  0.4687179E-006  0.1164546E+03  0.7561462E-02  0.1249063E+00
         -2   -1    0    0    0  501 -0.00000000000E+00  0.00000000000E+00  0.39420620915E+02  0.39420620915E+02  0.00000000000E+00 0.  1.
          2   -1    0    0  501    0  0.00000000000E+00 -0.00000000000E+00 -0.49221701969E+03  0.49221701969E+03  0.00000000000E+00 0. -1.
         23    2    1    2    0    0  0.22079620236E+02  0.60428420008E+02 -0.31709781171E+03  0.33618648912E+03  0.91275570118E+02 0.  0.
          5    1    1    2  502    0  0.43334395583E+02 -0.36145900200E+00 -0.78406488953E+02  0.89683055273E+02  0.41800000000E+01 0. -1.
         -5    1    1    2    0  502 -0.65414015819E+02 -0.60066961006E+02 -0.57292098110E+02  0.10576809621E+03  0.41800000000E+01 0. -1.
        -11    1    3    3    0    0 -0.27390919361E+02  0.83502240660E+01 -0.35698503233E+02  0.45764307473E+02  0.00000000000E+00 0.  1.
         11    1    3    3    0    0  0.49470539598E+02  0.52078195942E+02 -0.28139930848E+03  0.29042218164E+03  0.00000000000E+00 0. -1.
</event>
<event>
 6    1  0.4687179E-006  0.1190370E+03  0.7561462E-02  0.1244694E+00
          1   -1    0    0  501    0  0.00000000000E+00  0.00000000000E+00  0.14207477694E+03  0.14207477694E+03  0.00000000000E+00 0. -1.
         -1   -1    0    0    0  501 -0.00000000000E+00 -0.00000000000E+00 -0.23489643010E+03  0.23489643010E+03  0.00000000000E+00 0.  1.
          5    1    1    2  502    0 -0.92700569323E+02  0.62499535404E+01 -0.29536999638E+01  0.93051889909E+02  0.41800000000E+01 0.  1.
         -5    1    1    2    0  502  0.33286601486E+02  0.18023636873E+02 -0.37027795947E+02  0.53116658379E+02  0.41800000000E+01 0.  1.
        -11    1    1    2    0    0  0.79277133385E+02 -0.51994690828E+01 -0.12805872084E+03  0.15070147425E+03  0.00000000000E+00 0.  1.
         11    1    1    2    0    0 -0.19863165547E+02 -0.19074121330E+02  0.75218563596E+02  0.80101184507E+02  0.00000000000E+00 0. -1.
</event>
<event>
 7    1  0.4687179E-006  0.2342147E+03  0.7561462E-02  0.1123708E+00
         -2   -1    0    0    0  501 -0.00000000000E+00  0.00000000000E+00  0.82913602778E+02  0.82913602778E+02  0.00000000000E+00 0.  1.
          2   -1    0    0  501    0  0.00000000000E+00 -0.00000000000E+00 -0.74214665853E+03  0.74214665853E+03  0.00000000000E+00 0. -1.
         23    2    1    2    0    0 -0.18426654749E+03 -0.11713735526E+03 -0.39345288926E+03  0.45905223972E+03  0.90821044973E+02 0.  0.
          5    1    1    2  502    0  0.21019741992E+02 -0.11372398188E+02 -0.91916611730E+02  0.95064698526E+02  0.41800000000E+01 0.  1.
         -5    1    1    2    0  502  0.16324680549E+03  0.12850975345E+03 -0.17386355476E+03  0.27094332306E+03  0.41800000000E+01 0.  1.
        -11    1    3    3    0    0 -0.10625451912E+03 -0.14188763761E+02 -0.18563868875E+03  0.21436666395E+03  0.00000000000E+00 0.  1.
         11    1    3    3    0    0 -0.78012028371E+02 -0.10294859150E+03 -0.20781420050E+03  0.24468557577E+03  0.00000000000E+00 0. -1.
</event>
<event>
 7    1  0.4687179E-006  0.1047449E+03  0.7561462E-02  0.1270623E+00
          2   -1    0    0  501    0  0.00000000000E+00  0.00000000000E+00  0.21519422481E+03  0.21519422481E+03  0.00000000000E+00 0. -1.
         -2   -1    0    0    0  501 -0.00000000000E+00 -0.00000000000E+00 -0.77361634970E+02  0.77361634970E+02  0.00000000000E+00 0.  1.
         23    2    1    2    0    0 -0.61344479275E+02  0.45197533323E+01  0.99562934040E+02  0.14800281272E+03  0.90600670137E+02 0.  0.
          5    1    1    2  502    0  0.86825712256E+02  0.42242303620E+01  0.63243346978E+02  0.10758132630E+03  0.41800000000E+01 0. -1.
         -5    1    1    2    0  502 -0.25481232981E+02 -0.87439836943E+01 -0.24973691181E+02  0.36971720764E+02  0.41800000000E+01 0. -1.
        -11    1    3    3    0    0 -0.37731293503E+02  0.38443468584E+02  0.91067953572E+02  0.10580606294E+03  0.00000000000E+00 0. -1.
         11    1    3    3    0    0 -0.23613185771E+02 -0.33923715252E+02  0.84949804684E+01  0.42196749779E+02  0.00000000000E+00 0.  1.
</event>
<event>
 7    1  0.4687179E-006  0.1578246E+03  0.7561462E-02  0.1191175E+00
         -3   -1    0    0    0  501 -0.00000000000E+00  0.00000000000E+00  0.16489717391E+03  0.16489717391E+03  0.00000000000E+00 0.  1.
          3   -1    0    0  501    0  0.00000000000E+00 -0.00000000000E+00 -0.21666618480E+03  0.21666618480E+03  0.00000000000E+00 0. -1.
         23    2    1    2    0    0  0.10745205062E+03 -0.10448316126E+03 -0.61999081515E+02  0.18607472142E+03  0.91198912686E+02 0.  0.
          5    1    1    2  502    0 -0.70103378136E+02  0.77503526731E+02  0.65504636797E+02  0.12340830654E+03  0.41800000000E+01 0. -1.
         -5    1    1    2    0  502 -0.37348672480E+02  0.26979634528E+02 -0.55274566174E+02  0.72080330750E+02  0.41800000000E+01 0. -1.
        -11    1    3    3    0    0  0.38881362950E+02 -0.85065871576E+02 -0.30387345125E+01  0.93579895273E+02  0.00000000000E+00 0.  1.
         11    1    3    3    0    0  0.68570687666E+02 -0.19417289683E+02 -0.58960347002E+02  0.92494826148E+02  0.00000000000E+00 0. -1.
</event>
<event>
 7    1  0.4687179E-006  0.2176271E+03  0.7561462E-02  0.1135665E+00
         -1   -1    0    0    0  501 -0.00000000000E+00  0.00000000000E+00  0.14458508330E+03  0.14458508330E+03  0.00000000000E+00 0.  1.
          1   -1    0    0  501    0  0.00000000000E+00 -0.00000000000E+00 -0.45784327611E+03  0.45784327611E+03  0.00000000000E+00 0. -1.
         23    2    1    2    0    0 -0.18970741505E+03  0.42321647292E+02 -0.30298196028E+03  0.37105641207E+03  0.90026482371E+02 0.  0.
          5    1    1    2  502    0  0.79487993992E+02  0.44119775689E+02 -0.43385921408E+01  0.91110875188E+02  0.41800000000E+01 0. -1.
         -5    1    1    2    0  502  0.11021942106E+03 -0.86441422981E+02 -0.59376403848E+01  0.14026107214E+03  0.41800000000E+01 0. -1.
        -11    1    3    3    0    0 -0.11829522123E+03 -0.50711866742E+01 -0.22915128151E+03  0.25793368551E+03  0.00000000000E+00 0. -1.
         11    1    3    3    0    0 -0.71412193825E+02  0.47392833966E+02 -0.73830678769E+02  0.11312272657E+03  0.00000000000E+00 0.  1.
</event>
<event>
 7    1  0.4687179E-006  0.9873666E+02  0.7561462E-02  0.1282975E+00
         -3   -1    0    0    0  501 -0.00000000000E+00  0.00000000000E+00  0.23595389943E+02  0.23595389943E+02  0.00000000000E+00 0.  1.
          3   -1    0    0  501    0  0.00000000000E+00 -0.00000000000E+00 -0.74187937548E+03  0.74187937548E+03  0.00000000000E+00 0. -1.
         23    2    1    2    0    0 -0.71560121457E+02 -0.28353239158E+01 -0.37505689109E+03  0.39320871975E+03  0.93896409341E+02 0.  0.
          5    1    1    2  502    0  0.45668486093E+02 -0.16925053853E+02 -0.33481939159E+03  0.33836897827E+03  0.41800000000E+01 0. -1.
         -5    1    1    2    0  502  0.25891635364E+02  0.19760377769E+02 -0.84077028580E+01  0.33897067406E+02  0.41800000000E+01 0. -1.
        -11    1    3    3    0    0 -0.41181947856E+02 -0.46783638423E+02 -0.24020279858E+03  0.24815730112E+03  0.00000000000E+00 0.  1.
         11    1    3    3    0    0 -0.30378173602E+02  0.43948314507E+02 -0.13485409251E+03  0.14505141863E+03  0.00000000000E+00 0. -1.
</event>
<event>
 7    1  0.4687179E-006  0.5260983E+02  0.7561462E-02  0.1431753E+00
          1   -1    0    0  501    0  0.00000000000E+00  0.00000000000E+00  0.53073584986E+02  0.53073584986E+02  0.00000000000E+00 0. -1.
         -1   -1    0    0    0  501 -0.00000000000E+00 -0.00000000000E+00 -0.28309508323E+03  0.28309508323E+03  0.00000000000E+00 0.  1.
         23    2    1    2    0    0  0.26424666743E+02  0.24201985257E+02 -0.44205017858E+02  0.10932275270E+03  0.93345495609E+02 0.  0.
          5    1    1    2  502    0  0.27289313862E+01  0.12555205130E+02 -0.17870043949E+03  0.17921048997E+03  0.41800000000E+01 0.  1.
         -5    1    1    2    0  502 -0.29153598129E+02 -0.36757190387E+02 -0.71160408971E+01  0.47635425547E+02  0.41800000000E+01 0.  1.
        -11    1    3    3    0    0 -0.15871727643E+01  0.15057430455E+02 -0.69105056860E+02  0.70744287494E+02  0.00000000000E+00 0.  1.
         11    1    3    3    0    0  0.28011839507E+02  0.91445548026E+01  0.24900039003E+02  0.38578465203E+02  0.00000000000E+00 0. -1.
</event>
<event>
 7    1  0.4687179E-006  0.1676153E+03  0.7561462E-02  0.1180358E+00
          1   -1    0    0  501    0  0.00000000000E+00  0.00000000000E+00  0.79815028888E+03  0.79815028888E+03  0.00000000000E+00 0. -1.
         -1   -1    0    0    0  501 -0.00000000000E+00 -0.00000000000E+00 -0.44697957919E+02  0.44697957919E+02  0.00000000000E+00 0.  1.
         23    2    1    2    0    0  0.17414931600E+02 -0.15223690769E+03  0.39614939234E+03  0.43444666514E+03  0.91269972588E+02 0.  0.
          5    1    1    2  502    0  0.25675117885E+02  0.74797708479E+02  0.27916123269E+03  0.29017645512E+03  0.41800000000E+01 0.  1.
         -5    1    1    2    0  502 -0.43090049484E+02  0.77439199207E+02  0.78141705938E+02  0.11822512654E+03  0.41800000000E+01 0.  1.
        -11    1    3    3    0    0  0.30566618427E+02 -0.25232104650E+02  0.17174913165E+03  0.17626327323E+03  0.00000000000E+00 0. -1.
         11    1    3    3    0    0 -0.13151686827E+02 -0.12700480304E+03  0.22440026068E+03  0.25818339190E+03  0.00000000000E+00 0.  1.
</event>
<event>
 7    1  0.4687179E-006  0.9681872E+02  0.7561462E-02  0.1287132E+00
          1   -1    0    0  501    0  0.00000000000E+00  0.00000000000E+00  0.53396775129E+02  0.53396775129E+02  0.00000000000E+00 0. -1.
         -1   -1    0    0    0  501 -0.00000000000E+00 -0.00000000000E+00 -0.26070815191E+03  0.26070815191E+03  0.00000000000E+00 0.  1.
         23    2    1    2    0    0  0.19639540637E+02 -0.22229230497E+02 -0.40068025959E+02  0.10315929884E+03  0.90313586949E+02 0.  0.
          5    1    1    2  502    0 -0.48193762234E+02 -0.22275166378E+02 -0.24415712209E+02  0.58586868478E+02  0.41800000000E+01 0.  1.
         -5    1    1    2    0  502  0.28554221597E+02  0.44504396874E+02 -0.14282763861E+03  0.15235875972E+03  0.41800000000E+01 0.  1.
        -11    1    3    3    0    0 -0.31612300946E+02 -0.16802211292E+02  0.30953097848E+01  0.35933728140E+02  0.00000000000E+00 0. -1.
         11    1    3    3    0    0  0.51251841583E+02 -0.54270192044E+01 -0.43163335744E+02  0.67225570698E+02  0.00000000000E+00 0.  1.
</event>
<event>
 7    1  0.4687179E-006  0.1157197E+03  0.7561462E-02  0.1250330E+00
         -2   -1    0    0    0  501 -0.00000000000E+00  0.00000000000E+00  0.20036305238E+02  0.20036305238E+02  0.00000000000E+00 0.  1.
          2   -1    0    0  501    0  0.00000000000E+00 -0.00000000000E+00 -0.83317562057E+03  0.83317562057E+03  0.00000000000E+00 0. -1.
         23    2    1    2    0    0 -0.48192945633E+02  0.38366879148E+02 -0.47037478495E+03  0.48317224650E+03  0.91697350299E+02 0.  0.
          5    1    1    2  502    0  0.81784682380E+02  0.31132634472E+01 -0.24809244183E+03  0.26127716849E+03  0.41800000000E+01 0.  1.
         -5    1    1    2    0  502 -0.33591736746E+02 -0.41480142596E+02 -0.94672088560E+02  0.10876251082E+03  0.41800000000E+01 0.  1.
        -11    1    3    3    0    0 -0.42018421699E+02  0.60113559305E+02 -0.43535546767E+03  0.44149017091E+03  0.00000000000E+00 0. -1.
         11    1    3    3    0    0 -0.61745239342E+01 -0.21746680156E+02 -0.35019317274E+02  0.41682075596E+02  0.00000000000E+00 0.  1.
</event>
<event>
 7    1  0.4687179E-006  0.9222058E+02  0.7561462E-02  0.1297562E+00
         -2   -1    0    0    0  501 -0.00000000000E+00  0.00000000000E+00  0.14440979634E+03  0.14440979634E+03  0.00000000000E+00 0.  1.
          2   -1    0    0  501    0  0.00000000000E+00 -0.00000000000E+00 -0.12445175729E+03  0.12445175729E+03  0.00000000000E+00 0. -1.
         23    2    1    2    0    0 -0.21099611861E+02 -0.62913241085E+00 -0.70971520848E+02  0.11331558377E+03  0.85778058533E+02 0.  0.
          5    1    1    2  502    0 -0.33612537266E+02 -0.17857576810E+02  0.89811210973E+02  0.97633097499E+02  0.41800000000E+01 0. -1.
         -5    1    1    2    0  502  0.54712149127E+02  0.18486709221E+02  0.11183489237E+01  0.57912872354E+02  0.41800000000E+01 0.  1.
        -11    1    3    3    0    0  0.26303307189E+02  0.23308219458E+02 -0.30764141155E+02  0.46707273999E+02  0.00000000000E+00 0. -1.
         11    1    3    3    0    0 -0.47402919051E+02 -0.23937351869E+02 -0.40207379693E+02  0.66608309773E+02  0.00000000000E+00 0.  1.
</event>
<event>
 7    1  0.4687179E-006  0.2868430E+03  0.7561462E-02  0.1092009E+00
          2   -1    0    0  501    0  0.00000000000E+00  0.00000000000E+00  0.89722397190E+03  0.89722397190E+03  0.00000000000E+00 0.  1.
         -2   -1    0    0    0  501 -0.00000000000E+00 -0.00000000000E+00 -0.12969727553E+03  0.12969727553E+03  0.00000000000E+00 0. -1.
         23    2    1    2    0    0  0.17363160201E+03 -0.21005029683E+03  0.63881419503E+03  0.70060344526E+03  0.92155039549E+02 0.  0.
          5    1    1    2  502    0 -0.99832273810E+02  0.44691438748E+02  0.10354287919E+02  0.10994767514E+03  0.41800000000E+01 0.  1.
         -5    1    1    2    0  502 -0.73799328199E+02  0.16535885808E+03  0.11835821341E+03  0.21637012703E+03  0.41800000000E+01 0.  1.
        -11    1    3    3    0    0  0.90564699286E+02 -0.51697424469E+02  0.29813018560E+03  0.31584204284E+03  0.00000000000E+00 0.  1.
         11    1    3    3    0    0  0.83066902723E+02 -0.15835287236E+03  0.34068400943E+03  0.38476140242E+03  0.00000000000E+00 0. -1.
</event>
<event>
 7    1  0.4687179E-006  0.5973415E+02  0.7561462E-02  0.1398951E+00
          1   -1    0    0  501    0  0.00000000000E+00  0.00000000000E+00  0.40907095277E+03  0.40907095277E+03  0.00000000000E+00 0. -1.
         -1   -1    0    0    0  501 -0.00000000000E+00 -0.00000000000E+00 -0.33468789385E+02  0.33468789385E+02  0.00000000000E+00 0.  1.
         23    2    1    2    0    0 -0.93137682538E+01  0.34788890464E+02  0.21195897176E+03  0.23343799619E+03  0.90937776393E+02 0.  0.
          5    1    1    2  502    0  0.83257857679E+01 -0.10088623302E+02 -0.19721298527E+02  0.24031251411E+02  0.41800000000E+01 0.  1.
         -5    1    1    2    0  502  0.98798248593E+00 -0.24700267163E+02  0.18336449015E+03  0.18507049455E+03  0.41800000000E+01 0.  1.
        -11    1    3    3    0    0  0.90869795666E+01 -0.20484450059E+02  0.12530150388E+02  0.25674706631E+02  0.00000000000E+00 0.  1.
         11    1    3    3    0    0 -0.18400747820E+02  0.55273340523E+02  0.19942882137E+03  0.20776328956E+03  0.00000000000E+00 0. -1.
</event>
<event>
 7    1  0.4687179E-006  0.8975539E+02  0.7561462E-02  0.1303445E+00
         -2   -1    0    0    0  501 -0.00000000000E+00  0.00000000000E+00  0.26193241674E+03  0.26193241674E+03  0.00000000000E+00 0. -1.
          2   -1    0    0  501    0  0.00000000000E+00 -0.00000000000E+00 -0.55296988834E+02  0.55296988834E+02  0.00000000000E+00 0.  1.
         23    2    1    2    0    0  0.28602548602E+02 -0.10418773700E+02  0.32573590809E+02  0.10073064181E+03  0.90326999008E+02 0.  0.
          5    1    1    2  502    0 -0.75163827431E+02 -0.11540037740E+02  0.90713001866E+02  0.11844447869E+03  0.41800000000E+01 0. -1.
         -5    1    1    2    0  502  0.46561278829E+02  0.21958811440E+02  0.83348835231E+02  0.98054285069E+02  0.41800000000E+01 0. -1.
        -11    1    3    3    0    0 -0.61219248566E+00 -0.20716824662E+02  0.57403700678E+02  0.61030700924E+02  0.00000000000E+00 0. -1.
         11    1    3    3    0    0  0.29214741088E+02  0.10298050961E+02 -0.24830109869E+02  0.39699940888E+02  0.00000000000E+00 0.  1.
</event>
<event>
 7    1  0.4687179E-006  0.1025320E+03  0.7561462E-02  0.1275060E+00
         -2   -1    0    0    0  501 -0.00000000000E+00  0.00000000000E+00  0.19221658765E+03  0.19221658765E+03  0.00000000000E+00 0.  1.
          2   -1    0    0  501    0  0.00000000000E+00 -0.00000000000E+00 -0.87664149241E+02  0.87664149241E+02  0.00000000000E+00 0. -1.
         23    2    1    2    0    0 -0.66283630058E+02 -0.30990022901E+02  0.91215357409E+01  0.10636082359E+03  0.76651948758E+02 0.  0.
          5    1    1    2  502    0  0.57179288737E+02 -0.26177634508E+02  0.14258375889E+01  0.63041613413E+02  0.41800000000E+01 0.  1.
         -5    1    1    2    0  502  0.91043413216E+01  0.57167657409E+02  0.94005065081E+02  0.11047829988E+03  0.41800000000E+01 0.  1.
        -11    1    3    3    0    0 -0.38116842321E+02  0.48409930137E+01  0.36663438741E+02  0.53108724539E+02  0.00000000000E+00 0.  1.
         11    1    3    3    0    0 -0.28166787737E+02 -0.35831015915E+02 -0.27541903000E+02  0.53252099055E+02  0.00000000000E+00 0. -1.
</event>
<event>
 7    1  0.4687179E-006  0.1303738E+03  0.7561462E-02  0.1226902E+00
          1   -1    0    0  501    0  0.00000000000E+00  0.00000000000E+00  0.30154946978E+03  0.30154946978E+03  0.00000000000E+00 0. -1.
         -1   -1    0    0    0  501 -0.00000000000E+00 -0.00000000000E+00 -0.11407756873E+03  0.11407756873E+03  0.00000000000E+00 0.  1.
         23    2    1    2    0    0  0.10766411190E+03  0.32379048149E+02  0.20019475045E+03  0.24695429354E+03  0.90931409538E+02 0.  0.
          5    1    1    2  502    0 -0.10623332862E+03 -0.39480896157E+02  0.36194685544E+02  0.11904532302E+03  0.41800000000E+01 0. -1.
         -5    1    1    2    0  502 -0.14307832733E+01  0.71018480081E+01 -0.48917534933E+02  0.49627421954E+02  0.41800000000E+01 0. -1.
        -11    1    3    3    0    0  0.53659427306E+02 -0.25845862809E+02  0.53109435315E+02  0.79799466682E+02  0.00000000000E+00 0.  1.
         11    1    3    3    0    0  0.54004684591E+02  0.58224910958E+02  0.14708531513E+03  0.16715482686E+03  0.00000000000E+00 0. -1.
</event>
<event>
 7    1  0.4687179E-006  0.1424258E+03  0.7561462E-02  0.1210102E+00
         -1   -1    0    0    0  501 -0.00000000000E+00  0.00000000000E+00  0.35240157681E+02  0.35240157681E+02  0.00000000000E+00 0.  1.
          1   -1    0    0  501    0  0.00000000000E+00 -0.00000000000E+00 -0.66429587982E+03  0.66429587982E+03  0.00000000000E+00 0. -1.
         23    2    1    2    0    0 -0.88802178289E+02  0.37175450891E+02 -0.40171696576E+03  0.42277456135E+03  0.89966483341E+02 0.  0.
          5    1    1    2  502    0  0.10451903114E+03  0.81627560018E+01 -0.12185622415E+03  0.16080195963E+03  0.41800000000E+01 0.  1.
         -5    1    1    2    0  502 -0.15716852851E+02 -0.45338206892E+02 -0.10548253222E+03  0.11595951652E+03  0.41800000000E+01 0.  1.
        -11    1    3    3    0    0 -0.51311287560E+02 -0.26591734257E+02 -0.17620590125E+03  0.18544133358E+03  0.00000000000E+00 0.  1.
         11    1    3    3    0    0 -0.37490890729E+02  0.63767185147E+02 -0.22551106451E+03  0.23733322777E+03  0.00000000000E+00 0. -1.
</event>
<event>
 7    1  0.4687179E-006  0.1218911E+03  0.7561462E-02  0.1240010E+00
          2   -1    0    0  501    0  0.00000000000E+00  0.00000000000E+00  0.65551998965E+03  0.65551998965E+03  0.00000000000E+00 0. -1.
         -2   -1    0    0    0  501 -0.00000000000E+00 -0.00000000000E+00 -0.29951423551E+02  0.29951423551E+02  0.00000000000E+00 0.  1.
         23    2    1    2    0    0 -0.74317300720E+02 -0.85826648131E+01  0.36749550606E+03  0.38908765991E+03  0.10363173646E+03 0.  0.
          5    1    1    2  502    0 -0.79749947385E+01 -0.27068942430E+02  0.64832318567E+01  0.29254621527E+02  0.41800000000E+01 0.  1.
         -5    1    1    2    0  502  0.82292295459E+02  0.35651607243E+02  0.25158982818E+03  0.26712913176E+03  0.41800000000E+01 0.  1.
        -11    1    3    3    0    0 -0.46339976803E+02  0.45273589037E+02  0.22655510465E+03  0.23563596236E+03  0.00000000000E+00 0.  1.
         11    1    3    3    0    0 -0.27977323918E+02 -0.53856253850E+02  0.14094040141E+03  0.15345169755E+03  0.00000000000E+00 0. -1.
</event>
<event>
 7    1  0.4687179E-006  0.1552153E+03  0.7561462E-02  0.1194207E+00
          1   -1    0    0  501    0  0.00000000000E+00  0.00000000000E+00  0.22311832894E+03  0.22311832894E+03  0.00000000000E+00 0. -1.
         -1   -1    0    0    0  501 -0.00000000000E+00 -0.00000000000E+00 -0.14135064387E+03  0.14135064387E+03  0.00000000000E+00 0.  1.
         23    2    1    2    0    0 -0.10095052133E+03  0.56587742109E+02  0.12120418034E+03  0.18955585397E+03  0.88587742532E+02 0.  0.
          5    1    1    2  502    0  0.10337942248E+03  0.70594141206E+01 -0.87027937428E+01  0.10406897395E+03  0.41800000000E+01 0. -1.
         -5    1    1    2    0  502 -0.24289011457E+01 -0.63647156229E+02 -0.30733701522E+02  0.70844144896E+02  0.41800000000E+01 0. -1.
        -11    1    3    3    0    0 -0.64460142040E+02 -0.11658996883E+02  0.74337314024E+02  0.99081170645E+02  0.00000000000E+00 0. -1.
         11    1    3    3    0    0 -0.36490379294E+02  0.68246738991E+02  0.46866866314E+02  0.90474683321E+02  0.00000000000E+00 0.  1.
</event>
<event>
 7    1  0.4687179E-006  0.1039271E+03  0.7561462E-02  0.1272248E+00
          2   -1    0    0  501    0  0.00000000000E+00  0.00000000000E+00  0.34539887606E+03  0.34539887606E+03  0.00000000000E+00 0. -1.
         -2   -1    0    0    0  501 -0.00000000000E+00 -0.00000000000E+00 -0.44199597337E+02  0.44199597337E+02  0.00000000000E+00 0.  1.
         23    2    1    2    0    0 -0.59232424470E+02 -0.35413584454E+01  0.13010520854E+03  0.16950610102E+03  0.91016106627E+02 0.  0.
          5    1    1    2  502    0  0.45727247681E+02 -0.57386756054E+02  0.11254837234E+03  0.13442034618E+03  0.41800000000E+01 0.  1.
         -5    1    1    2    0  502  0.13505176789E+02  0.60928114499E+02  0.58545697840E+02  0.85672026193E+02  0.41800000000E+01 0.  1.
        -11    1    3    3    0    0 -0.32060941243E+02  0.18329782624E+02  0.22731134873E+01  0.37000701742E+02  0.00000000000E+00 0.  1.
         11    1    3    3    0    0 -0.27171483227E+02 -0.21871141070E+02  0.12783209505E+03  0.13250539928E+03  0.00000000000E+00 0. -1.
</event>
<event>
 7    1  0.4687179E-006  0.8535724E+02  0.7561462E-02  0.1314501E+00
         -2   -1    0    0    0  501 -0.00000000000E+00  0.00000000000E+00  0.14743664444E+03  0.14743664444E+03  0.00000000000E+00 0.  1.
          2   -1    0    0  501    0  0.00000000000E+00 -0.00000000000E+00 -0.74166564419E+02  0.74166564419E+02  0.00000000000E+00 0. -1.
         23    2    1    2    0    0  0.65579812447E+00  0.19898926465E+02  0.86428898116E+01  0.79405833372E+02  0.76381866196E+02 0.  0.
          5    1    1    2  502    0 -0.32660948821E+02 -0.62903631757E+02  0.48773270795E+02  0.86138892552E+02  0.41800000000E+01 0. -1.
         -5    1    1    2    0  502  0.32005150696E+02  0.43004705292E+02  0.15853919419E+02  0.56058482938E+02  0.41800000000E+01 0. -1.
        -11    1    3    3    0    0  0.75111063185E+01  0.31546728059E+02  0.36268080127E+02  0.48651684508E+02  0.00000000000E+00 0.  1.
         11    1    3    3    0    0 -0.68553081941E+01 -0.11647801593E+02 -0.27625190316E+02  0.30754148864E+02  0.00000000000E+00 0. -1.
</event>
<event>
 7    1  0.4687179E-006  0.1329810E+03  0.7561462E-02  0.1223098E+00
          2   -1    0    0  501    0  0.00000000000E+00  0.00000000000E+00  0.89418353318E+03  0.89418353318E+03  0.00000000000E+00 0. -1.
         -2   -1    0    0    0  501 -0.00000000000E+00 -0.00000000000E+00 -0.27205110264E+02  0.27205110264E+02  0.00000000000E+00 0.  1.
         23    2    1    2    0    0  0.69783514874E+02 -0.28063850724E+02  0.60101916038E+03  0.61801003845E+03  0.12269905383E+03 0.  0.
          5    1    1    2  502    0 -0.61347112898E+02 -0.26895604480E+02  0.22331145427E+03  0.23317872933E+03  0.41800000000E+01 0. -1.
         -5    1    1    2    0  502 -0.84364019757E+01  0.54959455205E+02  0.42647808269E+02  0.70199875675E+02  0.41800000000E+01 0. -1.
        -11    1    3    3    0    0 -0.13451081922E+00 -0.64325665714E+02  0.30351460689E+03  0.31025622630E+03  0.00000000000E+00 0.  1.
         11    1    3    3    0    0  0.69918025693E+02  0.36261814990E+02  0.29750455349E+03  0.30775381214E+03  0.00000000000E+00 0. -1.
</event>
<event>
 7    1  0.4687179E-006  0.9921271E+02  0.7561462E-02  0.1281960E+00
         -2   -1    0    0    0  501 -0.00000000000E+00  0.00000000000E+00  0.58554619727E+03  0.58554619727E+03  0.00000000000E+00 0.  1.
          2   -1    0    0  501    0  0.00000000000E+00 -0.00000000000E+00 -0.44593367151E+02  0.44593367151E+02  0.00000000000E+00 0. -1.
         23    2    1    2    0    0 -0.31004226090E+02 -0.46625640879E+02  0.45688062082E+02  0.11597099975E+03  0.90700944558E+02 0.  0.
          5    1    1    2  502    0  0.71862159792E+01  0.85965661083E+02  0.24747672670E+03  0.26211436291E+03  0.41800000000E+01 0.  1.
         -5    1    1    2    0  502  0.23818010111E+02 -0.39340020203E+02  0.24778804133E+03  0.25205420176E+03  0.41800000000E+01 0.  1.
        -11    1    3    3    0    0 -0.38700064923E+02 -0.36836345088E+02  0.70352936493E+02  0.88341083408E+02  0.00000000000E+00 0.  1.
         11    1    3    3    0    0  0.76958388334E+01 -0.97892957911E+01 -0.24664874411E+02  0.27629916343E+02  0.00000000000E+00 0. -1.
</event>
<event>
 7    1  0.4687179E-006  0.1604203E+03  0.7561462E-02  0.1188223E+00
         -2   -1    0    0    0  501 -0.00000000000E+00  0.00000000000E+00  0.41394631099E+02  0.41394631099E+02  0.00000000000E+00 0.  1.
          2   -1    0    0  501    0  0.00000000000E+00 -0.00000000000E+00 -0.83168824707E+03  0.83168824707E+03  0.00000000000E+00 0. -1.
         23    2    1    2    0    0  0.60649126274E+02 -0.13336105224E+03 -0.45289538451E+03  0.48456241563E+03  0.90680861039E+02 0.  0.
          5    1    1    2  502    0 -0.22004641860E+02  0.91372844356E+02 -0.76021610781E+02  0.12095436600E+03  0.41800000000E+01 0.  1.
         -5    1    1    2    0  502 -0.38644484415E+02  0.41988207888E+02 -0.26137662068E+03  0.26756609654E+03  0.41800000000E+01 0.  1.
        -11    1    3    3    0    0 -0.55878017847E+01 -0.90450624112E+02 -0.19854312878E+03  0.21824736634E+03  0.00000000000E+00 0.  1.
         11    1    3    3    0    0  0.66236928059E+02 -0.42910428132E+02 -0.25435225573E+03  0.26631504929E+03  0.00000000000E+00 0. -1.
</event>
<event>
 6    1  0.4687179E-006  0.2361605E+03  0.7561462E-02  0.1122377E+00
          2   -1    0    0  501    0  0.00000000000E+00  0.00000000000E+00  0.33057792211E+03  0.33057792211E+03  0.00000000000E+00 0. -1.
         -2   -1    0    0    0  501 -0.00000000000E+00 -0.00000000000E+00 -0.37140401080E+03  0.37140401080E+03  0.00000000000E+00 0.  1.
          5    1    1    2  502    0 -0.21451374739E+02 -0.10300366398E+02  0.49837211719E+02  0.55384827327E+02  0.41800000000E+01 0. -1.
         -5    1    1    2    0  502  0.11221795008E+03  0.18747012177E+03 -0.27127001405E+03  0.34834294567E+03  0.41800000000E+01 0.  1.
        -11    1    1    2    0    0  0.16173114776E+02  0.62285823603E+01  0.40058659521E+02  0.43647005423E+02  0.00000000000E+00 0.  1.
         11    1    1    2    0    0 -0.10693969011E+03 -0.18339833773E+03  0.14054805411E+03  0.25460715449E+03  0.00000000000E+00 0. -1.
</event>
<event>
 7    1  0.4687179E-006  0.1284716E+03  0.7561462E-02  0.1229741E+00
          2   -1    0    0  501    0  0.00000000000E+00  0.00000000000E+00  0.87306630488E+03  0.87306630488E+03  0.00000000000E+00 0.  1.
         -2   -1    0    0    0  501 -0.00000000000E+00 -0.00000000000E+00 -0.30754588208E+02  0.30754588208E+02  0.00000000000E+00 0. -1.
         23    2    1    2    0    0  0.10403950758E+03 -0.59501669176E+02  0.46263768701E+03  0.48648998993E+03  0.90962701649E+02 0.  0.
          5    1    1    2  502    0 -0.70828221114E+02  0.68487075313E+02  0.36765066206E+03  0.38064629002E+03  0.41800000000E+01 0.  1.
         -5    1    1    2    0  502 -0.33211286468E+02 -0.89854061372E+01  0.12023367598E+02  0.36684613133E+02  0.41800000000E+01 0.  1.
        -11    1    3    3    0    0  0.22112433789E+02 -0.28506205865E+02  0.36048758111E+02  0.51000749625E+02  0.00000000000E+00 0. -1.
         11    1    3    3    0    0  0.81927073792E+02 -0.30995463310E+02  0.42658892890E+03  0.43548924031E+03  0.00000000000E+00 0.  1.
</event>
<event>
 6    1  0.4687179E-006  0.9403597E+02  0.7561462E-02  0.1293362E+00
         -4   -1    0    0    0  501 -0.00000000000E+00  0.00000000000E+00  0.10967203196E+04  0.10967203196E+04  0.00000000000E+00 0.  1.
          4   -1    0    0  501    0  0.00000000000E+00 -0.00000000000E+00 -0.36585582174E+02  0.36585582174E+02  0.00000000000E+00 0. -1.
          5    1    1    2  502    0  0.64275579226E+02 -0.65945205049E+02  0.29978801545E+03  0.31364063315E+03  0.41800000000E+01 0. -1.
         -5    1    1    2    0  502 -0.28173462530E+02  0.26460493493E+02  0.75953535708E+03  0.76052963963E+03  0.41800000000E+01 0.  1.
        -11    1    1    2    0    0 -0.30353076927E+02  0.19168154175E+02 -0.70882356630E+01  0.36591945811E+02  0.00000000000E+00 0. -1.
         11    1    1    2    0    0 -0.57490397699E+01  0.20316557380E+02  0.78996005456E+01  0.22543683169E+02  0.00000000000E+00 0.  1.
</event>
<event>
 7    1  0.4687179E-006  0.9074503E+02  0.7561462E-02  0.1301057E+00
          1   -1    0    0  501    0  0.00000000000E+00  0.00000000000E+00  0.19096233010E+02  0.19096233010E+02  0.00000000000E+00 0. -1.
         -1   -1    0    0    0  501 -0.00000000000E+00 -0.00000000000E+00 -0.66185003047E+03  0.66185003047E+03  0.00000000000E+00 0.  1.
         23    2    1    2    0    0 -0.15737444849E+02 -0.20075168758E+02 -0.22150936477E+03  0.24078104493E+03  0.90875922804E+02 0.  0.
          5    1    1    2  502    0 -0.43385870201E+02 -0.11907854440E+02 -0.28074157419E+03  0.28435441725E+03  0.41800000000E+01 0.  1.
         -5    1    1    2    0  502  0.59123315051E+02  0.31983023198E+02 -0.14050285849E+03  0.15581080129E+03  0.41800000000E+01 0.  1.
        -11    1    3    3    0    0  0.10460774621E+02 -0.36544087538E+02 -0.34835619467E+02  0.51559853794E+02  0.00000000000E+00 0. -1.
         11    1    3    3    0    0 -0.26198219470E+02  0.16468918780E+02 -0.18667374530E+03  0.18922119114E+03  0.00000000000E+00 0.  1.
</event>
<event>
 7    1  0.4687179E-006  0.1457202E+03  0.7561462E-02  0.1205833E+00
         -1   -1    0    0    0  501 -0.00000000000E+00  0.00000000000E+00  0.33348322185E+03  0.33348322185E+03  0.00000000000E+00 0.  1.
          1   -1    0    0  501    0  0.00000000000E+00 -0.00000000000E+00 -0.11050873543E+03  0.11050873543E+03  0.00000000000E+00 0. -1.
         23    2    1    2    0    0 -0.80660287372E+02 -0.59908728124E+02 -0.30737610192E+02  0.14436296233E+03  0.98998618917E+02 0.  0.
          5    1    1    2  502    0 -0.25815281601E+02  0.37481133084E+02  0.11159141992E+03  0.12058765070E+03  0.41800000000E+01 0. -1.
         -5    1    1    2    0  502  0.10647556897E+03  0.22427595041E+02  0.14212067670E+03  0.17904134426E+03  0.41800000000E+01 0.  1.
        -11    1    3    3    0    0  0.11439583526E+02 -0.41338524647E+02  0.63397556440E+01  0.43358161779E+02  0.00000000000E+00 0.  1.
         11    1    3    3    0    0 -0.92099870898E+02 -0.18570203478E+02 -0.37077365836E+02  0.10100480055E+03  0.00000000000E+00 0. -1.
</event>
<event>
 7    1  0.4687179E-006  0.1093884E+03  0.7561462E-02  0.1261707E+00
         -3   -1    0    0    0  501 -0.00000000000E+00  0.00000000000E+00  0.14073043448E+03  0.14073043448E+03  0.00000000000E+00 0.  1.
          3   -1    0    0  501    0  0.00000000000E+00 -0.00000000000E+00 -0.12083194047E+03  0.12083194047E+03  0.00000000000E+00 0. -1.
         23    2    1    2    0    0  0.35057272224E+02  0.10480123278E+02 -0.55602801739E+02  0.11094837068E+03  0.88763866948E+02 0.  0.
          5    1    1    2  502    0 -0.77367684525E+02 -0.18119458905E+02  0.71939886521E+02  0.10727018725E+03  0.41800000000E+01 0.  1.
         -5    1    1    2    0  502  0.42310412301E+02  0.76393356270E+01  0.35614092261E+01  0.43343817016E+02  0.41800000000E+01 0.  1.
        -11    1    3    3    0    0  0.65036779028E+02  0.29798094221E+01 -0.37441316009E+02  0.75103355684E+02  0.00000000000E+00 0.  1.
         11    1    3    3    0    0 -0.29979506804E+02  0.75003138563E+01 -0.18161485730E+02  0.35845014996E+02  0.00000000000E+00 0. -1.
</event>
<event>
 7    1  0.4687179E-006  0.1374109E+03  0.7561462E-02  0.1216856E+00
          1   -1    0    0  501    0  0.00000000000E+00  0.00000000000E+00  0.23813605929E+03  0.23813605929E+03  0.00000000000E+00 0. -1.
         -1   -1    0    0    0  501 -0.00000000000E+00 -0.00000000000E+00 -0.10798855228E+03  0.10798855228E+03  0.00000000000E+00 0.  1.
         23    2    1    2    0    0 -0.43818161032E+02  0.10340579025E+03  0.35137821998E+02  0.15302629118E+03  0.97824284119E+02 0.  0.
          5    1    1    2  502    0 -0.37683010674E+02 -0.13800764065E+02  0.48968644311E+02  0.63449751047E+02  0.41800000000E+01 0. -1.
         -5    1    1    2    0  502  0.81501171706E+02 -0.89605026183E+02  0.46041040697E+02  0.12964856935E+03  0.41800000000E+01 0. -1.
        -11    1    3    3    0    0 -0.19810067451E+02  0.29220985483E+02 -0.33854389183E+02  0.48912415929E+02  0.00000000000E+00 0.  1.
         11    1    3    3    0    0 -0.24008093581E+02  0.74184804764E+02  0.68992211181E+02  0.10411387525E+03  0.00000000000E+00 0. -1.
</event>
<event>
 7    1  0.4687179E-006  0.1330962E+03  0.7561462E-02  0.1222932E+00
          1   -1    0    0  501    0  0.00000000000E+00  0.00000000000E+00  0.35136001665E+03  0.35136001665E+03  0.00000000000E+00 0. -1.
         -1   -1    0    0    0  501 -0.00000000000E+00 -0.00000000000E+00 -0.62068043460E+02  0.62068043460E+02  0.00000000000E+00 0.  1.
         23    2    1    2    0    0  0.99273484302E+02  0.69910951400E+01  0.14889760294E+03  0.20068175120E+03  0.90545949696E+02 0.  0.
          5    1    1    2  502    0 -0.33813849638E+02 -0.56054557197E+02  0.22822909340E+02  0.69453922860E+02  0.41800000000E+01 0. -1.
         -5    1    1    2    0  502 -0.65459634663E+02  0.49063462057E+02  0.11757146091E+03  0.14329238605E+03  0.41800000000E+01 0. -1.
        -11    1    3    3    0    0  0.78911750554E+02  0.33100255236E+02  0.56529642255E+02  0.10255872330E+03  0.00000000000E+00 0.  1.
         11    1    3    3    0    0  0.20361733747E+02 -0.26109160096E+02  0.92367960685E+02  0.98123027895E+02  0.00000000000E+00 0. -1.
</event>
<event>
 7    1  0.4687179E-006  0.3035063E+03  0.7561462E-02  0.1083501E+00
         -2   -1    0    0    0  501 -0.00000000000E+00  0.00000000000E+00  0.23539120788E+03  0.23539120788E+03  0.00000000000E+00 0.  1.
          2   -1    0    0  501    0  0.00000000000E+00 -0.00000000000E+00 -0.47783166058E+03  0.47783166058E+03  0.00000000000E+00 0. -1.
         23    2    1    2    0    0 -0.59253412791E+02 -0.34045777234E+02 -0.15450327656E+03  0.19187857749E+03  0.90972766012E+02 0.  0.
          5    1    1    2  502    0  0.26412998626E+03 -0.73710503093E+02 -0.93497730099E+02  0.28975366407E+03  0.41800000000E+01 0. -1.
         -5    1    1    2    0  502 -0.20487657347E+03  0.10775628033E+03  0.55605539622E+01  0.23159062690E+03  0.41800000000E+01 0.  1.
        -11    1    3    3    0    0  0.16322903212E+02 -0.17378578569E+02 -0.83544112608E+02  0.86879634632E+02  0.00000000000E+00 0. -1.
         11    1    3    3    0    0 -0.75576316003E+02 -0.16667198665E+02 -0.70959163954E+02  0.10499894286E+03  0.00000000000E+00 0.  1.
</event>
<event>
 7    1  0.4687179E-006  0.1455038E+03  0.7561462E-02  0.1206109E+00
          1   -1    0    0  501    0  0.00000000000E+00  0.00000000000E+00  0.25160802921E+03  0.25160802921E+03  0.00000000000E+00 0. -1.
         -1   -1    0    0    0  501 -0.00000000000E+00 -0.00000000000E+00 -0.12062239358E+03  0.12062239358E+03  0.00000000000E+00 0.  1.
         23    2    1    2    0    0 -0.85740426998E+01 -0.11633428099E+03  0.13461673955E+03  0.20119229587E+03  0.93538731074E+02 0.  0.
          5    1    1    2  502    0 -0.25108476585E+02  0.12486369460E+03 -0.25241093556E+02  0.12990751721E+03  0.41800000000E+01 0.  1.
         -5    1    1    2    0  502  0.33682519285E+02 -0.85294136050E+01  0.21609989638E+02  0.41130609696E+02  0.41800000000E+01 0.  1.
        -11    1    3    3    0    0 -0.30282097201E+02 -0.86764111449E+02  0.13639694075E+03  0.16446623329E+03  0.00000000000E+00 0. -1.
         11    1    3    3    0    0  0.21708054501E+02 -0.29570169542E+02 -0.17802011984E+01  0.36726062588E+02  0.00000000000E+00 0.  1.
</event>
<event>
 7    1  0.4687179E-006  0.1001139E+04  0.7561462E-02  0.9307297E-01
          1   -1    0    0  501    0  0.00000000000E+00  0.00000000000E+00  0.86980924694E+03  0.86980924694E+03  0.00000000000E+00 0. -1.
         -1   -1    0    0    0  501 -0.00000000000E+00 -0.00000000000E+00 -0.11737542568E+04  0.11737542568E+04  0.00000000000E+00 0.  1.
         23    2    1    2    0    0 -0.48573835787E+03  0.87470227969E+03 -0.24252371132E+03  0.10333825362E+04  0.89531475266E+02 0.  0.
          5    1    1    2  502    0  0.24094566408E+03 -0.40636012423E+03 -0.89986846762E+02  0.48093499414E+03  0.41800000000E+01 0. -1.
         -5    1    1    2    0  502  0.24479269379E+03 -0.46834215546E+03  0.28565548185E+02  0.52924597349E+03  0.41800000000E+01 0. -1.
        -11    1    3    3    0    0 -0.47392965278E+03  0.86389285861E+03 -0.22716911335E+03  0.10112002734E+04  0.00000000000E+00 0. -1.
         11    1    3    3    0    0 -0.11808705083E+02  0.10809421081E+02 -0.15354597979E+02  0.22182262710E+02  0.00000000000E+00 0.  1.
</event>
<event>
 7    1  0.4687179E-006  0.1081638E+03  0.7561462E-02  0.1264009E+00
          2   -1    0    0  501    0  0.00000000000E+00  0.00000000000E+00  0.50212443844E+02  0.50212443844E+02  0.00000000000E+00 0. -1.
         -2   -1    0    0    0  501 -0.00000000000E+00 -0.00000000000E+00 -0.29733609251E+03  0.29733609251E+03  0.00000000000E+00 0.  1.
         23    2    1    2    0    0 -0.48795479586E+02  0.37383594185E+02 -0.10252378959E+03  0.14671344175E+03  0.85059829624E+02 0.  0.
          5    1    1    2  502    0  0.23970348169E+02  0.30544998258E+02  0.57500366791E-01  0.39051891327E+02  0.41800000000E+01 0. -1.
         -5    1    1    2    0  502  0.24825131417E+02 -0.67928592444E+02 -0.14465735944E+03  0.16178320328E+03  0.41800000000E+01 0. -1.
        -11    1    3    3    0    0 -0.62128134310E+02  0.54838167077E+02 -0.83761967333E+02  0.11782697829E+03  0.00000000000E+00 0. -1.
         11    1    3    3    0    0  0.13332654724E+02 -0.17454572892E+02 -0.18761822253E+02  0.28886463458E+02  0.00000000000E+00 0.  1.
</event>
<event>
 7    1  0.4687179E-006  0.5010943E+02  0.7561462E-02  0.1444752E+00
          1   -1    0    0  501    0  0.00000000000E+00  0.00000000000E+00  0.45562514591E+02  0.45562514591E+02  0.00000000000E+00 0. -1.
         -1   -1    0    0    0  501 -0.00000000000E+00 -0.00000000000E+00 -0.30519582709E+03  0.30519582709E+03  0.00000000000E+00 0.  1.
         23    2    1    2    0    0 -0.16582178783E+02  0.39270777275E+02 -0.90067537072E+02  0.13577284322E+03  0.92222237672E+02 0.  0.
          5    1    1    2  502    0 -0.48235711762E+01 -0.32174659729E+02 -0.18464574257E+03  0.18753665833E+03  0.41800000000E+01 0. -1.
         -5    1    1    2    0  502  0.21405749959E+02 -0.70961175458E+01  0.15079967143E+02  0.27448840131E+02  0.41800000000E+01 0. -1.
        -11    1    3    3    0    0 -0.89069760927E+01  0.70498466977E+01  0.18807073726E+02  0.21971358258E+02  0.00000000000E+00 0. -1.
         11    1    3    3    0    0 -0.76752026901E+01  0.32220930577E+02 -0.10887461080E+03  0.11380148496E+03  0.00000000000E+00 0.  1.
</event>
<event>
 7    1  0.4687179E-006  0.7942904E+02  0.7561462E-02  0.1330680E+00
         -2   -1    0    0    0  501 -0.00000000000E+00  0.00000000000E+00  0.12036538762E+03  0.12036538762E+03  0.00000000000E+00 0. -1.
          2   -1    0    0  501    0  0.00000000000E+00 -0.00000000000E+00 -0.11109132803E+03  0.11109132803E+03  0.00000000000E+00 0.  1.
         23    2    1    2    0    0  0.29230769912E+02 -0.92324355549E+01 -0.29419191286E+02  0.97019323246E+02  0.87221468064E+02 0.  0.
          5    1    1    2  502    0  0.74326431578E+00  0.29799387984E+02 -0.38583179906E+02  0.48935571293E+02  0.41800000000E+01 0. -1.
         -5    1    1    2    0  502 -0.29974034228E+02 -0.20566952429E+02  0.77276430775E+02  0.85501821112E+02  0.41800000000E+01 0. -1.
        -11    1    3    3    0    0  0.38143493331E+02  0.32119109232E+02 -0.12117479945E+02  0.51316630653E+02  0.00000000000E+00 0.  1.
         11    1    3    3    0    0 -0.89127234192E+01 -0.41351544786E+02 -0.17301711341E+02  0.45702692593E+02  0.00000000000E+00 0. -1.
</event>
<event>
 7    1  0.4687179E-006  0.1053185E+03  0.7561462E-02  0.1269493E+00
          4   -1    0    0  501    0  0.00000000000E+00  0.00000000000E+00  0.31936238494E+03  0.31936238494E+03  0.00000000000E+00 0. -1.
         -4   -1    0    0    0  501 -0.00000000000E+00 -0.00000000000E+00 -0.60181925853E+02  0.60181925853E+02  0.00000000000E+00 0.  1.
         23    2    1    2    0    0  0.69190542708E+01 -0.67512318046E+02  0.19287636047E+03  0.22254254722E+03  0.87852766019E+02 0.  0.
          5    1    1    2  502    0 -0.13071231360E+02 -0.33345452448E+02  0.37103224774E+02  0.51738747345E+02  0.41800000000E+01 0.  1.
         -5    1    1    2    0  502  0.61521770894E+01  0.10085777049E+03  0.29200873849E+02  0.10526301623E+03  0.41800000000E+01 0.  1.
        -11    1    3    3    0    0 -0.94314976945E+01 -0.42713691200E+02  0.21739261654E+02  0.48846781490E+02  0.00000000000E+00 0.  1.
         11    1    3    3    0    0  0.16350551965E+02 -0.24798626846E+02  0.17113709881E+03  0.17369576573E+03  0.00000000000E+00 0. -1.
</event>
<event>
 7    1  0.4687179E-006  0.1172184E+03  0.7561462E-02  0.1247758E+00
         -1   -1    0    0    0  501 -0.00000000000E+00  0.00000000000E+00  0.43717129748E+02  0.43717129748E+02  0.00000000000E+00 0.  1.
          1   -1    0    0  501    0  0.00000000000E+00 -0.00000000000E+00 -0.35312147038E+03  0.35312147038E+03  0.00000000000E+00 0. -1.
         23    2    1    2    0    0 -0.14369429253E+02  0.27969442172E+02 -0.85311387760E+02  0.12900713642E+03  0.91520698061E+02 0.  0.
          5    1    1    2  502    0  0.74513246658E+02 -0.85213668734E+01 -0.76473740371E+02  0.10719395033E+03  0.41800000000E+01 0. -1.
         -5    1    1    2    0  502 -0.60143817404E+02 -0.19448075299E+02 -0.14761921250E+03  0.16063751337E+03  0.41800000000E+01 0.  1.
        -11    1    3    3    0    0  0.26898369530E+02 -0.19388573682E+02 -0.21819756595E+02  0.39693083159E+02  0.00000000000E+00 0. -1.
         11    1    3    3    0    0 -0.41267798783E+02  0.47358015854E+02 -0.63491631165E+02  0.89314053262E+02  0.00000000000E+00 0.  1.
</event>
<event>
 7    1  0.4687179E-006  0.8252403E+02  0.7561462E-02  0.1322037E+00
         -1   -1    0    0    0  501 -0.00000000000E+00  0.00000000000E+00  0.14831554830E+03  0.14831554830E+03  0.00000000000E+00 0.  1.
          1   -1    0    0  501    0  0.00000000000E+00 -0.00000000000E+00 -0.10760567362E+03  0.10760567362E+03  0.00000000000E+00 0. -1.
         23    2    1    2    0    0 -0.31678308068E+02 -0.48352371023E+02 -0.11898012059E+02  0.10843378198E+03  0.90966232190E+02 0.  0.
          5    1    1    2  502    0 -0.34098054724E+01  0.30524938391E+01  0.82494371273E+02  0.82726889121E+02  0.41800000000E+01 0.  1.
         -5    1    1    2    0  502  0.35088113541E+02  0.45299877184E+02 -0.29886484536E+02  0.64760550821E+02  0.41800000000E+01 0.  1.
        -11    1    3    3    0    0 -0.57633836256E+02 -0.15792001556E+02 -0.25006583216E+02  0.64779438087E+02  0.00000000000E+00 0. -1.
         11    1    3    3    0    0  0.25955528188E+02 -0.32560369467E+02  0.13108571156E+02  0.43654343897E+02  0.00000000000E+00 0.  1.
</event>
<event>
 7    1  0.4687179E-006  0.8213826E+02  0.7561462E-02  0.1323091E+00
         -2   -1    0    0    0  501 -0.00000000000E+00  0.00000000000E+00  0.15481686947E+03  0.15481686947E+03  0.00000000000E+00 0.  1.
          2   -1    0    0  501    0  0.00000000000E+00 -0.00000000000E+00 -0.14511903373E+03  0.14511903373E+03  0.00000000000E+00 0. -1.
         23    2    1    2    0    0  0.58684884213E+02  0.22088367038E+02 -0.74220748488E+02  0.13677862143E+03  0.96269726187E+02 0.  0.
          5    1    1    2  502    0 -0.11059920135E+02  0.28793340691E+02  0.87877423961E+02  0.93227100907E+02  0.41800000000E+01 0. -1.
         -5    1    1    2    0  502 -0.47624964077E+02 -0.50881707729E+02 -0.39588397349E+01  0.69930180872E+02  0.41800000000E+01 0. -1.
        -11    1    3    3    0    0  0.37479024301E+02  0.94735229664E+01 -0.96236289867E+02  0.10371040636E+03  0.00000000000E+00 0. -1.
         11    1    3    3    0    0  0.21205859912E+02  0.12614844071E+02  0.22015541379E+02  0.33068215068E+02  0.00000000000E+00 0.  1.
</event>
<event>
 7    1  0.4687179E-006  0.1795940E+03  0.7561462E-02  0.1168197E+00
         -2   -1    0    0    0  501 -0.00000000000E+00  0.00000000000E+00  0.76797758435E+03  0.76797758435E+03  0.00000000000E+00 0.  1.
          2   -1    0    0  501    0  0.00000000000E+00 -0.00000000000E+00 -0.67417960909E+02  0.67417960909E+02  0.00000000000E+00 0. -1.
         23    2    1    2    0    0 -0.14769917967E+03  0.20528557118E+02  0.95195065874E+02  0.19951126755E+03  0.92228932459E+02 0.  0.
          5    1    1    2  502    0 -0.15418199380E+02 -0.20960534069E+02  0.14696930341E+03  0.14931347363E+03  0.41800000000E+01 0.  1.
         -5    1    1    2    0  502  0.16311737905E+03  0.43197695096E+00  0.45839525416E+03  0.48657080408E+03  0.41800000000E+01 0.  1.
        -11    1    3    3    0    0 -0.79091451403E+02 -0.29858287544E+02  0.72615182549E+02  0.11144478344E+03  0.00000000000E+00 0.  1.
         11    1    3    3    0    0 -0.68607728265E+02  0.50386844662E+02  0.22579883325E+02  0.88066484111E+02  0.00000000000E+00 0. -1.
</event>
<event>
 7    1  0.4687179E-006  0.1668630E+03  0.7561462E-02  0.1181159E+00
         -4   -1    0    0    0  501 -0.00000000000E+00  0.00000000000E+00  0.34226201414E+03  0.34226201414E+03  0.00000000000E+00 0.  1.
          4   -1    0    0  501    0  0.00000000000E+00 -0.00000000000E+00 -0.12604721050E+03  0.12604721050E+03  0.00000000000E+00 0. -1.
         23    2    1    2    0    0 -0.12050568127E+03 -0.87470830211E+02 -0.37489317897E+01  0.17470425339E+03  0.91294886536E+02 0.  0.
          5    1    1    2  502    0  0.55858325962E+02  0.85277110610E+02  0.20206015863E+03  0.22635838460E+03  0.41800000000E+01 0. -1.
         -5    1    1    2    0  502  0.64647355306E+02  0.21937196003E+01  0.17903576793E+02  0.67246586648E+02  0.41800000000E+01 0. -1.
        -11    1    3    3    0    0  0.22485564785E+01 -0.32159388242E+02  0.20068112014E+02  0.37973824908E+02  0.00000000000E+00 0.  1.
         11    1    3    3    0    0 -0.12275423775E+03 -0.55311441968E+02 -0.23817043804E+02  0.13673042848E+03  0.00000000000E+00 0. -1.
</event>
<event>
 7    1  0.4687179E-006  0.1622365E+03  0.7561462E-02  0.1186195E+00
          1   -1    0    0  501    0  0.00000000000E+00  0.00000000000E+00  0.13057546260E+02  0.13057546260E+02  0.00000000000E+00 0. -1.
         -1   -1    0    0    0  501 -0.00000000000E+00 -0.00000000000E+00 -0.24669907929E+04  0.24669907929E+04  0.00000000000E+00 0.  1.
         23    2    1    2    0    0 -0.11767092292E+03  0.24389888145E+02 -0.62921260231E+03  0.64710139985E+03  0.91599181467E+02 0.  0.
          5    1    1    2  502    0  0.35868302176E+01 -0.54951126580E+02 -0.60283564024E+03  0.60536003602E+03  0.41800000000E+01 0.  1.
         -5    1    1    2    0  502  0.11408409270E+03  0.30561238435E+02 -0.12218850041E+04  0.12275869033E+04  0.41800000000E+01 0.  1.
        -11    1    3    3    0    0 -0.58140288160E+02 -0.34271327800E+02 -0.28812137406E+03  0.29592016357E+03  0.00000000000E+00 0. -1.
         11    1    3    3    0    0 -0.59530634757E+02  0.58661215944E+02 -0.34109122824E+03  0.35118123628E+03  0.00000000000E+00 0.  1.
</event>
<event>
 7    1  0.4687179E-006  0.1179727E+03  0.7561462E-02  0.1246479E+00
         -2   -1    0    0    0  501 -0.00000000000E+00  0.00000000000E+00  0.32484951285E+02  0.32484951285E+02  0.00000000000E+00 0.  1.
          2   -1    0    0  501    0  0.00000000000E+00 -0.00000000000E+00 -0.48489907456E+03  0.48489907456E+03  0.00000000000E+00 0. -1.
         23    2    1    2    0    0 -0.17261124569E+02  0.69239784627E+02 -0.20052696513E+03  0.22723423522E+03  0.79575371294E+02 0.  0.
          5    1    1    2  502    0  0.10523099818E+01  0.30160573985E+02 -0.12195041695E+03  0.12569862439E+03  0.41800000000E+01 0.  1.
         -5    1    1    2    0  502  0.16208814587E+02 -0.99400358611E+02 -0.12993674119E+03  0.16445116623E+03  0.41800000000E+01 0.  1.
        -11    1    3    3    0    0 -0.22910986019E+02 -0.10170804084E+02 -0.30404020360E+02  0.39405113756E+02  0.00000000000E+00 0.  1.
         11    1    3    3    0    0  0.56498614500E+01  0.79410588711E+02 -0.17012294477E+03  0.18782912147E+03  0.00000000000E+00 0. -1.
</event>
<event>
 7    1  0.4687179E-006  0.7126010E+02  0.7561462E-02  0.1355860E+00
         -2   -1    0    0    0  501 -0.00000000000E+00  0.00000000000E+00  0.38094392402E+03  0.38094392402E+03  0.00000000000E+00 0.  1.
          2   -1    0    0  501    0  0.00000000000E+00 -0.00000000000E+00 -0.32036418125E+02  0.32036418125E+02  0.00000000000E+00 0. -1.
         23    2    1    2    0    0 -0.77031078195E+01  0.35761143943E+01  0.11216516997E+03  0.14508748122E+03  0.91636375894E+02 0.  0.
          5    1    1    2  502    0 -0.23159566564E+02 -0.24774509512E+02  0.67441752413E+01  0.34829558491E+02  0.41800000000E+01 0. -1.
         -5    1    1    2    0  502  0.30862674383E+02  0.21198395118E+02  0.22999816068E+03  0.23306330243E+03  0.41800000000E+01 0. -1.
        -11    1    3    3    0    0  0.26006512826E+02 -0.17105066088E+02  0.58734264399E+01  0.31676791716E+02  0.00000000000E+00 0. -1.
         11    1    3    3    0    0 -0.33709620645E+02  0.20681180483E+02  0.10629174353E+03  0.11341068950E+03  0.00000000000E+00 0.  1.
</event>
<event>
 7    1  0.4687179E-006  0.6398919E+02  0.7561462E-02  0.1381815E+00
          2   -1    0    0  501    0  0.00000000000E+00  0.00000000000E+00  0.44932366644E+02  0.44932366644E+02  0.00000000000E+00 0. -1.
         -2   -1    0    0    0  501 -0.00000000000E+00 -0.00000000000E+00 -0.24754996612E+03  0.24754996612E+03  0.00000000000E+00 0.  1.
         23    2    1    2    0    0  0.14732599761E+02  0.29044484723E+02 -0.81018724122E+02  0.12470656157E+03  0.89034045471E+02 0.  0.
          5    1    1    2  502    0 -0.26440309426E+02 -0.21125008961E+02  0.98568358266E+01  0.35496275560E+02  0.41800000000E+01 0. -1.
         -5    1    1    2    0  502  0.11707709665E+02 -0.79194757624E+01 -0.13145571119E+03  0.13227949563E+03  0.41800000000E+01 0.  1.
        -11    1    3    3    0    0  0.17029843087E+02 -0.22123449495E+02 -0.65477471826E+02  0.71181190562E+02  0.00000000000E+00 0. -1.
         11    1    3    3    0    0 -0.22972433261E+01  0.51167934219E+02 -0.15541252296E+02  0.53525371012E+02  0.00000000000E+00 0.  1.
</event>
<event>
 7    1  0.5069602E-006  0.1293739E+03  0.7561462E-02  0.1228388E+00
         -2   -1    0    0    0  501 -0.00000000000E+00  0.00000000000E+00  0.31891756133E+02  0.31891756133E+02  0.00000000000E+00 0.  1.
          2   -1    0    0  501    0  0.00000000000E+00 -0.00000000000E+00 -0.59890472942E+03  0.59890472942E+03  0.00000000000E+00 0. -1.
         23    2    1    2    0    0 -0.56010646383E+01  0.85497567525E+02 -0.29054289730E+03  0.31548015043E+03  0.88155227649E+02 0.  0.
          5    1    1    2  502    0 -0.58270936654E+02 -0.38463079530E+02 -0.10274796658E+03  0.12429612859E+03  0.41800000000E+01 0. -1.
         -5    1    1    2    0  502  0.63872001293E+02 -0.47034487995E+02 -0.17372210940E+03  0.19102020653E+03  0.41800000000E+01 0. -1.
        -11    1    3    3    0    0  0.31287780145E+02  0.40852045249E+02 -0.21040632719E+03  0.21660710355E+03  0.00000000000E+00 0. -1.
         11    1    3    3    0    0 -0.36888844784E+02  0.44645522276E+02 -0.80136570114E+02  0.98873046875E+02  0.00000000000E+00 0.  1.
</event>
<event>
 7    1  0.4687179E-006  0.1604406E+03  0.7561462E-02  0.1188200E+00
          2   -1    0    0  501    0  0.00000000000E+00  0.00000000000E+00  0.14074490097E+03  0.14074490097E+03  0.00000000000E+00 0. -1.
         -2   -1    0    0    0  501 -0.00000000000E+00 -0.00000000000E+00 -0.25983306440E+03  0.25983306440E+03  0.00000000000E+00 0.  1.
         23    2    1    2    0    0  0.62676036570E+02  0.10994501743E+03  0.40075035819E+02  0.16183905412E+03  0.92572558167E+02 0.  0.
          5    1    1    2  502    0 -0.94332948591E+02 -0.66576700528E+02 -0.14013213711E+03  0.18161952124E+03  0.41800000000E+01 0.  1.
         -5    1    1    2    0  502  0.31656912021E+02 -0.43368316901E+02 -0.19031062129E+02  0.57119390012E+02  0.41800000000E+01 0.  1.
        -11    1    3    3    0    0  0.43209588087E+02  0.12142898730E+03  0.48510608302E+02  0.13771472898E+03  0.00000000000E+00 0. -1.
         11    1    3    3    0    0  0.19466448483E+02 -0.11483969871E+02 -0.84355724836E+01  0.24124325145E+02  0.00000000000E+00 0.  1.
</event>
<event>
 7    1  0.4687179E-006  0.1707627E+03  0.7561462E-02  0.1177055E+00
         -2   -1    0    0    0  501 -0.00000000000E+00  0.00000000000E+00  0.13893724524E+03  0.13893724524E+03  0.00000000000E+00 0.  1.
          2   -1    0    0  501    0  0.00000000000E+00 -0.00000000000E+00 -0.28459809790E+03  0.28459809790E+03  0.00000000000E+00 0. -1.
         23    2    1    2    0    0 -0.14692083917E+03 -0.23234096005E+02 -0.14959010809E+03  0.22914545837E+03  0.89470019864E+02 0.  0.
          5    1    1    2  502    0  0.13319130041E+03 -0.20233480671E+02  0.34766921405E+02  0.13919600378E+03  0.41800000000E+01 0. -1.
         -5    1    1    2    0  502  0.13729538754E+02  0.43467576676E+02 -0.30837665970E+02  0.55193880991E+02  0.41800000000E+01 0. -1.
        -11    1    3    3    0    0 -0.77094076508E+02 -0.43157631136E+02 -0.38379661524E+02  0.96327961551E+02  0.00000000000E+00 0.  1.
         11    1    3    3    0    0 -0.69826762658E+02  0.19923535131E+02 -0.11121044657E+03  0.13281749682E+03  0.00000000000E+00 0. -1.
</event>
<event>
 7    1  0.4687179E-006  0.1397272E+03  0.7561462E-02  0.1213696E+00
          2   -1    0    0  501    0  0.00000000000E+00  0.00000000000E+00  0.11960516467E+03  0.11960516467E+03  0.00000000000E+00 0. -1.
         -2   -1    0    0    0  501 -0.00000000000E+00 -0.00000000000E+00 -0.26747479014E+03  0.26747479014E+03  0.00000000000E+00 0.  1.
         23    2    1    2    0    0 -0.86897373892E+02  0.71330736556E+02  0.23626365551E+02  0.14687642616E+03  0.91516402054E+02 0.  0.
          5    1    1    2  502    0 -0.71423364919E+01 -0.38179881858E+02  0.30028766965E+01  0.39181705141E+02  0.41800000000E+01 0. -1.
         -5    1    1    2    0  502  0.94039710384E+02 -0.33150854698E+02 -0.17449886772E+03  0.20102182352E+03  0.41800000000E+01 0. -1.
        -11    1    3    3    0    0  0.16739824219E+02  0.47257570909E+01 -0.87892209607E+01  0.19488583839E+02  0.00000000000E+00 0.  1.
         11    1    3    3    0    0 -0.10363719811E+03  0.66604979465E+02  0.32415586512E+02  0.12738784232E+03  0.00000000000E+00 0. -1.
</event>
<event>
 7    1  0.4687179E-006  0.8747453E+02  0.7561462E-02  0.1309085E+00
         -2   -1    0    0    0  501 -0.00000000000E+00  0.00000000000E+00  0.37462722949E+02  0.37462722949E+02  0.00000000000E+00 0.  1.
          2   -1    0    0  501    0  0.00000000000E+00 -0.00000000000E+00 -0.47192930434E+03  0.47192930434E+03  0.00000000000E+00 0. -1.
         23    2    1    2    0    0 -0.56144027553E+02 -0.47013229131E+02 -0.20398446269E+03  0.23712148011E+03  0.96200518535E+02 0.  0.
          5    1    1    2  502    0  0.18913215329E+02  0.30717265990E+02 -0.22849941731E+03  0.23136705957E+03  0.41800000000E+01 0.  1.
         -5    1    1    2    0  502  0.37230812224E+02  0.16295963140E+02 -0.19827013868E+01  0.40903487606E+02  0.41800000000E+01 0.  1.
        -11    1    3    3    0    0 -0.34379662746E+02 -0.62318120499E+02 -0.67577780869E+02  0.98144107415E+02  0.00000000000E+00 0.  1.
         11    1    3    3    0    0 -0.21764364807E+02  0.15304891368E+02 -0.13640668182E+03  0.13897737269E+03  0.00000000000E+00 0. -1.
</event>
<event>
 7    1  0.4687179E-006  0.1508796E+03  0.7561462E-02  0.1199396E+00
         -2   -1    0    0    0  501 -0.00000000000E+00  0.00000000000E+00  0.27568244448E+02  0.27568244448E+02  0.00000000000E+00 0.  1.
          2   -1    0    0  501    0  0.00000000000E+00 -0.00000000000E+00 -0.10488486601E+04  0.10488486601E+04  0.00000000000E+00 0. -1.
         23    2    1    2    0    0 -0.88650032981E+02  0.95105532008E+02 -0.45917259583E+03  0.48606381221E+03  0.92274949026E+02 0.  0.
          5    1    1    2  502    0  0.81003007823E+02 -0.62849737327E+01 -0.17346690881E+03  0.19159652665E+03  0.41800000000E+01 0. -1.
         -5    1    1    2    0  502  0.76470251585E+01 -0.88820558275E+02 -0.38864091105E+03  0.39875656572E+03  0.41800000000E+01 0. -1.
        -11    1    3    3    0    0 -0.17653766364E+02  0.30110623678E+02 -0.29375476173E+02  0.45620431009E+02  0.00000000000E+00 0.  1.
         11    1    3    3    0    0 -0.70996266617E+02  0.64994908330E+02 -0.42979711966E+03  0.44044338120E+03  0.00000000000E+00 0. -1.
</event>
<event>
 7    1  0.4687179E-006  0.9446620E+02  0.7561462E-02  0.1292383E+00
         -2   -1    0    0    0  501 -0.00000000000E+00  0.00000000000E+00  0.18870450396E+03  0.18870450396E+03  0.00000000000E+00 0.  1.
          2   -1    0    0  501    0  0.00000000000E+00 -0.00000000000E+00 -0.89656128875E+02  0.89656128875E+02  0.00000000000E+00 0. -1.
         23    2    1    2    0    0  0.62112131051E+00  0.17122603746E+02 -0.29699585404E+02  0.98033557539E+02  0.91841949456E+02 0.  0.
          5    1    1    2  502    0  0.18609349561E+02 -0.57689475589E+02  0.11984572599E+03  0.13436835164E+03  0.41800000000E+01 0. -1.
         -5    1    1    2    0  502 -0.19230470872E+02  0.40566871844E+02  0.89022345038E+01  0.45958723658E+02  0.41800000000E+01 0. -1.
        -11    1    3    3    0    0  0.14996578658E+02 -0.30149833457E+02  0.94715561100E+01  0.34980283076E+02  0.00000000000E+00 0.  1.
         11    1    3    3    0    0 -0.14375457348E+02  0.47272437203E+02 -0.39171141514E+02  0.63053274463E+02  0.00000000000E+00 0. -1.
</event>
<event>
 7    1  0.4687179E-006  0.8698416E+02  0.7561462E-02  0.1310324E+00
         -4   -1    0    0    0  501 -0.00000000000E+00  0.00000000000E+00  0.32982559850E+02  0.32982559850E+02  0.00000000000E+00 0.  1.
          4   -1    0    0  501    0  0.00000000000E+00 -0.00000000000E+00 -0.46735051768E+03  0.46735051768E+03  0.00000000000E+00 0. -1.
         23    2    1    2    0    0 -0.20143946620E+02 -0.65732554464E+02 -0.23510231031E+03  0.25521905134E+03  0.71673708943E+02 0.  0.
          5    1    1    2  502    0  0.11490652984E+02 -0.19906946325E+01  0.15428612691E+02  0.19786673816E+02  0.41800000000E+01 0. -1.
         -5    1    1    2    0  502  0.86532936367E+01  0.67723249097E+02 -0.21469426021E+03  0.22532735237E+03  0.41800000000E+01 0. -1.
        -11    1    3    3    0    0 -0.15427772338E+01 -0.73140158165E+02 -0.13924250796E+03  0.15729061930E+03  0.00000000000E+00 0.  1.
         11    1    3    3    0    0 -0.18601169386E+02  0.74076037008E+01 -0.95859802350E+02  0.97928432039E+02  0.00000000000E+00 0. -1.
</event>
<event>
 7    1  0.4687179E-006  0.1027653E+03  0.7561462E-02  0.1274586E+00
         -2   -1    0    0    0  501 -0.00000000000E+00  0.00000000000E+00  0.90075656009E+02  0.90075656009E+02  0.00000000000E+00 0.  1.
          2   -1    0    0  501    0  0.00000000000E+00 -0.00000000000E+00 -0.14037371445E+03  0.14037371445E+03  0.00000000000E+00 0. -1.
         23    2    1    2    0    0 -0.44901594738E+01  0.29028369861E+02 -0.33540745483E+02  0.10086985042E+03  0.90481696085E+02 0.  0.
          5    1    1    2  502    0 -0.10823113013E+02 -0.68262274535E+02  0.21526318876E+02  0.72510224826E+02  0.41800000000E+01 0.  1.
         -5    1    1    2    0  502  0.15313272486E+02  0.39233904674E+02 -0.38283631836E+02  0.57069295219E+02  0.41800000000E+01 0.  1.
        -11    1    3    3    0    0  0.19868919792E+02  0.54927885689E+02 -0.13114328341E+02  0.59865116786E+02  0.00000000000E+00 0.  1.
         11    1    3    3    0    0 -0.24359079266E+02 -0.25899515828E+02 -0.20426417142E+02  0.41004733630E+02  0.00000000000E+00 0. -1.
</event>
<event>
 7    1  0.4687179E-006  0.1880697E+03  0.7561462E-02  0.1160214E+00
         -1   -1    0    0    0  501 -0.00000000000E+00  0.00000000000E+00  0.15829102133E+03  0.15829102133E+03  0.00000000000E+00 0.  1.
          1   -1    0    0  501    0  0.00000000000E+00 -0.00000000000E+00 -0.30724382224E+03  0.30724382224E+03  0.00000000000E+00 0. -1.
         23    2    1    2    0    0  0.77041533351E+02 -0.16426685530E+03 -0.13681383022E+03  0.24483099164E+03  0.91132830072E+02 0.  0.
          5    1    1    2  502    0 -0.75969196036E+02  0.98763319663E+02 -0.61072810743E+02  0.13882677216E+03  0.41800000000E+01 0. -1.
         -5    1    1    2    0  502 -0.10723373144E+01  0.65503535639E+02  0.48933840056E+02  0.81877079767E+02  0.41800000000E+01 0. -1.
        -11    1    3    3    0    0  0.55017363026E+02 -0.70087657276E+02 -0.16762520972E+02  0.90665164457E+02  0.00000000000E+00 0. -1.
         11    1    3    3    0    0  0.22024170325E+02 -0.94179198027E+02 -0.12005130925E+03  0.15416582719E+03  0.00000000000E+00 0.  1.
</event>
<event>
 7    1  0.4687179E-006  0.9671057E+02  0.7561462E-02  0.1287369E+00
          1   -1    0    0  501    0  0.00000000000E+00  0.00000000000E+00  0.63545526498E+02  0.63545526498E+02  0.00000000000E+00 0. -1.
         -1   -1    0    0    0  501 -0.00000000000E+00 -0.00000000000E+00 -0.24079327644E+03  0.24079327644E+03  0.00000000000E+00 0.  1.
         23    2    1    2    0    0  0.23004346560E+02  0.41796728877E+02 -0.36328371909E+02  0.10996129367E+03  0.92171410941E+02 0.  0.
          5    1    1    2  502    0  0.19157144898E+02  0.35663182926E+02 -0.70664991154E+02  0.81546748505E+02  0.41800000000E+01 0.  1.
         -5    1    1    2    0  502 -0.42161491457E+02 -0.77459911803E+02 -0.70254386883E+02  0.11283076077E+03  0.41800000000E+01 0.  1.
        -11    1    3    3    0    0  0.31518380532E+02  0.12469929615E+02 -0.61608632562E+02  0.70317359607E+02  0.00000000000E+00 0.  1.
         11    1    3    3    0    0 -0.85140339722E+01  0.29326799262E+02  0.25280260653E+02  0.39643934065E+02  0.00000000000E+00 0. -1.
</event>
<event>
 7    1  0.4687179E-006  0.1190414E+03  0.7561462E-02  0.1244687E+00
         -2   -1    0    0    0  501 -0.00000000000E+00  0.00000000000E+00  0.73554701452E+02  0.73554701452E+02  0.00000000000E+00 0.  1.
          2   -1    0    0  501    0  0.00000000000E+00 -0.00000000000E+00 -0.21414147370E+03  0.21414147370E+03  0.00000000000E+00 0. -1.
         23    2    1    2    0    0 -0.62744484786E+02 -0.72336464761E+01 -0.10272797698E+03  0.15241621662E+03  0.93211961796E+02 0.  0.
          5    1    1    2  502    0  0.43743196040E+01  0.53100907282E+02 -0.27822232613E+02  0.60252718227E+02  0.41800000000E+01 0. -1.
         -5    1    1    2    0  502  0.58370165182E+02 -0.45867260806E+02 -0.10036562648E+02  0.75027240299E+02  0.41800000000E+01 0.  1.
        -11    1    3    3    0    0  0.21220112983E+02 -0.14964157534E+02 -0.12156680096E+02  0.28670613469E+02  0.00000000000E+00 0.  1.
         11    1    3    3    0    0 -0.83964597769E+02  0.77305110584E+01 -0.90571296888E+02  0.12374560315E+03  0.00000000000E+00 0. -1.
</event>
<event>
 7    1  0.4687179E-006  0.1279949E+03  0.7561462E-02  0.1230462E+00
          2   -1    0    0  501    0  0.00000000000E+00  0.00000000000E+00  0.57459323435E+03  0.57459323435E+03  0.00000000000E+00 0. -1.
         -2   -1    0    0    0  501 -0.00000000000E+00 -0.00000000000E+00 -0.30171801015E+02  0.30171801015E+02  0.00000000000E+00 0.  1.
         23    2    1    2    0    0  0.57404412508E+02  0.44545587031E+02  0.21476230789E+03  0.24476043956E+03  0.92223901380E+02 0.  0.
          5    1    1    2  502    0 -0.60478530813E+02  0.30108356167E+02  0.18764439173E+03  0.19947946247E+03  0.41800000000E+01 0. -1.
         -5    1    1    2    0  502  0.30741183048E+01 -0.74653943197E+02  0.14201473372E+03  0.16052513333E+03  0.41800000000E+01 0. -1.
        -11    1    3    3    0    0 -0.22970455566E+02  0.16725620216E+02  0.84859237513E+02  0.89490102200E+02  0.00000000000E+00 0.  1.
         11    1    3    3    0    0  0.80374868074E+02  0.27819966814E+02  0.12990307038E+03  0.15527033736E+03  0.00000000000E+00 0. -1.
</event>
<event>
 7    1  0.4687179E-006  0.1065353E+03  0.7561462E-02  0.1267124E+00
         -3   -1    0    0    0  501 -0.00000000000E+00  0.00000000000E+00  0.64826428219E+02  0.64826428219E+02  0.00000000000E+00 0.  1.
          3   -1    0    0  501    0  0.00000000000E+00 -0.00000000000E+00 -0.21651189202E+03  0.21651189202E+03  0.00000000000E+00 0. -1.
         23    2    1    2    0    0 -0.48957862632E+02 -0.12457179964E+02 -0.10436266325E+03  0.15060030950E+03  0.96108449658E+02 0.  0.
          5    1    1    2  502    0  0.83096919791E+02 -0.21432186297E+01 -0.23723019664E+02  0.86544471382E+02  0.41800000000E+01 0. -1.
         -5    1    1    2    0  502 -0.34139057159E+02  0.14600398594E+02 -0.23599780894E+02  0.44193539359E+02  0.41800000000E+01 0.  1.
        -11    1    3    3    0    0 -0.56627947385E+01 -0.40499272489E+02 -0.85397214830E+01  0.41775413336E+02  0.00000000000E+00 0.  1.
         11    1    3    3    0    0 -0.43295067893E+02  0.28042092525E+02 -0.95822941762E+02  0.10882489616E+03  0.00000000000E+00 0. -1.
</event>
<event>
 7    1  0.4687179E-006  0.8198330E+02  0.7561462E-02  0.1323515E+00
          3   -1    0    0  501    0  0.00000000000E+00  0.00000000000E+00  0.13331449664E+03  0.13331449664E+03  0.00000000000E+00 0. -1.
         -3   -1    0    0    0  501 -0.00000000000E+00 -0.00000000000E+00 -0.10732820229E+03  0.10732820229E+03  0.00000000000E+00 0.  1.
         23    2    1    2    0    0 -0.31607271109E+02 -0.22010415676E+02  0.51063778979E+02  0.10738043187E+03  0.86252939892E+02 0.  0.
          5    1    1    2  502    0  0.45650693756E+02 -0.13649124139E+02 -0.63056596454E+02  0.79144748319E+02  0.41800000000E+01 0.  1.
         -5    1    1    2    0  502 -0.14043422647E+02  0.35659539815E+02  0.37979111821E+02  0.54117518736E+02  0.41800000000E+01 0.  1.
        -11    1    3    3    0    0 -0.24096109380E+02  0.22185550668E+02  0.53228226701E+02  0.62498522090E+02  0.00000000000E+00 0.  1.
         11    1    3    3    0    0 -0.75111617290E+01 -0.44195966345E+02 -0.21644477217E+01  0.44881909781E+02  0.00000000000E+00 0. -1.
</event>
<event>
 7    1  0.4687179E-006  0.1130191E+03  0.7561462E-02  0.1255079E+00
         -2   -1    0    0    0  501 -0.00000000000E+00  0.00000000000E+00  0.39809096468E+03  0.39809096468E+03  0.00000000000E+00 0.  1.
          2   -1    0    0  501    0  0.00000000000E+00 -0.00000000000E+00 -0.40956364563E+02  0.40956364563E+02  0.00000000000E+00 0. -1.
         23    2    1    2    0    0  0.82258140271E+01  0.64952891234E+02  0.13105060605E+03  0.17248988840E+03  0.91060189759E+02 0.  0.
          5    1    1    2  502    0  0.11903107592E+02 -0.87352012623E+02  0.21786431816E+03  0.23506252702E+03  0.41800000000E+01 0. -1.
         -5    1    1    2    0  502 -0.20128921619E+02  0.22399121390E+02  0.82196759013E+01  0.31494913820E+02  0.41800000000E+01 0. -1.
        -11    1    3    3    0    0  0.44833154133E+02  0.19175046158E+02  0.84821075874E+02  0.97838177708E+02  0.00000000000E+00 0.  1.
         11    1    3    3    0    0 -0.36607340106E+02  0.45777845076E+02  0.46229530178E+02  0.74651710696E+02  0.00000000000E+00 0. -1.
</event>
<event>
 7    1  0.4687179E-006  0.1508829E+03  0.7561462E-02  0.1199392E+00
          1   -1    0    0  501    0  0.00000000000E+00  0.00000000000E+00  0.12290968836E+03  0.12290968836E+03  0.00000000000E+00 0. -1.
         -1   -1    0    0    0  501 -0.00000000000E+00 -0.00000000000E+00 -0.22516477109E+03  0.22516477109E+03  0.00000000000E+00 0.  1.
         23    2    1    2    0    0 -0.84624239008E+02 -0.84806633997E+02 -0.43475027750E+01  0.14911018625E+03  0.88665212257E+02 0.  0.
          5    1    1    2  502    0 -0.28135389789E+02  0.43716156985E+02 -0.20208185307E+02  0.55933404094E+02  0.41800000000E+01 0. -1.
         -5    1    1    2    0  502  0.11275962880E+03  0.41090477011E+02 -0.77699394652E+02  0.14303086910E+03  0.41800000000E+01 0. -1.
        -11    1    3    3    0    0 -0.60719901108E+02 -0.26013346971E+02 -0.39089178203E+02  0.76756527173E+02  0.00000000000E+00 0.  1.
         11    1    3    3    0    0 -0.23904337900E+02 -0.58793287026E+02  0.34741675428E+02  0.72353659073E+02  0.00000000000E+00 0. -1.
</event>
<event>
 7    1  0.4687179E-006  0.9161346E+02  0.7561462E-02  0.1298991E+00
         -2   -1    0    0    0  501 -0.00000000000E+00  0.00000000000E+00  0.36025031575E+02  0.36025031575E+02  0.00000000000E+00 0.  1.
          2   -1    0    0  501    0  0.00000000000E+00 -0.00000000000E+00 -0.42679946308E+03  0.42679946308E+03  0.00000000000E+00 0. -1.
         23    2    1    2    0    0 -0.18875908077E+02  0.56050902937E+02 -0.15428237719E+03  0.18882971445E+03  0.91409001333E+02 0.  0.
          5    1    1    2  502    0  0.20967057673E+01 -0.56915091169E+02 -0.25923131972E+02  0.62715268867E+02  0.41800000000E+01 0.  1.
         -5    1    1    2    0  502  0.16779202310E+02  0.86418823165E+00 -0.21056892235E+03  0.21127951134E+03  0.41800000000E+01 0.  1.
        -11    1    3    3    0    0  0.13130215905E+02  0.71901417196E+02 -0.10673580149E+03  0.12936285280E+03  0.00000000000E+00 0.  1.
         11    1    3    3    0    0 -0.32006123982E+02 -0.15850514259E+02 -0.47546575694E+02  0.59466861653E+02  0.00000000000E+00 0. -1.
</event>
<event>
 7    1  0.4687179E-006  0.1043479E+03  0.7561462E-02  0.1271410E+00
          2   -1    0    0  501    0  0.00000000000E+00  0.00000000000E+00  0.28519181192E+03  0.28519181192E+03  0.00000000000E+00 0. -1.
         -2   -1    0    0    0  501 -0.00000000000E+00 -0.00000000000E+00 -0.54328235651E+02  0.54328235651E+02  0.00000000000E+00 0.  1.
         23    2    1    2    0    0  0.29125879878E+02 -0.46658934515E+02  0.12820678874E+03  0.16860480942E+03  0.94684888074E+02 0.  0.
          5    1    1    2  502    0 -0.42631284775E+02  0.74870134753E+02  0.10872056246E+03  0.13878255157E+03  0.41800000000E+01 0.  1.
         -5    1    1    2    0  502  0.13505404897E+02 -0.28211200238E+02 -0.60637749380E+01  0.32132686579E+02  0.41800000000E+01 0.  1.
        -11    1    3    3    0    0  0.92098206437E+01  0.19620963835E+02  0.83372625124E+02  0.86144051670E+02  0.00000000000E+00 0. -1.
         11    1    3    3    0    0  0.19916059235E+02 -0.66279898349E+02  0.44834163621E+02  0.82460757747E+02  0.00000000000E+00 0.  1.
</event>
<event>
 7    1  0.4687179E-006  0.9213549E+02  0.7561462E-02  0.1297761E+00
         -1   -1    0    0    0  501 -0.00000000000E+00  0.00000000000E+00  0.32940221442E+03  0.32940221442E+03  0.00000000000E+00 0.  1.
          1   -1    0    0  501    0  0.00000000000E+00 -0.00000000000E+00 -0.55204900590E+02  0.55204900590E+02  0.00000000000E+00 0. -1.
         23    2    1    2    0    0  0.59142818086E+02  0.19659546059E+02  0.51609111390E+02  0.12178356542E+03  0.91012997675E+02 0.  0.
          5    1    1    2  502    0 -0.51017263444E+02  0.21685332303E+02  0.21201305097E+03  0.21918033897E+03  0.41800000000E+01 0. -1.
         -5    1    1    2    0  502 -0.81255546420E+01 -0.41344878362E+02  0.10575151468E+02  0.43643210624E+02  0.41800000000E+01 0. -1.
        -11    1    3    3    0    0  0.69272206380E+02  0.26440405863E+02  0.57918917735E+01  0.74372573233E+02  0.00000000000E+00 0. -1.
         11    1    3    3    0    0 -0.10129388294E+02 -0.67808598045E+01  0.45817219617E+02  0.47410992189E+02  0.00000000000E+00 0.  1.
</event>
<event>
 7    1  0.4687179E-006  0.7587179E+02  0.7561462E-02  0.1341192E+00
         -1   -1    0    0    0  501 -0.00000000000E+00  0.00000000000E+00  0.52878175123E+02  0.52878175123E+02  0.00000000000E+00 0.  1.
          1   -1    0    0  501    0  0.00000000000E+00 -0.00000000000E+00 -0.20826482076E+03  0.20826482076E+03  0.00000000000E+00 0. -1.
         23    2    1    2    0    0  0.53713528627E+01  0.12371975918E+02 -0.94219481436E+02  0.13201976680E+03  0.91487654486E+02 0.  0.
          5    1    1    2  502    0 -0.24070891871E+00  0.24554863898E+02 -0.82354077557E+02  0.86038745761E+02  0.41800000000E+01 0. -1.
         -5    1    1    2    0  502 -0.51306439440E+01 -0.36926839816E+02  0.21186913354E+02  0.43084483327E+02  0.41800000000E+01 0.  1.
        -11    1    3    3    0    0 -0.40438357754E+02 -0.40824809477E+01 -0.26121257060E+02  0.48314050740E+02  0.00000000000E+00 0.  1.
         11    1    3    3    0    0  0.45809710616E+02  0.16454456866E+02 -0.68098224376E+02  0.83705716057E+02  0.00000000000E+00 0. -1.
</event>
<event>
 7    1  0.4687179E-006  0.1189306E+03  0.7561462E-02  0.1244872E+00
          2   -1    0    0  501    0  0.00000000000E+00  0.00000000000E+00  0.10298615150E+03  0.10298615150E+03  0.00000000000E+00 0. -1.
         -2   -1    0    0    0  501 -0.00000000000E+00 -0.00000000000E+00 -0.20163561033E+03  0.20163561033E+03  0.00000000000E+00 0.  1.
         23    2    1    2    0    0  0.77414977221E+02 -0.87753838958E+01  0.15297844310E+02  0.11833961306E+03  0.87750520897E+02 0.  0.
          5    1    1    2  502    0 -0.98308176244E+02  0.18668359500E+01 -0.35374899219E+02  0.10457934063E+03  0.41800000000E+01 0.  1.
         -5    1    1    2    0  502  0.20893199023E+02  0.69085479458E+01 -0.78572403924E+02  0.81702808143E+02  0.41800000000E+01 0.  1.
        -11    1    3    3    0    0  0.87106357131E+02 -0.31273674390E+02  0.15515218766E+02  0.93841793332E+02  0.00000000000E+00 0.  1.
         11    1    3    3    0    0 -0.96913799097E+01  0.22498290494E+02 -0.21737445609E+00  0.24497819727E+02  0.00000000000E+00 0. -1.
</event>
<event>
 7    1  0.4687179E-006  0.7018214E+02  0.7561462E-02  0.1359475E+00
          1   -1    0    0  501    0  0.00000000000E+00  0.00000000000E+00  0.28632484681E+03  0.28632484681E+03  0.00000000000E+00 0. -1.
         -1   -1    0    0    0  501 -0.00000000000E+00 -0.00000000000E+00 -0.20642954243E+03  0.20642954243E+03  0.00000000000E+00 0.  1.
         23    2    1    2    0    0  0.94326741983E+01  0.27019880719E+02  0.25717980175E+03  0.27455742673E+03  0.91767537000E+02 0.  0.
          5    1    1    2  502    0  0.17130618447E+02 -0.22463553600E+02  0.89877701145E+01  0.29938632907E+02  0.41800000000E+01 0. -1.
         -5    1    1    2    0  502 -0.26563292645E+02 -0.45563271187E+01 -0.18627226749E+03  0.18825832961E+03  0.41800000000E+01 0.  1.
        -11    1    3    3    0    0  0.36189091881E+02  0.40716653160E+02  0.94098366187E+02  0.10872901515E+03  0.00000000000E+00 0.  1.
         11    1    3    3    0    0 -0.26756417682E+02 -0.13696772442E+02  0.16308143556E+03  0.16582841158E+03  0.00000000000E+00 0. -1.
</event>
<event>
 7    1  0.4687179E-006  0.1438192E+03  0.7561462E-02  0.1208280E+00
         -2   -1    0    0    0  501 -0.00000000000E+00  0.00000000000E+00  0.56367200024E+02  0.56367200024E+02  0.00000000000E+00 0.  1.
          2   -1    0    0  501    0  0.00000000000E+00 -0.00000000000E+00 -0.43641745165E+03  0.43641745165E+03  0.00000000000E+00 0. -1.
         23    2    1    2    0    0 -0.58991217518E+02  0.79139407281E+02 -0.26209928766E+03  0.29453856251E+03  0.91180692484E+02 0.  0.
          5    1    1    2  502    0 -0.23777027188E+02 -0.68397452903E+02 -0.35136100767E+02  0.80595139821E+02  0.41800000000E+01 0. -1.
         -5    1    1    2    0  502  0.82768244706E+02 -0.10741954378E+02 -0.82814863197E+02  0.11765094935E+03  0.41800000000E+01 0. -1.
        -11    1    3    3    0    0 -0.81144659072E+02  0.51464153639E+02 -0.21580380999E+03  0.23622933605E+03  0.00000000000E+00 0. -1.
         11    1    3    3    0    0  0.22153441554E+02  0.27675253642E+02 -0.46295477672E+02  0.58309226454E+02  0.00000000000E+00 0.  1.
</event>
<event>
 7    1  0.4687179E-006  0.1473092E+03  0.7561462E-02  0.1203819E+00
         -1   -1    0    0    0  501 -0.00000000000E+00  0.00000000000E+00  0.82195006524E+02  0.82195006524E+02  0.00000000000E+00 0.  1.
          1   -1    0    0  501    0  0.00000000000E+00 -0.00000000000E+00 -0.40340982185E+03  0.40340982185E+03  0.00000000000E+00 0. -1.
         23    2    1    2    0    0 -0.95583640978E+02 -0.10981593247E+03 -0.14863612759E+03  0.22749326600E+03  0.92003892323E+02 0.  0.
          5    1    1    2  502    0  0.85929008467E+02  0.10109968121E+03 -0.61688058966E+02  0.14638247523E+03  0.41800000000E+01 0. -1.
         -5    1    1    2    0  502  0.96546325106E+01  0.87162512600E+01 -0.11089062877E+03  0.11172908714E+03  0.41800000000E+01 0. -1.
        -11    1    3    3    0    0 -0.64195373695E+02 -0.52791134584E+02 -0.23390739263E+02  0.86342785326E+02  0.00000000000E+00 0.  1.
         11    1    3    3    0    0 -0.31388267283E+02 -0.57024797883E+02 -0.12524538833E+03  0.14115048067E+03  0.00000000000E+00 0. -1.
</event>
<event>
 7    1  0.4687179E-006  0.2046696E+03  0.7561462E-02  0.1145858E+00
          3   -1    0    0  501    0  0.00000000000E+00  0.00000000000E+00  0.47691373831E+03  0.47691373831E+03  0.00000000000E+00 0. -1.
         -3   -1    0    0    0  501 -0.00000000000E+00 -0.00000000000E+00 -0.98889358774E+02  0.98889358774E+02  0.00000000000E+00 0.  1.
         23    2    1    2    0    0  0.14769248117E+03 -0.12093292899E+03  0.19066885018E+03  0.28052799023E+03  0.76834240851E+02 0.  0.
          5    1    1    2  502    0 -0.67623507673E+02 -0.50032883370E+01  0.19599627216E+02  0.70707775182E+02  0.41800000000E+01 0.  1.
         -5    1    1    2    0  502 -0.80068973497E+02  0.12593621733E+03  0.16775590214E+03  0.22456733167E+03  0.41800000000E+01 0.  1.
        -11    1    3    3    0    0  0.12316753013E+03 -0.89554739106E+02  0.10189176473E+03  0.18322724550E+03  0.00000000000E+00 0.  1.
         11    1    3    3    0    0  0.24524951037E+02 -0.31378189882E+02  0.88777085450E+02  0.97300744728E+02  0.00000000000E+00 0. -1.
</event>
<event>
 7    1  0.4687179E-006  0.1301358E+03  0.7561462E-02  0.1227254E+00
          2   -1    0    0  501    0  0.00000000000E+00  0.00000000000E+00  0.21613577678E+03  0.21613577678E+03  0.00000000000E+00 0. -1.
         -2   -1    0    0    0  501 -0.00000000000E+00 -0.00000000000E+00 -0.14969546017E+03  0.14969546017E+03  0.00000000000E+00 0.  1.
         23    2    1    2    0    0 -0.50241662715E+02  0.31614159505E+02  0.15659924961E+03  0.20060819693E+03  0.11043841698E+03 0.  0.
          5    1    1    2  502    0 -0.24498981611E+02 -0.54713946136E+02 -0.37702224658E+02  0.70941850455E+02  0.41800000000E+01 0.  1.
         -5    1    1    2    0  502  0.74740644326E+02  0.23099786631E+02 -0.52456708333E+02  0.94281189565E+02  0.41800000000E+01 0.  1.
        -11    1    3    3    0    0 -0.39405706124E+02 -0.35991561164E+02  0.45630453176E+02  0.70216382755E+02  0.00000000000E+00 0.  1.
         11    1    3    3    0    0 -0.10835956591E+02  0.67605720669E+02  0.11096879643E+03  0.13039181417E+03  0.00000000000E+00 0. -1.
</event>
<event>
 7    1  0.4687179E-006  0.9869035E+02  0.7561462E-02  0.1283074E+00
          1   -1    0    0  501    0  0.00000000000E+00  0.00000000000E+00  0.49640202452E+03  0.49640202452E+03  0.00000000000E+00 0. -1.
         -1   -1    0    0    0  501 -0.00000000000E+00 -0.00000000000E+00 -0.12646443599E+03  0.12646443599E+03  0.00000000000E+00 0.  1.
         23    2    1    2    0    0  0.24504894705E+02  0.64690299105E+02  0.45168885612E+03  0.46542049161E+03  0.88363378200E+02 0.  0.
          5    1    1    2  502    0  0.11891613057E+02  0.25370490774E+01  0.23800157596E+02  0.27051191854E+02  0.41800000000E+01 0. -1.
         -5    1    1    2    0  502 -0.36396507762E+02 -0.67227348182E+02 -0.10555142519E+03  0.13039477705E+03  0.41800000000E+01 0.  1.
        -11    1    3    3    0    0 -0.30957710721E+02  0.22259335107E+02  0.10354885583E+03  0.11034592606E+03  0.00000000000E+00 0.  1.
         11    1    3    3    0    0  0.55462605426E+02  0.42430963998E+02  0.34814000028E+03  0.35507456556E+03  0.00000000000E+00 0. -1.
</event>
<event>
 7    1  0.4687179E-006  0.2517644E+03  0.7561462E-02  0.1112195E+00
         -1   -1    0    0    0  501 -0.00000000000E+00  0.00000000000E+00  0.20336743445E+03  0.20336743445E+03  0.00000000000E+00 0.  1.
          1   -1    0    0  501    0  0.00000000000E+00 -0.00000000000E+00 -0.43850702675E+03  0.43850702675E+03  0.00000000000E+00 0. -1.
         23    2    1    2    0    0 -0.24930858223E+02 -0.41822025529E+02 -0.10664790355E+03  0.14877940700E+03  0.91601894652E+02 0.  0.
          5    1    1    2  502    0  0.21991174006E+02  0.23578641266E+03 -0.17388579870E+03  0.29382407580E+03  0.41800000000E+01 0. -1.
         -5    1    1    2    0  502  0.29396842174E+01 -0.19396438713E+03  0.45394109953E+02  0.19927097841E+03  0.41800000000E+01 0.  1.
        -11    1    3    3    0    0 -0.17218812965E+02 -0.54862010508E+02 -0.20095399583E+02  0.60911023644E+02  0.00000000000E+00 0. -1.
         11    1    3    3    0    0 -0.77120452574E+01  0.13039984980E+02 -0.86552503964E+02  0.87868383352E+02  0.00000000000E+00 0.  1.
</event>
<event>
 7    1  0.4687179E-006  0.1116265E+03  0.7561462E-02  0.1257587E+00
          2   -1    0    0  501    0  0.00000000000E+00  0.00000000000E+00  0.68698831182E+03  0.68698831182E+03  0.00000000000E+00 0. -1.
         -2   -1    0    0    0  501 -0.00000000000E+00 -0.00000000000E+00 -0.19067120248E+02  0.19067120248E+02  0.00000000000E+00 0.  1.
         23    2    1    2    0    0  0.88565259966E+01  0.11875129474E+02  0.31864000435E+03  0.33475572044E+03  0.10154054973E+03 0.  0.
          5    1    1    2  502    0  0.25272538737E+02 -0.57837402577E+02  0.12916780555E+03  0.14382510469E+03  0.41800000000E+01 0. -1.
         -5    1    1    2    0  502 -0.34129064733E+02  0.45962273103E+02  0.22011338168E+03  0.22747460694E+03  0.41800000000E+01 0. -1.
        -11    1    3    3    0    0  0.54483042158E+02  0.16000124701E+02  0.17314492988E+03  0.18221847496E+03  0.00000000000E+00 0.  1.
         11    1    3    3    0    0 -0.45626516162E+02 -0.41249952276E+01  0.14549507447E+03  0.15253724547E+03  0.00000000000E+00 0. -1.
</event>
<event>
 7    1  0.4687179E-006  0.1028993E+03  0.7561462E-02  0.1274315E+00
          1   -1    0    0  501    0  0.00000000000E+00  0.00000000000E+00  0.66256659184E+02  0.66256659184E+02  0.00000000000E+00 0. -1.
         -1   -1    0    0    0  501 -0.00000000000E+00 -0.00000000000E+00 -0.23511961178E+03  0.23511961178E+03  0.00000000000E+00 0.  1.
         23    2    1    2    0    0 -0.32932830304E+02 -0.17081122311E+02 -0.16373003919E+02  0.10068215103E+03  0.92154675559E+02 0.  0.
          5    1    1    2  502    0 -0.32165095391E+02 -0.15922235170E+02 -0.55281319763E+01  0.36553297764E+02  0.41800000000E+01 0.  1.
         -5    1    1    2    0  502  0.65097925694E+02  0.33003357481E+02 -0.14696181670E+03  0.16414082217E+03  0.41800000000E+01 0.  1.
        -11    1    3    3    0    0 -0.45000807142E+02 -0.46532009475E+02  0.33987202468E+00  0.64733423069E+02  0.00000000000E+00 0. -1.
         11    1    3    3    0    0  0.12067976838E+02  0.29450887163E+02 -0.16712875944E+02  0.35948727961E+02  0.00000000000E+00 0.  1.
</event>
<event>
 7    1  0.4687179E-006  0.1153833E+03  0.7561462E-02  0.1250914E+00
          3   -1    0    0  501    0  0.00000000000E+00  0.00000000000E+00  0.18693117819E+03  0.18693117819E+03  0.00000000000E+00 0. -1.
         -3   -1    0    0    0  501 -0.00000000000E+00 -0.00000000000E+00 -0.78087424137E+02  0.78087424137E+02  0.00000000000E+00 0.  1.
         23    2    1    2    0    0  0.51795354916E+02 -0.37032929281E+02  0.68439608569E+02  0.13085710558E+03  0.91571859305E+02 0.  0.
          5    1    1    2  502    0  0.22348123533E+02  0.39411344817E+02  0.38877250309E+02  0.59846518005E+02  0.41800000000E+01 0. -1.
         -5    1    1    2    0  502 -0.74143478448E+02 -0.23784155360E+01  0.15268951729E+01  0.74314978744E+02  0.41800000000E+01 0.  1.
        -11    1    3    3    0    0  0.98031479196E+01  0.30170956046E+02  0.25662663065E+02  0.40803928407E+02  0.00000000000E+00 0.  1.
         11    1    3    3    0    0  0.41992206996E+02 -0.67203885327E+02  0.42776945503E+02  0.90053177168E+02  0.00000000000E+00 0. -1.
</event>
<event>
 7    1  0.4687179E-006  0.9472154E+02  0.7561462E-02  0.1291804E+00
          1   -1    0    0  501    0  0.00000000000E+00  0.00000000000E+00  0.77713912511E+02  0.77713912511E+02  0.00000000000E+00 0. -1.
         -1   -1    0    0    0  501 -0.00000000000E+00 -0.00000000000E+00 -0.21579019158E+03  0.21579019158E+03  0.00000000000E+00 0.  1.
         23    2    1    2    0    0 -0.24463392813E+02 -0.43009932614E+02 -0.72637034393E+01  0.10582879345E+03  0.93266608411E+02 0.  0.
          5    1    1    2  502    0 -0.13142714012E+02  0.78749004773E+02 -0.96590187879E+02  0.12538450255E+03  0.41800000000E+01 0.  1.
         -5    1    1    2    0  502  0.37606106825E+02 -0.35739072159E+02 -0.34222387746E+02  0.62290808088E+02  0.41800000000E+01 0.  1.
        -11    1    3    3    0    0 -0.29477810385E+02 -0.24683204580E+02  0.39640118908E+02  0.55222648619E+02  0.00000000000E+00 0. -1.
         11    1    3    3    0    0  0.50144175726E+01 -0.18326728034E+02 -0.46903822348E+02  0.50606144833E+02  0.00000000000E+00 0.  1.
</event>
<event>
 7    1  0.4687179E-006  0.1348397E+03  0.7561462E-02  0.1220446E+00
         -2   -1    0    0    0  501 -0.00000000000E+00  0.00000000000E+00  0.26511039942E+02  0.26511039942E+02  0.00000000000E+00 0.  1.
          2   -1    0    0  501    0  0.00000000000E+00 -0.00000000000E+00 -0.78550214184E+03  0.78550214184E+03  0.00000000000E+00 0. -1.
         23    2    1    2    0    0 -0.16848550554E+02 -0.90728992479E+02 -0.27739741129E+03  0.30595445636E+03  0.90239580248E+02 0.  0.
          5    1    1    2  502    0 -0.43378829317E+02  0.58579387239E+02 -0.35231503065E+03  0.35980080692E+03  0.41800000000E+01 0. -1.
         -5    1    1    2    0  502  0.60227379871E+02  0.32149605239E+02 -0.12927865996E+03  0.14625791850E+03  0.41800000000E+01 0. -1.
        -11    1    3    3    0    0  0.30591173004E+02 -0.70203384211E+02 -0.18196917617E+03  0.19742622950E+03  0.00000000000E+00 0. -1.
         11    1    3    3    0    0 -0.47439723558E+02 -0.20525608268E+02 -0.95428235122E+02  0.10852822686E+03  0.00000000000E+00 0.  1.
</event>
<event>
 7    1  0.4687179E-006  0.8084772E+02  0.7561462E-02  0.1326663E+00
         -3   -1    0    0    0  501 -0.00000000000E+00  0.00000000000E+00  0.12653174045E+03  0.12653174045E+03  0.00000000000E+00 0.  1.
          3   -1    0    0  501    0  0.00000000000E+00 -0.00000000000E+00 -0.11012478604E+03  0.11012478604E+03  0.00000000000E+00 0. -1.
         23    2    1    2    0    0 -0.38458582558E+02 -0.18147341624E+02  0.88101402816E+01  0.10431845638E+03  0.94849002043E+02 0.  0.
          5    1    1    2  502    0  0.71223063021E+02  0.16598603484E+02  0.42149974123E+02  0.84512313081E+02  0.41800000000E+01 0.  1.
         -5    1    1    2    0  502 -0.32764480464E+02  0.15487381402E+01 -0.34553159997E+02  0.47825757031E+02  0.41800000000E+01 0.  1.
        -11    1    3    3    0    0 -0.30717808738E+02  0.48632477297E+01  0.48604537980E+02  0.57702998747E+02  0.00000000000E+00 0.  1.
         11    1    3    3    0    0 -0.77407738196E+01 -0.23010589354E+02 -0.39794397699E+02  0.46615457629E+02  0.00000000000E+00 0. -1.
</event>
<event>
 7    1  0.4687179E-006  0.9836821E+02  0.7561462E-02  0.1283765E+00
         -3   -1    0    0    0  501 -0.00000000000E+00  0.00000000000E+00  0.30014136306E+02  0.30014136306E+02  0.00000000000E+00 0.  1.
          3   -1    0    0  501    0  0.00000000000E+00 -0.00000000000E+00 -0.49952723607E+03  0.49952723607E+03  0.00000000000E+00 0. -1.
         23    2    1    2    0    0  0.43641416022E+02 -0.28941658593E+02 -0.25806475677E+03  0.27834331180E+03  0.90196384310E+02 0.  0.
          5    1    1    2  502    0 -0.71102703651E+01 -0.37247983712E+02 -0.15588777289E+02  0.41212262891E+02  0.41800000000E+01 0.  1.
         -5    1    1    2    0  502 -0.36531145657E+02  0.66189642305E+02 -0.19585956570E+03  0.20998579768E+03  0.41800000000E+01 0.  1.
        -11    1    3    3    0    0  0.14152354935E+02  0.20731905147E+02 -0.16670353340E+02  0.30133066915E+02  0.00000000000E+00 0.  1.
         11    1    3    3    0    0  0.29489061088E+02 -0.49673563740E+02 -0.24139440343E+03  0.24821024489E+03  0.00000000000E+00 0. -1.
</event>
<event>
 7    1  0.4687179E-006  0.1104427E+03  0.7561462E-02  0.1259752E+00
         -1   -1    0    0    0  501 -0.00000000000E+00  0.00000000000E+00  0.26864656413E+03  0.26864656413E+03  0.00000000000E+00 0.  1.
          1   -1    0    0  501    0  0.00000000000E+00 -0.00000000000E+00 -0.60195906200E+02  0.60195906200E+02  0.00000000000E+00 0. -1.
         23    2    1    2    0    0 -0.64772191355E+02 -0.17503662424E+02  0.10040083092E+03  0.15045184739E+03  0.89741944276E+02 0.  0.
          5    1    1    2  502    0  0.31156329682E+02 -0.35238218725E+02  0.10557929642E+03  0.11565858883E+03  0.41800000000E+01 0.  1.
         -5    1    1    2    0  502  0.33615861673E+02  0.52741881149E+02  0.24705305999E+01  0.62732034118E+02  0.41800000000E+01 0.  1.
        -11    1    3    3    0    0  0.18186710428E+02 -0.21208477498E+02  0.34784052312E+02  0.44614865787E+02  0.00000000000E+00 0.  1.
         11    1    3    3    0    0 -0.82958901783E+02  0.37048150739E+01  0.65616778607E+02  0.10583698160E+03  0.00000000000E+00 0. -1.
</event>
<event>
 7    1  0.4687179E-006  0.1126332E+03  0.7561462E-02  0.1255770E+00
          3   -1    0    0  501    0  0.00000000000E+00  0.00000000000E+00  0.15650426427E+03  0.15650426427E+03  0.00000000000E+00 0. -1.
         -3   -1    0    0    0  501 -0.00000000000E+00 -0.00000000000E+00 -0.11419256462E+03  0.11419256462E+03  0.00000000000E+00 0.  1.
         23    2    1    2    0    0  0.88609581925E+01  0.68105240222E+02  0.55604669791E+02  0.12737341720E+03  0.91734768655E+02 0.  0.
          5    1    1    2  502    0 -0.53053440118E+02 -0.43140370318E+02  0.31590099687E+02  0.75439816131E+02  0.41800000000E+01 0.  1.
         -5    1    1    2    0  502  0.44192481926E+02 -0.24964869904E+02 -0.44883069832E+02  0.67883595556E+02  0.41800000000E+01 0.  1.
        -11    1    3    3    0    0 -0.20986283948E+02 -0.92370461823E+01  0.35180268869E+02  0.41992838126E+02  0.00000000000E+00 0. -1.
         11    1    3    3    0    0  0.29847242140E+02  0.77342286405E+02  0.20424400921E+02  0.85380579072E+02  0.00000000000E+00 0.  1.
</event>
<event>
 7    1  0.4687179E-006  0.1445351E+03  0.7561462E-02  0.1207354E+00
          1   -1    0    0  501    0  0.00000000000E+00  0.00000000000E+00  0.60442122576E+03  0.60442122576E+03  0.00000000000E+00 0. -1.
         -1   -1    0    0    0  501 -0.00000000000E+00 -0.00000000000E+00 -0.49790681940E+02  0.49790681940E+02  0.00000000000E+00 0.  1.
         23    2    1    2    0    0  0.12504074361E+03 -0.32994525419E+02  0.34928476753E+03  0.38120427735E+03  0.81197450523E+02 0.  0.
          5    1    1    2  502    0 -0.17851958994E+02 -0.25895352523E+02  0.11921027700E+03  0.12336054582E+03  0.41800000000E+01 0. -1.
         -5    1    1    2    0  502 -0.10718878461E+03  0.58889877942E+02  0.86135499283E+02  0.14964708453E+03  0.41800000000E+01 0. -1.
        -11    1    3    3    0    0  0.96833599980E+02 -0.77980192986E+01  0.31675493391E+03  0.33131743593E+03  0.00000000000E+00 0. -1.
         11    1    3    3    0    0  0.28207143625E+02 -0.25196506121E+02  0.32529833622E+02  0.49886841428E+02  0.00000000000E+00 0.  1.
</event>
<event>
 7    1  0.4687179E-006  0.1367483E+03  0.7561462E-02  0.1217773E+00
          1   -1    0    0  501    0  0.00000000000E+00  0.00000000000E+00  0.34248157707E+03  0.34248157707E+03  0.00000000000E+00 0. -1.
         -1   -1    0    0    0  501 -0.00000000000E+00 -0.00000000000E+00 -0.89541423553E+02  0.89541423553E+02  0.00000000000E+00 0.  1.
         23    2    1    2    0    0  0.98994487710E+02 -0.11262328674E+02  0.23463716607E+03  0.27105324855E+03  0.92133138468E+02 0.  0.
          5    1    1    2  502    0 -0.10845385238E+03  0.46234618446E+02  0.31635253076E+02  0.12213983657E+03  0.41800000000E+01 0. -1.
         -5    1    1    2    0  502  0.94593646717E+01 -0.34972289772E+02 -0.13332265625E+02  0.38829915511E+02  0.41800000000E+01 0. -1.
        -11    1    3    3    0    0  0.90113815226E+02  0.14980630190E+02  0.10814980204E+03  0.14156729374E+03  0.00000000000E+00 0.  1.
         11    1    3    3    0    0  0.88806724833E+01 -0.26242958864E+02  0.12648736403E+03  0.12948595481E+03  0.00000000000E+00 0. -1.
</event>
<event>
 7    1  0.4687179E-006  0.1390641E+03  0.7561462E-02  0.1214594E+00
          2   -1    0    0  501    0  0.00000000000E+00  0.00000000000E+00  0.40737049123E+03  0.40737049123E+03  0.00000000000E+00 0. -1.
         -2   -1    0    0    0  501 -0.00000000000E+00 -0.00000000000E+00 -0.56247775884E+02  0.56247775884E+02  0.00000000000E+00 0.  1.
         23    2    1    2    0    0  0.38978707742E+02  0.95250822329E+02  0.20156694163E+03  0.24314411111E+03  0.88869387311E+02 0.  0.
          5    1    1    2  502    0  0.25678765799E+02 -0.77146183574E+02  0.12435278879E+03  0.14863384922E+03  0.41800000000E+01 0. -1.
         -5    1    1    2    0  502 -0.64657473541E+02 -0.18104638754E+02  0.25202984927E+02  0.71840306781E+02  0.41800000000E+01 0. -1.
        -11    1    3    3    0    0 -0.14271839497E+02  0.68264925019E+02  0.70725896485E+02  0.99327427350E+02  0.00000000000E+00 0.  1.
         11    1    3    3    0    0  0.53250547239E+02  0.26985897310E+02  0.13084104514E+03  0.14381668376E+03  0.00000000000E+00 0. -1.
</event>
<event>
 7    1  0.4687179E-006  0.1483797E+03  0.7561462E-02  0.1202478E+00
          1   -1    0    0  501    0  0.00000000000E+00  0.00000000000E+00  0.87295753865E+03  0.87295753865E+03  0.00000000000E+00 0. -1.
         -1   -1    0    0    0  501 -0.00000000000E+00 -0.00000000000E+00 -0.29862537626E+02  0.29862537626E+02  0.00000000000E+00 0.  1.
         23    2    1    2    0    0 -0.11832638745E+03  0.22816404664E+01  0.35168565238E+03  0.38211289214E+03  0.91220197345E+02 0.  0.
          5    1    1    2  502    0  0.97805336476E+02  0.39009675398E+02  0.43573700433E+03  0.44829883778E+03  0.41800000000E+01 0.  1.
         -5    1    1    2    0  502  0.20521050976E+02 -0.41291315864E+02  0.55672344320E+02  0.72408346349E+02  0.41800000000E+01 0.  1.
        -11    1    3    3    0    0 -0.11459915715E+01  0.25580207720E+02  0.10417118066E+03  0.10727206161E+03  0.00000000000E+00 0.  1.
         11    1    3    3    0    0 -0.11718039588E+03 -0.23298567254E+02  0.24751447172E+03  0.27484083053E+03  0.00000000000E+00 0. -1.
</event>
<event>
 7    1  0.4687179E-006  0.1096542E+03  0.7561462E-02  0.1261212E+00
          1   -1    0    0  501    0  0.00000000000E+00  0.00000000000E+00  0.26863569172E+03  0.26863569172E+03  0.00000000000E+00 0. -1.
         -1   -1    0    0    0  501 -0.00000000000E+00 -0.00000000000E+00 -0.55136820435E+02  0.55136820435E+02  0.00000000000E+00 0.  1.
         23    2    1    2    0    0 -0.48570476197E+02 -0.99341258201E+01  0.12499713791E+03  0.16272533565E+03  0.91637723476E+02 0.  0.
          5    1    1    2  502    0  0.74163014535E+02  0.35068876414E+02  0.93647661099E+02  0.12456859816E+03  0.41800000000E+01 0.  1.
         -5    1    1    2    0  502 -0.25592538338E+02 -0.25134750594E+02 -0.51459277220E+01  0.36478578346E+02  0.41800000000E+01 0.  1.
        -11    1    3    3    0    0 -0.74085898854E+02 -0.13444681965E+02  0.10875218622E+03  0.13227440376E+03  0.00000000000E+00 0.  1.
         11    1    3    3    0    0  0.25515422657E+02  0.35105561444E+01  0.16244951690E+02  0.30450931895E+02  0.00000000000E+00 0. -1.
</event>
<event>
 7    1  0.4687179E-006  0.1328163E+03  0.7561462E-02  0.1223336E+00
          3   -1    0    0  501    0  0.00000000000E+00  0.00000000000E+00  0.64618357582E+03  0.64618357582E+03  0.00000000000E+00 0. -1.
         -3   -1    0    0    0  501 -0.00000000000E+00 -0.00000000000E+00 -0.40017657025E+02  0.40017657025E+02  0.00000000000E+00 0.  1.
         23    2    1    2    0    0  0.74676128515E+02  0.90072899170E+02  0.31865486808E+03  0.35154023762E+03  0.91378128575E+02 0.  0.
          5    1    1    2  502    0 -0.46649655691E+02 -0.57262416421E+02  0.28130062830E+03  0.29086541664E+03  0.41800000000E+01 0. -1.
         -5    1    1    2    0  502 -0.28026472824E+02 -0.32810482749E+02  0.62104224115E+01  0.43795578586E+02  0.41800000000E+01 0. -1.
        -11    1    3    3    0    0  0.21478991342E+02 -0.17884347861E+02  0.53975214682E+02  0.60782569602E+02  0.00000000000E+00 0.  1.
         11    1    3    3    0    0  0.53197137173E+02  0.10795724703E+03  0.26467965340E+03  0.29075766802E+03  0.00000000000E+00 0. -1.
</event>
<event>
 7    1  0.4687179E-006  0.3141661E+03  0.7561462E-02  0.1078366E+00
          2   -1    0    0  501    0  0.00000000000E+00  0.00000000000E+00  0.76130796710E+03  0.76130796710E+03  0.00000000000E+00 0.  1.
         -2   -1    0    0    0  501 -0.00000000000E+00 -0.00000000000E+00 -0.15612371211E+03  0.15612371211E+03  0.00000000000E+00 0. -1.
         23    2    1    2    0    0 -0.13192272167E+03  0.27010132810E+03  0.46882681371E+03  0.56444618001E+03  0.91883496537E+02 0.  0.
          5    1    1    2  502    0 -0.23714465680E+02 -0.45351101031E+02  0.30990299643E+02  0.59974739009E+02  0.41800000000E+01 0. -1.
         -5    1    1    2    0  502  0.15563718735E+03 -0.22475022707E+03  0.10536714164E+03  0.29301076020E+03  0.41800000000E+01 0. -1.
        -11    1    3    3    0    0 -0.13017251394E+03  0.23674518216E+03  0.45308231316E+03  0.52751942823E+03  0.00000000000E+00 0.  1.
         11    1    3    3    0    0 -0.17502077292E+01  0.33356145941E+02  0.15744500548E+02  0.36926751775E+02  0.00000000000E+00 0. -1.
</event>
<event>
 7    1  0.4687179E-006  0.1150881E+03  0.7561462E-02  0.1251427E+00
         -1   -1    0    0    0  501 -0.00000000000E+00  0.00000000000E+00  0.15252325583E+03  0.15252325583E+03  0.00000000000E+00 0.  1.
          1   -1    0    0  501    0  0.00000000000E+00 -0.00000000000E+00 -0.10070533025E+03  0.10070533025E+03  0.00000000000E+00 0. -1.
         23    2    1    2    0    0  0.26059855509E+02 -0.50584228017E+02 -0.10134733357E+01  0.10599400374E+03  0.89419357565E+02 0.  0.
          5    1    1    2  502    0  0.40518857365E+02 -0.35668948255E+00 -0.10523390199E+02  0.42072784206E+02  0.41800000000E+01 0. -1.
         -5    1    1    2    0  502 -0.66578712874E+02  0.50940917499E+02  0.63354789107E+02  0.10516179813E+03  0.41800000000E+01 0. -1.
        -11    1    3    3    0    0  0.18821605536E+02  0.24039604393E+02  0.42969687970E+01  0.30832115645E+02  0.00000000000E+00 0.  1.
         11    1    3    3    0    0  0.72382499729E+01 -0.74623832410E+02 -0.53104421327E+01  0.75161888094E+02  0.00000000000E+00 0. -1.
</event>
<event>
 7    1  0.4687179E-006  0.1415155E+03  0.7561462E-02  0.1211304E+00
          1   -1    0    0  501    0  0.00000000000E+00  0.00000000000E+00  0.21962884432E+03  0.21962884432E+03  0.00000000000E+00 0. -1.
         -1   -1    0    0    0  501 -0.00000000000E+00 -0.00000000000E+00 -0.95006173399E+02  0.95006173399E+02  0.00000000000E+00 0.  1.
         23    2    1    2    0    0 -0.49374121941E+02 -0.63388628618E+02  0.68743519716E+02  0.15580893107E+03  0.11443264108E+03 0.  0.
          5    1    1    2  502    0  0.90820149474E+02  0.53596822502E+02  0.44580430555E+02  0.11456791052E+03  0.41800000000E+01 0.  1.
         -5    1    1    2    0  502 -0.41446027533E+02  0.97918061164E+01  0.11298720649E+02  0.44258176122E+02  0.41800000000E+01 0.  1.
        -11    1    3    3    0    0 -0.12745521890E+01  0.29801911471E+02  0.34231504469E+02  0.45404562643E+02  0.00000000000E+00 0. -1.
         11    1    3    3    0    0 -0.48099569752E+02 -0.93190540089E+02  0.34512015247E+02  0.11040436843E+03  0.00000000000E+00 0.  1.
</event>
<event>
 7    1  0.4687179E-006  0.1014267E+03  0.7561462E-02  0.1277324E+00
          3   -1    0    0  501    0  0.00000000000E+00  0.00000000000E+00  0.89442426262E+02  0.89442426262E+02  0.00000000000E+00 0. -1.
         -3   -1    0    0    0  501 -0.00000000000E+00 -0.00000000000E+00 -0.16204943531E+03  0.16204943531E+03  0.00000000000E+00 0.  1.
         23    2    1    2    0    0  0.14361091656E+02  0.38461710234E+02  0.15405164522E+00  0.10107311663E+03  0.92359120104E+02 0.  0.
          5    1    1    2  502    0  0.29787051029E+02 -0.47841183531E+02  0.87188801821E+01  0.57179878649E+02  0.41800000000E+01 0.  1.
         -5    1    1    2    0  502 -0.44148142685E+02  0.93794732978E+01 -0.81479940879E+02  0.93238866293E+02  0.41800000000E+01 0.  1.
        -11    1    3    3    0    0 -0.35160016422E+02  0.37612322105E+02 -0.16268267614E+01  0.51512717792E+02  0.00000000000E+00 0. -1.
         11    1    3    3    0    0  0.49521108078E+02  0.84938812814E+00  0.17808784067E+01  0.49560398842E+02  0.00000000000E+00 0.  1.
</event>
<event>
 7    1  0.4687179E-006  0.1428090E+03  0.7561462E-02  0.1209599E+00
          1   -1    0    0  501    0  0.00000000000E+00  0.00000000000E+00  0.46396578296E+03  0.46396578296E+03  0.00000000000E+00 0. -1.
         -1   -1    0    0    0  501 -0.00000000000E+00 -0.00000000000E+00 -0.59482641370E+02  0.59482641370E+02  0.00000000000E+00 0.  1.
         23    2    1    2    0    0  0.87349464212E+02 -0.40031625088E+02  0.31503079036E+03  0.34211529192E+03  0.92552764330E+02 0.  0.
          5    1    1    2  502    0 -0.20337775483E+02  0.75482721909E+02  0.26331890074E+02  0.82596048654E+02  0.41800000000E+01 0. -1.
         -5    1    1    2    0  502 -0.67011688728E+02 -0.35451096820E+02  0.63120461153E+02  0.98737083753E+02  0.41800000000E+01 0. -1.
        -11    1    3    3    0    0  0.88194936604E+02  0.31154040028E+01  0.23776764508E+03  0.25361684808E+03  0.00000000000E+00 0. -1.
         11    1    3    3    0    0 -0.84547239271E+00 -0.43147029091E+02  0.77263145286E+02  0.88498443842E+02  0.00000000000E+00 0.  1.
</event>
<event>
 7    1  0.4687179E-006  0.1108308E+03  0.7561462E-02  0.1259039E+00
          2   -1    0    0  501    0  0.00000000000E+00  0.00000000000E+00  0.56835479371E+03  0.56835479371E+03  0.00000000000E+00 0. -1.
         -2   -1    0    0    0  501 -0.00000000000E+00 -0.00000000000E+00 -0.33777272602E+02  0.33777272602E+02  0.00000000000E+00 0.  1.
         23    2    1    2    0    0 -0.25590073615E+02  0.39607494828E+02  0.40657900807E+03  0.41968989963E+03  0.92787480483E+02 0.  0.
          5    1    1    2  502    0 -0.38708498040E+02 -0.45228027414E+02  0.88223232469E+02  0.10651165867E+03  0.41800000000E+01 0. -1.
         -5    1    1    2    0  502  0.64298571656E+02  0.56205325863E+01  0.39775280570E+02  0.75930508018E+02  0.41800000000E+01 0.  1.
        -11    1    3    3    0    0  0.50110548929E+01  0.60207966630E+02  0.31880467314E+03  0.32447885837E+03  0.00000000000E+00 0.  1.
         11    1    3    3    0    0 -0.30601128508E+02 -0.20600471802E+02  0.87774334935E+02  0.95211041259E+02  0.00000000000E+00 0. -1.
</event>
<event>
 7    1  0.4687179E-006  0.2172451E+03  0.7561462E-02  0.1135954E+00
          2   -1    0    0  501    0  0.00000000000E+00  0.00000000000E+00  0.37796392449E+03  0.37796392449E+03  0.00000000000E+00 0. -1.
         -2   -1    0    0    0  501 -0.00000000000E+00 -0.00000000000E+00 -0.22100554284E+03  0.22100554284E+03  0.00000000000E+00 0.  1.
         23    2    1    2    0    0 -0.20352646826E+03  0.47878311121E+02  0.24967408454E+03  0.33826484720E+03  0.91490996290E+02 0.  0.
          5    1    1    2  502    0  0.51359481053E+02 -0.83895012066E+01  0.30905877804E+02  0.60669808862E+02  0.41800000000E+01 0. -1.
         -5    1    1    2    0  502  0.15216698721E+03 -0.39488809914E+02 -0.12362158070E+03  0.20003481127E+03  0.41800000000E+01 0. -1.
        -11    1    3    3    0    0 -0.44023712157E+02 -0.23919487297E+02  0.81165651512E+02  0.95383919452E+02  0.00000000000E+00 0.  1.
         11    1    3    3    0    0 -0.15950275611E+03  0.71797798418E+02  0.16850843303E+03  0.24288092775E+03  0.00000000000E+00 0. -1.
</event>
<event>
 7    1  0.4687179E-006  0.1063551E+03  0.7561462E-02  0.1267473E+00
          1   -1    0    0  501    0  0.00000000000E+00  0.00000000000E+00  0.29506385464E+02  0.29506385464E+02  0.00000000000E+00 0. -1.
         -1   -1    0    0    0  501 -0.00000000000E+00 -0.00000000000E+00 -0.50393502941E+03  0.50393502941E+03  0.00000000000E+00 0.  1.
         23    2    1    2    0    0 -0.34859780313E+02  0.31695611836E+02 -0.13879990238E+03  0.17217363748E+03  0.90324594929E+02 0.  0.
          5    1    1    2  502    0 -0.35308645933E+02 -0.15314154055E+02 -0.23061665309E+03  0.23384340246E+03  0.41800000000E+01 0.  1.
         -5    1    1    2    0  502  0.70168426246E+02 -0.16381457781E+02 -0.10501208848E+03  0.12742437493E+03  0.41800000000E+01 0.  1.
        -11    1    3    3    0    0 -0.65407788803E+02  0.27626899554E+02 -0.94199667543E+02  0.11796186579E+03  0.00000000000E+00 0.  1.
         11    1    3    3    0    0  0.30548008490E+02  0.40687122826E+01 -0.44600234833E+02  0.54211771687E+02  0.00000000000E+00 0. -1.
</event>
<event>
 7    1  0.4687179E-006  0.2030075E+03  0.7561462E-02  0.1147226E+00
          2   -1    0    0  501    0  0.00000000000E+00  0.00000000000E+00  0.85025043350E+03  0.85025043350E+03  0.00000000000E+00 0. -1.
         -2   -1    0    0    0  501 -0.00000000000E+00 -0.00000000000E+00 -0.55441877924E+02  0.55441877924E+02  0.00000000000E+00 0.  1.
         23    2    1    2    0    0 -0.11221116557E+03  0.14456499598E+03  0.50301475884E+03  0.53925030801E+03  0.65396202745E+02 0.  0.
          5    1    1    2  502    0 -0.17331198804E+02 -0.64903407109E+02  0.66699858143E+02  0.94758462327E+02  0.41800000000E+01 0. -1.
         -5    1    1    2    0  502  0.12954236437E+03 -0.79661588870E+02  0.22509393859E+03  0.27168354109E+03  0.41800000000E+01 0. -1.
        -11    1    3    3    0    0 -0.38965981847E+02  0.79785037565E+02  0.16497001806E+03  0.18734755622E+03  0.00000000000E+00 0.  1.
         11    1    3    3    0    0 -0.73245183720E+02  0.64779958414E+02  0.33804474078E+03  0.35190275179E+03  0.00000000000E+00 0. -1.
</event>
<event>
 7    1  0.4687179E-006  0.9068535E+02  0.7561462E-02  0.1301200E+00
         -2   -1    0    0    0  501 -0.00000000000E+00  0.00000000000E+00  0.97052024414E+02  0.97052024414E+02  0.00000000000E+00 0.  1.
          2   -1    0    0  501    0  0.00000000000E+00 -0.00000000000E+00 -0.16885097601E+03  0.16885097601E+03  0.00000000000E+00 0. -1.
         23    2    1    2    0    0 -0.26571800199E+02 -0.66521662668E+02 -0.29446501163E+02  0.11566646510E+03  0.85909502084E+02 0.  0.
          5    1    1    2  502    0  0.14641575822E+02  0.54498222865E+02 -0.86161732069E+02  0.10308127139E+03  0.41800000000E+01 0. -1.
         -5    1    1    2    0  502  0.11930224377E+02  0.12023439803E+02  0.43809281640E+02  0.47155263929E+02  0.41800000000E+01 0. -1.
        -11    1    3    3    0    0 -0.54261307179E+02 -0.31671616486E+02 -0.98904450954E+00  0.62835968654E+02  0.00000000000E+00 0.  1.
         11    1    3    3    0    0  0.27689506980E+02 -0.34850046182E+02 -0.28457456653E+02  0.52830496447E+02  0.00000000000E+00 0. -1.
</event>
<event>
 7    1  0.4687179E-006  0.1269914E+03  0.7561462E-02  0.1231989E+00
         -1   -1    0    0    0  501 -0.00000000000E+00  0.00000000000E+00  0.55624571091E+02  0.55624571091E+02  0.00000000000E+00 0.  1.
          1   -1    0    0  501    0  0.00000000000E+00 -0.00000000000E+00 -0.43235925908E+03  0.43235925908E+03  0.00000000000E+00 0. -1.
         23    2    1    2    0    0 -0.72391370963E+02  0.59825947278E+02 -0.82384304978E+02  0.15465915872E+03  0.91173609726E+02 0.  0.
          5    1    1    2  502    0  0.26278520614E+02 -0.83178094792E+02 -0.25092006603E+03  0.26568309700E+03  0.41800000000E+01 0. -1.
         -5    1    1    2    0  502  0.46112850349E+02  0.23352147514E+02 -0.43430316983E+02  0.67641574450E+02  0.41800000000E+01 0. -1.
        -11    1    3    3    0    0 -0.52540724738E+02  0.82833996123E+00 -0.14651797058E+01  0.52567676900E+02  0.00000000000E+00 0.  1.
         11    1    3    3    0    0 -0.19850646225E+02  0.58997607316E+02 -0.80919125272E+02  0.10209148182E+03  0.00000000000E+00 0. -1.
</event>
<event>
 7    1  0.4687179E-006  0.2999615E+03  0.7561462E-02  0.1085260E+00
          1   -1    0    0  501    0  0.00000000000E+00  0.00000000000E+00  0.49241327628E+03  0.49241327628E+03  0.00000000000E+00 0. -1.
         -1   -1    0    0    0  501 -0.00000000000E+00 -0.00000000000E+00 -0.22678622802E+03  0.22678622802E+03  0.00000000000E+00 0.  1.
         23    2    1    2    0    0 -0.26859326895E+03  0.10012052486E+03  0.27324089542E+03  0.40635352508E+03  0.91083131225E+02 0.  0.
          5    1    1    2  502    0  0.81273902592E+02 -0.95194700837E+02  0.48152637377E+00  0.12524049895E+03  0.41800000000E+01 0.  1.
         -5    1    1    2    0  502  0.18731936636E+03 -0.49258240254E+01 -0.80953735339E+01  0.18760548027E+03  0.41800000000E+01 0.  1.
        -11    1    3    3    0    0 -0.12323998916E+03  0.55871509364E+02  0.69274224871E+02  0.15201525818E+03  0.00000000000E+00 0.  1.
         11    1    3    3    0    0 -0.14535327978E+03  0.44249015498E+02  0.20396667055E+03  0.25433826690E+03  0.00000000000E+00 0. -1.
</event>
<event>
 7    1  0.4687179E-006  0.2191790E+03  0.7561462E-02  0.1134497E+00
         -2   -1    0    0    0  501 -0.00000000000E+00  0.00000000000E+00  0.85071766559E+02  0.85071766559E+02  0.00000000000E+00 0.  1.
          2   -1    0    0  501    0  0.00000000000E+00 -0.00000000000E+00 -0.73889150517E+03  0.73889150517E+03  0.00000000000E+00 0. -1.
         23    2    1    2    0    0  0.20044534853E+03 -0.79537074697E+02 -0.42142676034E+03  0.48314474036E+03  0.96560042508E+02 0.  0.
          5    1    1    2  502    0 -0.99694849463E+02  0.19549322526E+02 -0.28536932150E+02  0.10560808642E+03  0.41800000000E+01 0.  1.
         -5    1    1    2    0  502 -0.10075049907E+03  0.59987752171E+02 -0.20385604612E+03  0.23521044495E+03  0.41800000000E+01 0.  1.
        -11    1    3    3    0    0  0.18753627397E+03 -0.61894834438E+02 -0.41618636846E+03  0.46066464796E+03  0.00000000000E+00 0.  1.
         11    1    3    3    0    0  0.12909074558E+02 -0.17642240259E+02 -0.52403918756E+01  0.22480092400E+02  0.00000000000E+00 0. -1.
</event>
<event>
 7    1  0.4687179E-006  0.2383528E+03  0.7561462E-02  0.1120895E+00
          1   -1    0    0  501    0  0.00000000000E+00  0.00000000000E+00  0.19954399193E+03  0.19954399193E+03  0.00000000000E+00 0. -1.
         -1   -1    0    0    0  501 -0.00000000000E+00 -0.00000000000E+00 -0.41650555914E+03  0.41650555914E+03  0.00000000000E+00 0.  1.
         23    2    1    2    0    0  0.41255206196E+02  0.22004204261E+03  0.47565849747E+02  0.24761322051E+03  0.94494996463E+02 0.  0.
          5    1    1    2  502    0 -0.25848767097E+01  0.14314337000E+02 -0.35858936769E+01  0.15553548303E+02  0.41800000000E+01 0. -1.
         -5    1    1    2    0  502 -0.38670329486E+02 -0.23435637961E+03 -0.26094152328E+03  0.35288278226E+03  0.41800000000E+01 0. -1.
        -11    1    3    3    0    0  0.24245596390E+02  0.10839722357E+03  0.71597528392E+02  0.13215147784E+03  0.00000000000E+00 0. -1.
         11    1    3    3    0    0  0.17009609806E+02  0.11164481903E+03 -0.24031678645E+02  0.11546174267E+03  0.00000000000E+00 0.  1.
</event>
<event>
 7    1  0.4687179E-006  0.1049566E+03  0.7561462E-02  0.1270205E+00
         -1   -1    0    0    0  501 -0.00000000000E+00  0.00000000000E+00  0.32032498108E+02  0.32032498108E+02  0.00000000000E+00 0.  1.
          1   -1    0    0  501    0  0.00000000000E+00 -0.00000000000E+00 -0.37183496526E+03  0.37183496526E+03  0.00000000000E+00 0. -1.
         23    2    1    2    0    0 -0.10671405303E+02 -0.10343245897E+02 -0.16433991854E+03  0.18786107719E+03  0.89795956876E+02 0.  0.
          5    1    1    2  502    0 -0.56871349809E+02  0.10278951239E+02 -0.72763493719E+02  0.93016158198E+02  0.41800000000E+01 0.  1.
         -5    1    1    2    0  502  0.67542755113E+02  0.64294657681E-01 -0.10269905489E+03  0.12299022797E+03  0.41800000000E+01 0.  1.
        -11    1    3    3    0    0 -0.71130045196E+01 -0.46966322080E+02 -0.55945599745E+02  0.73391691450E+02  0.00000000000E+00 0. -1.
         11    1    3    3    0    0 -0.35584007835E+01  0.36623076183E+02 -0.10839431879E+03  0.11446938574E+03  0.00000000000E+00 0.  1.
</event>
<event>
 7    1  0.4687179E-006  0.1202492E+03  0.7561462E-02  0.1242686E+00
         -2   -1    0    0    0  501 -0.00000000000E+00  0.00000000000E+00  0.40969308061E+03  0.40969308061E+03  0.00000000000E+00 0.  1.
          2   -1    0    0  501    0  0.00000000000E+00 -0.00000000000E+00 -0.53364501915E+02  0.53364501915E+02  0.00000000000E+00 0. -1.
         23    2    1    2    0    0 -0.21300567584E+02  0.88876120199E+02  0.11609288472E+03  0.17720308021E+03  0.97829928105E+02 0.  0.
          5    1    1    2  502    0 -0.46617364538E+02 -0.49938283449E+02  0.67351425436E+02  0.96024464272E+02  0.41800000000E+01 0.  1.
         -5    1    1    2    0  502  0.67917932122E+02 -0.38937836750E+02  0.17288426854E+03  0.18983003804E+03  0.41800000000E+01 0.  1.
        -11    1    3    3    0    0 -0.64428175823E+01  0.66404970688E+02  0.13056481390E+03  0.14662298816E+03  0.00000000000E+00 0.  1.
         11    1    3    3    0    0 -0.14857750002E+02  0.22471149511E+02 -0.14471929178E+02  0.30580092047E+02  0.00000000000E+00 0. -1.
</event>
<event>
 7    1  0.4687179E-006  0.1447530E+03  0.7561462E-02  0.1207073E+00
          2   -1    0    0  501    0  0.00000000000E+00  0.00000000000E+00  0.98870747020E+03  0.98870747020E+03  0.00000000000E+00 0. -1.
         -2   -1    0    0    0  501 -0.00000000000E+00 -0.00000000000E+00 -0.27521404403E+02  0.27521404403E+02  0.00000000000E+00 0.  1.
         23    2    1    2    0    0 -0.12068889966E+03 -0.31916893053E+02  0.43836101875E+03  0.46434340411E+03  0.88712544882E+02 0.  0.
          5    1    1    2  502    0  0.63380934440E+01  0.29568054378E+02  0.29843870699E+03  0.29999595914E+03  0.41800000000E+01 0.  1.
         -5    1    1    2    0  502  0.11435080622E+03  0.23488386751E+01  0.22438634006E+03  0.25188951135E+03  0.41800000000E+01 0.  1.
        -11    1    3    3    0    0  0.10055978007E+02 -0.40789511669E+01  0.74206387482E+01  0.13146346098E+02  0.00000000000E+00 0.  1.
         11    1    3    3    0    0 -0.13074487767E+03 -0.27837941886E+02  0.43094038000E+03  0.45119705801E+03  0.00000000000E+00 0. -1.
</event>
<event>
 7    1  0.4687179E-006  0.1056110E+03  0.7561462E-02  0.1268920E+00
         -2   -1    0    0    0  501 -0.00000000000E+00  0.00000000000E+00  0.43458335455E+02  0.43458335455E+02  0.00000000000E+00 0.  1.
          2   -1    0    0  501    0  0.00000000000E+00 -0.00000000000E+00 -0.36399105187E+03  0.36399105187E+03  0.00000000000E+00 0. -1.
         23    2    1    2    0    0 -0.16526868558E+02  0.17989856336E+01 -0.24562371929E+03  0.26070157099E+03  0.85778341700E+02 0.  0.
          5    1    1    2  502    0 -0.12720014802E+02 -0.58543418313E+02 -0.22803534037E+02  0.64238650117E+02  0.41800000000E+01 0. -1.
         -5    1    1    2    0  502  0.29246883360E+02  0.56744432679E+02 -0.52105463089E+02  0.82509166218E+02  0.41800000000E+01 0. -1.
        -11    1    3    3    0    0 -0.35738567483E+02 -0.32223221708E+02 -0.14387370276E+03  0.15170769120E+03  0.00000000000E+00 0.  1.
         11    1    3    3    0    0  0.19211698925E+02  0.34022207341E+02 -0.10175001653E+03  0.10899387979E+03  0.00000000000E+00 0. -1.
</event>
<event>
 7    1  0.4687179E-006  0.1272029E+03  0.7561462E-02  0.1231666E+00
          2   -1    0    0  501    0  0.00000000000E+00  0.00000000000E+00  0.75317066020E+03  0.75317066020E+03  0.00000000000E+00 0.  1.
         -2   -1    0    0    0  501 -0.00000000000E+00 -0.00000000000E+00 -0.23937756888E+02  0.23937756888E+02  0.00000000000E+00 0. -1.
         23    2    1    2    0    0  0.65730408457E+02 -0.44780552098E+02  0.34989548507E+03  0.36983032560E+03  0.89564696266E+02 0.  0.
          5    1    1    2  502    0 -0.10000342804E+03  0.25084782023E+02  0.31676209901E+03  0.33314506102E+03  0.41800000000E+01 0.  1.
         -5    1    1    2    0  502  0.34273019586E+02  0.19695770075E+02  0.62575319226E+02  0.74133030470E+02  0.41800000000E+01 0.  1.
        -11    1    3    3    0    0  0.81251096709E+02 -0.22486619296E+02  0.31209789655E+03  0.32328390896E+03  0.00000000000E+00 0. -1.
         11    1    3    3    0    0 -0.15520688252E+02 -0.22293932802E+02  0.37797588523E+02  0.46546416637E+02  0.00000000000E+00 0.  1.
</event>
<event>
 7    1  0.4687179E-006  0.1293347E+03  0.7561462E-02  0.1228446E+00
          1   -1    0    0  501    0  0.00000000000E+00  0.00000000000E+00  0.67462865842E+02  0.67462865842E+02  0.00000000000E+00 0. -1.
         -1   -1    0    0    0  501 -0.00000000000E+00 -0.00000000000E+00 -0.32004954365E+03  0.32004954365E+03  0.00000000000E+00 0.  1.
         23    2    1    2    0    0  0.35765807560E+02  0.75721917381E+02 -0.20615699132E+02  0.11097713184E+03  0.69842071693E+02 0.  0.
          5    1    1    2  502    0 -0.38745565158E+02 -0.10947727708E+03 -0.18490250271E+03  0.21838704386E+03  0.41800000000E+01 0.  1.
         -5    1    1    2    0  502  0.29797575982E+01  0.33755359699E+02 -0.47068475969E+02  0.58148233798E+02  0.41800000000E+01 0.  1.
        -11    1    3    3    0    0  0.35180691804E+02  0.26881397082E+01 -0.76542913072E+00  0.35291543642E+02  0.00000000000E+00 0. -1.
         11    1    3    3    0    0  0.58511575605E+00  0.73033777673E+02 -0.19850270001E+02  0.75685588197E+02  0.00000000000E+00 0.  1.
</event>
<event>
 7    1  0.4687179E-006  0.9525965E+02  0.7561462E-02  0.1290592E+00
          2   -1    0    0  501    0  0.00000000000E+00  0.00000000000E+00  0.49795910757E+03  0.49795910757E+03  0.00000000000E+00 0.  1.
         -2   -1    0    0    0  501 -0.00000000000E+00 -0.00000000000E+00 -0.28338899443E+02  0.28338899443E+02  0.00000000000E+00 0. -1.
         23    2    1    2    0    0  0.80668078805E+01 -0.31038028982E+02  0.28196378016E+03  0.29852933914E+03  0.92670169819E+02 0.  0.
          5    1    1    2  502    0 -0.54021965926E+02  0.17046839461E+02  0.16497783339E+03  0.17448245026E+03  0.41800000000E+01 0.  1.
         -5    1    1    2    0  502  0.45955158046E+02  0.13991189521E+02  0.22678594575E+02  0.53286217610E+02  0.41800000000E+01 0.  1.
        -11    1    3    3    0    0  0.20305974869E+02  0.22657647375E+02  0.18083849418E+03  0.18338010409E+03  0.00000000000E+00 0.  1.
         11    1    3    3    0    0 -0.12239166989E+02 -0.53695676357E+02  0.10112528599E+03  0.11514923505E+03  0.00000000000E+00 0. -1.
</event>
<event>
 7    1  0.4687179E-006  0.1076220E+03  0.7561462E-02  0.1265038E+00
         -1   -1    0    0    0  501 -0.00000000000E+00  0.00000000000E+00  0.83240225005E+02  0.83240225005E+02  0.00000000000E+00 0.  1.
          1   -1    0    0  501    0  0.00000000000E+00 -0.00000000000E+00 -0.15997911157E+03  0.15997911157E+03  0.00000000000E+00 0. -1.
         23    2    1    2    0    0  0.13247480535E+02 -0.26533130051E+02 -0.63376747682E+02  0.11396234780E+03  0.89951663898E+02 0.  0.
          5    1    1    2  502    0 -0.21937965486E+02 -0.45311679141E+02 -0.24110916206E+02  0.55975273796E+02  0.41800000000E+01 0.  1.
         -5    1    1    2    0  502  0.86904849509E+01  0.71844809193E+02  0.10748777323E+02  0.73281714981E+02  0.41800000000E+01 0.  1.
        -11    1    3    3    0    0 -0.37206911209E+02 -0.56515305954E+01 -0.13425071063E+02  0.39956558571E+02  0.00000000000E+00 0. -1.
         11    1    3    3    0    0  0.50454391744E+02 -0.20881599456E+02 -0.49951676618E+02  0.74005789227E+02  0.00000000000E+00 0.  1.
</event>
<event>
 7    1  0.4687179E-006  0.1104480E+03  0.7561462E-02  0.1259742E+00
          2   -1    0    0  501    0  0.00000000000E+00  0.00000000000E+00  0.23769829908E+03  0.23769829908E+03  0.00000000000E+00 0. -1.
         -2   -1    0    0    0  501 -0.00000000000E+00 -0.00000000000E+00 -0.63822571299E+02  0.63822571299E+02  0.00000000000E+00 0.  1.
         23    2    1    2    0    0  0.13303202640E+01  0.54547541979E+02  0.98322845908E+02  0.14553318407E+03  0.92386803981E+02 0.  0.
          5    1    1    2  502    0  0.35617203359E+02  0.11958734723E+02  0.70043561076E+02  0.79593777140E+02  0.41800000000E+01 0.  1.
         -5    1    1    2    0  502 -0.36947523623E+02 -0.66506276702E+02  0.55093207971E+01  0.76393909170E+02  0.41800000000E+01 0.  1.
        -11    1    3    3    0    0  0.20424057032E+02 -0.20810592734E+02  0.32571225416E+02  0.43716216679E+02  0.00000000000E+00 0.  1.
         11    1    3    3    0    0 -0.19093736768E+02  0.75358134713E+02  0.65751620492E+02  0.10181696739E+03  0.00000000000E+00 0. -1.
</event>
<event>
 7    1  0.4687179E-006  0.8738977E+02  0.7561462E-02  0.1309299E+00
         -2   -1    0    0    0  501 -0.00000000000E+00  0.00000000000E+00  0.53733028787E+02  0.53733028787E+02  0.00000000000E+00 0.  1.
          2   -1    0    0  501    0  0.00000000000E+00 -0.00000000000E+00 -0.29278711302E+03  0.29278711302E+03  0.00000000000E+00 0. -1.
         23    2    1    2    0    0  0.33620510868E+02 -0.35022240138E+02 -0.15996491565E+03  0.19077092448E+03  0.91912324173E+02 0.  0.
          5    1    1    2  502    0 -0.17028886721E+01  0.66414040878E+02 -0.21098715357E+01  0.66600665263E+02  0.41800000000E+01 0. -1.
         -5    1    1    2    0  502 -0.31917622196E+02 -0.31391800741E+02 -0.76979297052E+02  0.89148552064E+02  0.41800000000E+01 0. -1.
        -11    1    3    3    0    0  0.75985220640E+01 -0.36406237402E+02 -0.16045383236E+03  0.16470757111E+03  0.00000000000E+00 0. -1.
         11    1    3    3    0    0  0.26021988804E+02  0.13839972644E+01  0.48891671556E+00  0.26063353378E+02  0.00000000000E+00 0.  1.
</event>
<event>
 7    1  0.4687179E-006  0.1162352E+03  0.7561462E-02  0.1249440E+00
         -1   -1    0    0    0  501 -0.00000000000E+00  0.00000000000E+00  0.12946721722E+03  0.12946721722E+03  0.00000000000E+00 0.  1.
          1   -1    0    0  501    0  0.00000000000E+00 -0.00000000000E+00 -0.10608085814E+03  0.10608085814E+03  0.00000000000E+00 0. -1.
         23    2    1    2    0    0  0.12726637416E+02  0.39195938913E+02 -0.29292876059E+00  0.10173468063E+03  0.93013818915E+02 0.  0.
          5    1    1    2  502    0  0.16327334791E+02 -0.79354939992E+02  0.21943207733E+02  0.84040258972E+02  0.41800000000E+01 0. -1.
         -5    1    1    2    0  502 -0.29053972207E+02  0.40159001079E+02  0.17360800991E+01  0.49773135754E+02  0.41800000000E+01 0. -1.
        -11    1    3    3    0    0  0.50876708968E+02  0.63699747889E+01 -0.27350506626E+01  0.51346826546E+02  0.00000000000E+00 0.  1.
         11    1    3    3    0    0 -0.38150071552E+02  0.32825964124E+02  0.24421219020E+01  0.50387854087E+02  0.00000000000E+00 0. -1.
</event>
<event>
 7    1  0.4687179E-006  0.9363291E+02  0.7561462E-02  0.1294285E+00
         -3   -1    0    0    0  501 -0.00000000000E+00  0.00000000000E+00  0.11412427062E+03  0.11412427062E+03  0.00000000000E+00 0.  1.
          3   -1    0    0  501    0  0.00000000000E+00 -0.00000000000E+00 -0.13066715906E+03  0.13066715906E+03  0.00000000000E+00 0. -1.
         23    2    1    2    0    0 -0.19907607111E+02 -0.29326934094E+01 -0.59669463944E+02  0.11095209516E+03  0.91351020697E+02 0.  0.
          5    1    1    2  502    0 -0.21357750195E+02 -0.45266264825E+02 -0.97200290265E+01  0.51157986560E+02  0.41800000000E+01 0.  1.
         -5    1    1    2    0  502  0.41265357306E+02  0.48198958235E+02  0.52846604539E+02  0.82681347956E+02  0.41800000000E+01 0.  1.
        -11    1    3    3    0    0 -0.19704216645E+02 -0.35650373597E+02  0.23822496495E+01  0.40802946028E+02  0.00000000000E+00 0.  1.
         11    1    3    3    0    0 -0.20339046591E+00  0.32717680188E+02 -0.62051713594E+02  0.70149149136E+02  0.00000000000E+00 0. -1.
</event>
<event>
 7    1  0.4687179E-006  0.1725777E+03  0.7561462E-02  0.1175186E+00
         -1   -1    0    0    0  501 -0.00000000000E+00  0.00000000000E+00  0.16946516575E+03  0.16946516575E+03  0.00000000000E+00 0.  1.
          1   -1    0    0  501    0  0.00000000000E+00 -0.00000000000E+00 -0.22504691833E+03  0.22504691833E+03  0.00000000000E+00 0. -1.
         23    2    1    2    0    0 -0.81535422399E+02  0.12624747624E+03 -0.81008251210E+02  0.19732812946E+03  0.98942425423E+02 0.  0.
          5    1    1    2  502    0  0.78236329665E+02 -0.12593654292E+02  0.25679306214E+02  0.83405171155E+02  0.41800000000E+01 0. -1.
         -5    1    1    2    0  502  0.32990927343E+01 -0.11365382195E+03 -0.25280757467E+00  0.11377878347E+03  0.41800000000E+01 0. -1.
        -11    1    3    3    0    0 -0.23370031486E+02  0.19414114084E+02  0.22340234283E+02  0.37711434143E+02  0.00000000000E+00 0.  1.
         11    1    3    3    0    0 -0.58165390913E+02  0.10683336215E+03 -0.10334848549E+03  0.15961669531E+03  0.00000000000E+00 0. -1.
</event>
<event>
 7    1  0.4687179E-006  0.1247819E+03  0.7561462E-02  0.1235410E+00
          1   -1    0    0  501    0  0.00000000000E+00  0.00000000000E+00  0.55767179017E+02  0.55767179017E+02  0.00000000000E+00 0. -1.
         -1   -1    0    0    0  501 -0.00000000000E+00 -0.00000000000E+00 -0.69999168499E+03  0.69999168499E+03  0.00000000000E+00 0.  1.
         23    2    1    2    0    0 -0.99930073038E+02 -0.34189726423E+02 -0.65502508721E+02  0.15432569953E+03  0.91492546117E+02 0.  0.
          5    1    1    2  502    0  0.54353148893E+02  0.33926915871E+02 -0.89911632572E+02  0.11048472513E+03  0.41800000000E+01 0. -1.
         -5    1    1    2    0  502  0.45576924145E+02  0.26281055169E+00 -0.48881036468E+03  0.49094843935E+03  0.41800000000E+01 0. -1.
        -11    1    3    3    0    0 -0.10037235747E+02 -0.47645933300E+02 -0.19476346583E+02  0.52442436421E+02  0.00000000000E+00 0.  1.
         11    1    3    3    0    0 -0.89892837291E+02  0.13456206878E+02 -0.46026162137E+02  0.10188326310E+03  0.00000000000E+00 0. -1.
</event>
<event>
 7    1  0.4741847E-006  0.2221514E+03  0.7561462E-02  0.1132289E+00
         -2   -1    0    0    0  501 -0.00000000000E+00  0.00000000000E+00  0.69720163230E+02  0.69720163230E+02  0.00000000000E+00 0.  1.
          2   -1    0    0  501    0  0.00000000000E+00 -0.00000000000E+00 -0.78322552763E+03  0.78322552763E+03  0.00000000000E+00 0. -1.
         23    2    1    2    0    0 -0.96802545262E+02 -0.17925983206E+03 -0.41389830397E+03  0.46964884663E+03  0.88053466450E+02 0.  0.
          5    1    1    2  502    0 -0.23093750797E+02  0.79947365685E+02 -0.10519424234E+03  0.13419464828E+03  0.41800000000E+01 0. -1.
         -5    1    1    2    0  502  0.11989629606E+03  0.99312466380E+02 -0.19441281809E+03  0.24910219595E+03  0.41800000000E+01 0. -1.
        -11    1    3    3    0    0 -0.23224412778E+02 -0.67953040260E+02 -0.67961795391E+02  0.98872618364E+02  0.00000000000E+00 0.  1.
         11    1    3    3    0    0 -0.73578132484E+02 -0.11130679180E+03 -0.34593650857E+03  0.37077622826E+03  0.00000000000E+00 0. -1.
</event>
<event>
 7    1  0.4687179E-006  0.7385154E+02  0.7561462E-02  0.1347465E+00
          1   -1    0    0  501    0  0.00000000000E+00  0.00000000000E+00  0.42195879486E+02  0.42195879486E+02  0.00000000000E+00 0. -1.
         -1   -1    0    0    0  501 -0.00000000000E+00 -0.00000000000E+00 -0.45083930594E+03  0.45083930594E+03  0.00000000000E+00 0.  1.
         23    2    1    2    0    0  0.42589576257E+02  0.17315652884E+02 -0.49150528850E+02  0.11411928449E+03  0.92161449456E+02 0.  0.
          5    1    1    2  502    0 -0.49371201464E+02 -0.55388196419E+01 -0.55556459824E+02  0.74647080889E+02  0.41800000000E+01 0. -1.
         -5    1    1    2    0  502  0.67816252069E+01 -0.11776833242E+02 -0.30393643778E+03  0.30426882005E+03  0.41800000000E+01 0.  1.
        -11    1    3    3    0    0  0.32729301519E+01  0.38723329685E+02  0.98185230280E+01  0.40082561397E+02  0.00000000000E+00 0.  1.
         11    1    3    3    0    0  0.39316646105E+02 -0.21407676802E+02 -0.58969051878E+02  0.74036723094E+02  0.00000000000E+00 0. -1.
</event>
<event>
 7    1  0.4687179E-006  0.1154258E+03  0.7561462E-02  0.1250840E+00
         -1   -1    0    0    0  501 -0.00000000000E+00  0.00000000000E+00  0.33147627599E+03  0.33147627599E+03  0.00000000000E+00 0.  1.
          1   -1    0    0  501    0  0.00000000000E+00 -0.00000000000E+00 -0.51451223592E+02  0.51451223592E+02  0.00000000000E+00 0. -1.
         23    2    1    2    0    0  0.59757167594E+02  0.40549650661E+02  0.11311578987E+03  0.16219736180E+03  0.91091212579E+02 0.  0.
          5    1    1    2  502    0 -0.98864213207E+02 -0.33209661344E+02  0.12335948726E+03  0.16159223297E+03  0.41800000000E+01 0.  1.
         -5    1    1    2    0  502  0.39107045612E+02 -0.73399893171E+01  0.43549775274E+02  0.59137904817E+02  0.41800000000E+01 0.  1.
        -11    1    3    3    0    0 -0.33974204702E+01  0.19652387376E+02 -0.99613264042E+01  0.22293201187E+02  0.00000000000E+00 0. -1.
         11    1    3    3    0    0  0.63154588064E+02  0.20897263285E+02  0.12307711627E+03  0.13990416061E+03  0.00000000000E+00 0.  1.
</event>
<event>
 7    1  0.4687179E-006  0.1437510E+03  0.7561462E-02  0.1208369E+00
         -2   -1    0    0    0  501 -0.00000000000E+00  0.00000000000E+00  0.17967182805E+03  0.17967182805E+03  0.00000000000E+00 0.  1.
          2   -1    0    0  501    0  0.00000000000E+00 -0.00000000000E+00 -0.17038622815E+03  0.17038622815E+03  0.00000000000E+00 0. -1.
         23    2    1    2    0    0  0.10537779204E+03  0.76114602336E+02 -0.39760230255E+02  0.16310509927E+03  0.90135929318E+02 0.  0.
          5    1    1    2  502    0  0.43190523557E+01  0.12033960969E+02 -0.24621978058E+02  0.28056810819E+02  0.41800000000E+01 0. -1.
         -5    1    1    2    0  502 -0.10969684439E+03 -0.88148563305E+02  0.73667808209E+02  0.15889614611E+03  0.41800000000E+01 0. -1.
        -11    1    3    3    0    0  0.38648315806E+02  0.45922175397E+02 -0.62264578532E+02  0.86483618377E+02  0.00000000000E+00 0. -1.
         11    1    3    3    0    0  0.66729476231E+02  0.30192426939E+02  0.22504348277E+02  0.76621480891E+02  0.00000000000E+00 0.  1.
</event>
<event>
 7    1  0.4687179E-006  0.1063968E+03  0.7561462E-02  0.1267392E+00
         -1   -1    0    0    0  501 -0.00000000000E+00  0.00000000000E+00  0.72870834701E+02  0.72870834701E+02  0.00000000000E+00 0.  1.
          1   -1    0    0  501    0  0.00000000000E+00 -0.00000000000E+00 -0.18198832093E+03  0.18198832093E+03  0.00000000000E+00 0. -1.
         23    2    1    2    0    0  0.16656839182E+01 -0.34977229883E+02 -0.66087902857E+02  0.11801919082E+03  0.91294782897E+02 0.  0.
          5    1    1    2  502    0 -0.62604890180E+02  0.26961627289E+02 -0.22409213646E+02  0.71874521750E+02  0.41800000000E+01 0.  1.
         -5    1    1    2    0  502  0.60939206262E+02  0.80156025939E+01 -0.20620369728E+02  0.64965443064E+02  0.41800000000E+01 0.  1.
        -11    1    3    3    0    0  0.38343580521E+02 -0.15405290845E+02 -0.64267823838E+02  0.76406193035E+02  0.00000000000E+00 0. -1.
         11    1    3    3    0    0 -0.36677896603E+02 -0.19571939038E+02 -0.18200790194E+01  0.41612997784E+02  0.00000000000E+00 0.  1.
</event>
<event>
 7    1  0.4687179E-006  0.3502917E+03  0.7561462E-02  0.1062495E+00
          1   -1    0    0  501    0  0.00000000000E+00  0.00000000000E+00  0.83853638492E+03  0.83853638492E+03  0.00000000000E+00 0. -1.
         -1   -1    0    0    0  501 -0.00000000000E+00 -0.00000000000E+00 -0.16315575463E+03  0.16315575463E+03  0.00000000000E+00 0.  1.
         23    2    1    2    0    0  0.21351135346E+03  0.27145879779E+03  0.43441853176E+03  0.56238832224E+03  0.91017510998E+02 0.  0.
          5    1    1    2  502    0 -0.12946331529E+03 -0.19630207090E+03  0.92243150620E+02  0.25262922294E+03  0.41800000000E+01 0. -1.
         -5    1    1    2    0  502 -0.84048038172E+02 -0.75156726884E+02  0.14871894791E+03  0.18667459437E+03  0.41800000000E+01 0. -1.
        -11    1    3    3    0    0  0.10380374619E+03  0.76806862446E+02  0.20392222579E+03  0.24136856882E+03  0.00000000000E+00 0. -1.
         11    1    3    3    0    0  0.10970760727E+03  0.19465193534E+03  0.23049630597E+03  0.32101975343E+03  0.00000000000E+00 0.  1.
</event>
<event>
 7    1  0.4687179E-006  0.1981543E+03  0.7561462E-02  0.1151306E+00
          2   -1    0    0  501    0  0.00000000000E+00  0.00000000000E+00  0.50553666508E+03  0.50553666508E+03  0.00000000000E+00 0. -1.
         -2   -1    0    0    0  501 -0.00000000000E+00 -0.00000000000E+00 -0.12406117943E+03  0.12406117943E+03  0.00000000000E+00 0.  1.
         23    2    1    2    0    0 -0.72222587203E+02 -0.17271554365E+03  0.34319385430E+03  0.40120162159E+03  0.90188460536E+02 0.  0.
          5    1    1    2  502    0 -0.11306233562E+01  0.11646355307E+03  0.63184995049E+02  0.13257018331E+03  0.41800000000E+01 0. -1.
         -5    1    1    2    0  502  0.73353210559E+02  0.56251990581E+02 -0.24903363697E+02  0.95826039609E+02  0.41800000000E+01 0. -1.
        -11    1    3    3    0    0 -0.51422889064E+02 -0.12637978008E+03  0.15604326306E+03  0.20728160140E+03  0.00000000000E+00 0.  1.
         11    1    3    3    0    0 -0.20799698139E+02 -0.46335763575E+02  0.18715059124E+03  0.19392002019E+03  0.00000000000E+00 0. -1.
</event>
<event>
 7    1  0.4687179E-006  0.7942620E+02  0.7561462E-02  0.1330688E+00
          1   -1    0    0  501    0  0.00000000000E+00  0.00000000000E+00  0.22087954254E+03  0.22087954254E+03  0.00000000000E+00 0. -1.
         -1   -1    0    0    0  501 -0.00000000000E+00 -0.00000000000E+00 -0.63749157525E+02  0.63749157525E+02  0.00000000000E+00 0.  1.
         23    2    1    2    0    0 -0.48409034547E+02 -0.12425435163E+02  0.66514244388E+02  0.12228159393E+03  0.89614828252E+02 0.  0.
          5    1    1    2  502    0  0.48425751917E+02 -0.15376089333E+02 -0.14929734871E+02  0.53121059432E+02  0.41800000000E+01 0.  1.
         -5    1    1    2    0  502 -0.16717370467E-01  0.27801524496E+02  0.10554587550E+03  0.10922604670E+03  0.41800000000E+01 0.  1.
        -11    1    3    3    0    0 -0.20502465851E+02 -0.37177762139E+02 -0.38610570964E+01  0.42631500859E+02  0.00000000000E+00 0.  1.
         11    1    3    3    0    0 -0.27906568696E+02  0.24752326975E+02  0.70375301484E+02  0.79650093070E+02  0.00000000000E+00 0. -1.
</event>
<event>
 7    1  0.4687179E-006  0.1371719E+03  0.7561462E-02  0.1217186E+00
          1   -1    0    0  501    0  0.00000000000E+00  0.00000000000E+00  0.89641435355E+02  0.89641435355E+02  0.00000000000E+00 0. -1.
         -1   -1    0    0    0  501 -0.00000000000E+00 -0.00000000000E+00 -0.37908370967E+03  0.37908370967E+03  0.00000000000E+00 0.  1.
         23    2    1    2    0    0  0.25972716837E+02  0.91145742304E+02  0.87484136783E+01  0.13175744010E+03  0.91111799014E+02 0.  0.
          5    1    1    2  502    0 -0.67304956949E+02 -0.39010078332E+02 -0.93539013427E+02  0.12173234112E+03  0.41800000000E+01 0. -1.
         -5    1    1    2    0  502  0.41332240112E+02 -0.52135663972E+02 -0.20465167457E+03  0.21523536381E+03  0.41800000000E+01 0. -1.
        -11    1    3    3    0    0  0.25943935386E+02  0.10893735931E+03  0.14815275417E+02  0.11295985314E+03  0.00000000000E+00 0.  1.
         11    1    3    3    0    0  0.28781450840E-01 -0.17791617005E+02 -0.60668617389E+01  0.18797586956E+02  0.00000000000E+00 0. -1.
</event>
<event>
 7    1  0.4687179E-006  0.1565610E+03  0.7561462E-02  0.1192635E+00
         -1   -1    0    0    0  501 -0.00000000000E+00  0.00000000000E+00  0.25457420033E+03  0.25457420033E+03  0.00000000000E+00 0.  1.
          1   -1    0    0  501    0  0.00000000000E+00 -0.00000000000E+00 -0.13191440675E+03  0.13191440675E+03  0.00000000000E+00 0. -1.
         23    2    1    2    0    0 -0.14138526388E+03  0.95822515666E+00  0.15305903852E+02  0.16932082386E+03  0.91894285256E+02 0.  0.
          5    1    1    2  502    0  0.64706989905E+02 -0.43071422726E+02  0.10349353046E+03  0.12950106272E+03  0.41800000000E+01 0. -1.
         -5    1    1    2    0  502  0.76678273976E+02  0.42113197569E+02  0.38603592697E+01  0.87666720499E+02  0.41800000000E+01 0. -1.
        -11    1    3    3    0    0 -0.77334615152E+02 -0.20745698341E+02  0.48887863347E+02  0.93813910925E+02  0.00000000000E+00 0.  1.
         11    1    3    3    0    0 -0.64050648728E+02  0.21703923498E+02 -0.33581959495E+02  0.75506912937E+02  0.00000000000E+00 0. -1.
</event>
<event>
 7    1  0.4687179E-006  0.1140019E+03  0.7561462E-02  0.1253333E+00
         -4   -1    0    0    0  501 -0.00000000000E+00  0.00000000000E+00  0.78664287895E+02  0.78664287895E+02  0.00000000000E+00 0.  1.
          4   -1    0    0  501    0  0.00000000000E+00 -0.00000000000E+00 -0.32233071823E+03  0.32233071823E+03  0.00000000000E+00 0. -1.
         23    2    1    2    0    0  0.50704475730E+02  0.96092874304E+02 -0.16451488541E+03  0.21737174334E+03  0.91545305333E+02 0.  0.
          5    1    1    2  502    0 -0.42161393493E+02 -0.29973943176E+02 -0.10082284622E+03  0.11339638041E+03  0.41800000000E+01 0. -1.
         -5    1    1    2    0  502 -0.85430822370E+01 -0.66118931128E+02  0.21671301300E+02  0.70226882372E+02  0.41800000000E+01 0. -1.
        -11    1    3    3    0    0  0.18030958127E+02  0.22866543506E+02  0.52802290878E+01  0.29595186807E+02  0.00000000000E+00 0.  1.
         11    1    3    3    0    0  0.32673517603E+02  0.73226330798E+02 -0.16979511450E+03  0.18777655653E+03  0.00000000000E+00 0. -1.
</event>
<event>
 7    1  0.4687179E-006  0.1454214E+03  0.7561462E-02  0.1206215E+00
         -1   -1    0    0    0  501 -0.00000000000E+00  0.00000000000E+00  0.38545660377E+02  0.38545660377E+02  0.00000000000E+00 0.  1.
          1   -1    0    0  501    0  0.00000000000E+00 -0.00000000000E+00 -0.73970629034E+03  0.73970629034E+03  0.00000000000E+00 0. -1.
         23    2    1    2    0    0  0.68743890767E+02 -0.10263093719E+03 -0.41292600119E+03  0.44063533233E+03  0.91612127199E+02 0.  0.
          5    1    1    2  502    0 -0.33430446011E+01  0.57776481326E+02 -0.23488590883E+03  0.24194660631E+03  0.41800000000E+01 0. -1.
         -5    1    1    2    0  502 -0.65400846166E+02  0.44854455867E+02 -0.53348719942E+02  0.95670012072E+02  0.41800000000E+01 0. -1.
        -11    1    3    3    0    0  0.69487166634E+02 -0.22167343468E+02 -0.18079003919E+03  0.19494844373E+03  0.00000000000E+00 0.  1.
         11    1    3    3    0    0 -0.74327586716E+00 -0.80463593725E+02 -0.23213596201E+03  0.24568688860E+03  0.00000000000E+00 0. -1.
</event>
<event>
 7    1  0.4687179E-006  0.9126031E+02  0.7561462E-02  0.1299828E+00
         -2   -1    0    0    0  501 -0.00000000000E+00  0.00000000000E+00  0.82296782741E+02  0.82296782741E+02  0.00000000000E+00 0.  1.
          2   -1    0    0  501    0  0.00000000000E+00 -0.00000000000E+00 -0.20217471413E+03  0.20217471413E+03  0.00000000000E+00 0. -1.
         23    2    1    2    0    0  0.11861788599E+02  0.33291069262E+02 -0.11926197687E+03  0.15448297428E+03  0.91610986752E+02 0.  0.
          5    1    1    2  502    0  0.22050667903E+01  0.30968824880E+02  0.41328806217E+02  0.51860129746E+02  0.41800000000E+01 0.  1.
         -5    1    1    2    0  502 -0.14066855389E+02 -0.64259894142E+02 -0.41944760739E+02  0.78128392849E+02  0.41800000000E+01 0.  1.
        -11    1    3    3    0    0 -0.33272895145E+02  0.11954987691E+02 -0.89811628573E+02  0.96520132143E+02  0.00000000000E+00 0. -1.
         11    1    3    3    0    0  0.45134683744E+02  0.21336081571E+02 -0.29450348296E+02  0.57962842134E+02  0.00000000000E+00 0.  1.
</event>
<event>
 7    1  0.4687179E-006  0.1602298E+03  0.7561462E-02  0.1188438E+00
          1   -1    0    0  501    0  0.00000000000E+00  0.00000000000E+00  0.18350821143E+03  0.18350821143E+03  0.00000000000E+00 0. -1.
         -1   -1    0    0    0  501 -0.00000000000E+00 -0.00000000000E+00 -0.20262412924E+03  0.20262412924E+03  0.00000000000E+00 0.  1.
         23    2    1    2    0    0  0.91613000573E+02 -0.10877871193E+03  0.62036049252E+02  0.18007556304E+03  0.91394676842E+02 0.  0.
          5    1    1    2  502    0 -0.95185501647E+02  0.75838911698E+02 -0.38352142751E+01  0.12183596152E+03  0.41800000000E+01 0. -1.
         -5    1    1    2    0  502  0.35725010745E+01  0.32939800235E+02 -0.77316752785E+02  0.84220816101E+02  0.41800000000E+01 0. -1.
        -11    1    3    3    0    0 -0.15791450422E+02 -0.22669884510E+02 -0.30655372188E+01  0.27797321608E+02  0.00000000000E+00 0.  1.
         11    1    3    3    0    0  0.10740445100E+03 -0.86108827423E+02  0.65101586470E+02  0.15227824144E+03  0.00000000000E+00 0. -1.
</event>
<event>
 7    1  0.4687179E-006  0.9581873E+02  0.7561462E-02  0.1289343E+00
          4   -1    0    0  501    0  0.00000000000E+00  0.00000000000E+00  0.55932903239E+02  0.55932903239E+02  0.00000000000E+00 0. -1.
         -4   -1    0    0    0  501 -0.00000000000E+00 -0.00000000000E+00 -0.29271078532E+03  0.29271078532E+03  0.00000000000E+00 0.  1.
         23    2    1    2    0    0  0.34080843565E+02  0.49122454313E+02 -0.63506339048E+02  0.12670436094E+03  0.91904409933E+02 0.  0.
          5    1    1    2  502    0 -0.17325450208E+02  0.14495870949E+02  0.11550227815E+02  0.25713452940E+02  0.41800000000E+01 0.  1.
         -5    1    1    2    0  502 -0.16755393357E+02 -0.63618325263E+02 -0.18482177085E+03  0.19622587468E+03  0.41800000000E+01 0.  1.
        -11    1    3    3    0    0  0.53293130384E+02  0.60332967169E+02 -0.28829705097E+02  0.85506587872E+02  0.00000000000E+00 0. -1.
         11    1    3    3    0    0 -0.19212286819E+02 -0.11210512855E+02 -0.34676633951E+02  0.41197773065E+02  0.00000000000E+00 0.  1.
</event>
<event>
 7    1  0.4687179E-006  0.1246637E+03  0.7561462E-02  0.1235596E+00
          3   -1    0    0  501    0  0.00000000000E+00  0.00000000000E+00  0.34828563664E+02  0.34828563664E+02  0.00000000000E+00 0. -1.
         -3   -1    0    0    0  501 -0.00000000000E+00 -0.00000000000E+00 -0.61530056532E+03  0.61530056532E+03  0.00000000000E+00 0.  1.
         23    2    1    2    0    0  0.15206624804E+02  0.26792877614E+02 -0.13526142937E+03  0.15826531097E+03  0.76178439566E+02 0.  0.
          5    1    1    2  502    0 -0.11102011975E+02  0.70034007510E+02 -0.55165552843E+02  0.89937353187E+02  0.41800000000E+01 0. -1.
         -5    1    1    2    0  502 -0.41046128295E+01 -0.96826885125E+02 -0.39004501944E+03  0.40192646482E+03  0.41800000000E+01 0.  1.
        -11    1    3    3    0    0  0.45961152680E+02  0.17232942774E+02 -0.70068488995E+02  0.85551125196E+02  0.00000000000E+00 0. -1.
         11    1    3    3    0    0 -0.30754527876E+02  0.95599348407E+01 -0.65192940371E+02  0.72714185778E+02  0.00000000000E+00 0.  1.
</event>
<event>
 7    1  0.4687179E-006  0.1474915E+03  0.7561462E-02  0.1203590E+00
         -1   -1    0    0    0  501 -0.00000000000E+00  0.00000000000E+00  0.80503280207E+02  0.80503280207E+02  0.00000000000E+00 0.  1.
          1   -1    0    0  501    0  0.00000000000E+00 -0.00000000000E+00 -0.30859308145E+03  0.30859308145E+03  0.00000000000E+00 0. -1.
         23    2    1    2    0    0 -0.10990410042E+03  0.16351395386E+02 -0.13813625125E+03  0.19913231215E+03  0.90696055099E+02 0.  0.
          5    1    1    2  502    0  0.96943052760E+01  0.36928432350E+02 -0.62116997291E+02  0.73032064349E+02  0.41800000000E+01 0.  1.
         -5    1    1    2    0  502  0.10020979515E+03 -0.53279827737E+02 -0.27836552701E+02  0.11693198516E+03  0.41800000000E+01 0.  1.
        -11    1    3    3    0    0 -0.12564067466E+03  0.18928775223E+02 -0.11757329078E+03  0.17311082105E+03  0.00000000000E+00 0.  1.
         11    1    3    3    0    0  0.15736574236E+02 -0.25773798366E+01 -0.20562960473E+02  0.26021491097E+02  0.00000000000E+00 0. -1.
</event>
<event>
 7    1  0.4687179E-006  0.8527288E+02  0.7561462E-02  0.1314720E+00
         -1   -1    0    0    0  501 -0.00000000000E+00  0.00000000000E+00  0.54530767983E+02  0.54530767983E+02  0.00000000000E+00 0.  1.
          1   -1    0    0  501    0  0.00000000000E+00 -0.00000000000E+00 -0.25789452016E+03  0.25789452016E+03  0.00000000000E+00 0. -1.
         23    2    1    2    0    0  0.19271982417E+01 -0.16301358104E+02 -0.14925882748E+03  0.17515189807E+03  0.90169515071E+02 0.  0.
          5    1    1    2  502    0 -0.36480921149E+02  0.36490138224E+02 -0.75622636886E+02  0.91644112768E+02  0.41800000000E+01 0. -1.
         -5    1    1    2    0  502  0.34553722907E+02 -0.20188780119E+02  0.21517712188E+02  0.45629277304E+02  0.41800000000E+01 0. -1.
        -11    1    3    3    0    0 -0.98431113227E+01  0.29579777510E+02 -0.10775600660E+03  0.11217489486E+03  0.00000000000E+00 0. -1.
         11    1    3    3    0    0  0.11770309564E+02 -0.45881135614E+02 -0.41502820872E+02  0.62977003206E+02  0.00000000000E+00 0.  1.
</event>
<event>
 7    1  0.4687179E-006  0.1341544E+03  0.7561462E-02  0.1221418E+00
          1   -1    0    0  501    0  0.00000000000E+00  0.00000000000E+00  0.96013011934E+03  0.96013011934E+03  0.00000000000E+00 0. -1.
         -1   -1    0    0    0  501 -0.00000000000E+00 -0.00000000000E+00 -0.27391026825E+02  0.27391026825E+02  0.00000000000E+00 0.  1.
         23    2    1    2    0    0  0.11942701584E+03 -0.72927137095E+00  0.43476646025E+03  0.46037031423E+03  0.93035516437E+02 0.  0.
          5    1    1    2  502    0 -0.11292989908E+03 -0.11070650344E+02  0.50015208614E+03  0.51287942353E+03  0.41800000000E+01 0. -1.
         -5    1    1    2    0  502 -0.64971167625E+01  0.11799921715E+02 -0.21794538765E+01  0.14271408406E+02  0.41800000000E+01 0. -1.
        -11    1    3    3    0    0  0.80405271555E+02 -0.35963278830E+02  0.34750712168E+03  0.35849625485E+03  0.00000000000E+00 0.  1.
         11    1    3    3    0    0  0.39021744287E+02  0.35234007459E+02  0.87259338567E+02  0.10187405939E+03  0.00000000000E+00 0. -1.
</event>
<event>
 7    1  0.4687179E-006  0.1103931E+03  0.7561462E-02  0.1259844E+00
          1   -1    0    0  501    0  0.00000000000E+00  0.00000000000E+00  0.12019580448E+03  0.12019580448E+03  0.00000000000E+00 0. -1.
         -1   -1    0    0    0  501 -0.00000000000E+00 -0.00000000000E+00 -0.14425380429E+03  0.14425380429E+03  0.00000000000E+00 0.  1.
         23    2    1    2    0    0  0.53809233988E+02  0.50272625599E+02  0.30013123476E+01  0.11679029949E+03  0.90599092883E+02 0.  0.
          5    1    1    2  502    0 -0.15926454178E+02 -0.85908212058E+02  0.28482955587E+01  0.87518329676E+02  0.41800000000E+01 0. -1.
         -5    1    1    2    0  502 -0.37882779810E+02  0.35635586459E+02 -0.29907607724E+02  0.60140979608E+02  0.41800000000E+01 0. -1.
        -11    1    3    3    0    0  0.43685507359E+02  0.17886532912E+02  0.43336302330E+02  0.64081094813E+02  0.00000000000E+00 0. -1.
         11    1    3    3    0    0  0.10123726628E+02  0.32386092687E+02 -0.40334989982E+02  0.52709204673E+02  0.00000000000E+00 0.  1.
</event>
<event>
 7    1  0.4687179E-006  0.1648319E+03  0.7561462E-02  0.1183347E+00
          2   -1    0    0  501    0  0.00000000000E+00  0.00000000000E+00  0.25831440359E+03  0.25831440359E+03  0.00000000000E+00 0. -1.
         -2   -1    0    0    0  501 -0.00000000000E+00 -0.00000000000E+00 -0.11784241412E+03  0.11784241412E+03  0.00000000000E+00 0.  1.
         23    2    1    2    0    0  0.56210293068E+02  0.12639252377E+03  0.75821241811E+02  0.17879085887E+03  0.84158442199E+02 0.  0.
          5    1    1    2  502    0 -0.31427305090E+02  0.13734636388E+02  0.40047748018E+02  0.52892440511E+02  0.41800000000E+01 0.  1.
         -5    1    1    2    0  502 -0.24782987978E+02 -0.14012716016E+03  0.24602999635E+02  0.14447351833E+03  0.41800000000E+01 0.  1.
        -11    1    3    3    0    0 -0.28268788443E+01  0.73287076418E+02  0.66204589524E+02  0.98803008497E+02  0.00000000000E+00 0. -1.
         11    1    3    3    0    0  0.59037171912E+02  0.53105447351E+02  0.96166522869E+01  0.79987850371E+02  0.00000000000E+00 0.  1.
</event>
<event>
 7    1  0.4687179E-006  0.6537461E+02  0.7561462E-02  0.1376568E+00
          1   -1    0    0  501    0  0.00000000000E+00  0.00000000000E+00  0.40173855003E+02  0.40173855003E+02  0.00000000000E+00 0. -1.
         -1   -1    0    0    0  501 -0.00000000000E+00 -0.00000000000E+00 -0.32733480048E+03  0.32733480048E+03  0.00000000000E+00 0.  1.
         23    2    1    2    0    0  0.73708861402E+01  0.25407597137E+02 -0.78527388127E+02  0.12281404261E+03  0.90646910713E+02 0.  0.
          5    1    1    2  502    0 -0.83395664527E+00  0.16214800850E+02  0.11626239378E+02  0.20402379576E+02  0.41800000000E+01 0. -1.
         -5    1    1    2    0  502 -0.65369294949E+01 -0.41622397987E+02 -0.22025979673E+03  0.22429223330E+03  0.41800000000E+01 0. -1.
        -11    1    3    3    0    0  0.12406943139E+02  0.47444077864E+02 -0.92006340326E+01  0.49895134322E+02  0.00000000000E+00 0. -1.
         11    1    3    3    0    0 -0.50360569990E+01 -0.22036480727E+02 -0.69326754094E+02  0.72918908290E+02  0.00000000000E+00 0.  1.
</event>
<event>
 7    1  0.4687179E-006  0.1117563E+03  0.7561462E-02  0.1257352E+00
          2   -1    0    0  501    0  0.00000000000E+00  0.00000000000E+00  0.32573914401E+03  0.32573914401E+03  0.00000000000E+00 0. -1.
         -2   -1    0    0    0  501 -0.00000000000E+00 -0.00000000000E+00 -0.63123247942E+02  0.63123247942E+02  0.00000000000E+00 0.  1.
         23    2    1    2    0    0  0.41030513237E+02 -0.52353202422E+02  0.21002900688E+03  0.23773736177E+03  0.89344885875E+02 0.  0.
          5    1    1    2  502    0  0.13720051376E+02  0.56736797963E+02  0.71942424928E+02  0.92738821199E+02  0.41800000000E+01 0. -1.
         -5    1    1    2    0  502 -0.54750564613E+02 -0.43835955408E+01 -0.19355535739E+02  0.58386208980E+02  0.41800000000E+01 0. -1.
        -11    1    3    3    0    0 -0.17752194819E+02 -0.47750717051E+02  0.78293796386E+02  0.93408725248E+02  0.00000000000E+00 0.  1.
         11    1    3    3    0    0  0.58782708055E+02 -0.46024853713E+01  0.13173521049E+03  0.14432863652E+03  0.00000000000E+00 0. -1.
</event>
<event>
 6    1  0.4687179E-006  0.7829241E+02  0.7561462E-02  0.1333968E+00
         -3   -1    0    0    0  501 -0.00000000000E+00  0.00000000000E+00  0.54759683880E+03  0.54759683880E+03  0.00000000000E+00 0.  1.
          3   -1    0    0  501    0  0.00000000000E+00 -0.00000000000E+00 -0.20668678657E+02  0.20668678657E+02  0.00000000000E+00 0. -1.
          5    1    1    2  502    0  0.31707009878E+02 -0.45188536837E+02  0.49169472752E+02  0.74043553316E+02  0.41800000000E+01 0.  1.
         -5    1    1    2    0  502  0.16691605758E+02  0.18553201408E+02  0.29821540805E+03  0.29928704113E+03  0.41800000000E+01 0.  1.
        -11    1    1    2    0    0 -0.49334484458E+02  0.66469244837E-01  0.11678061475E+03  0.12677384492E+03  0.00000000000E+00 0. -1.
         11    1    1    2    0    0  0.93586882204E+00  0.26568866185E+02  0.62762664592E+02  0.68161078098E+02  0.00000000000E+00 0.  1.
</event>
<event>
 7    1  0.4687179E-006  0.1813386E+03  0.7561462E-02  0.1166514E+00
          1   -1    0    0  501    0  0.00000000000E+00  0.00000000000E+00  0.69747791962E+02  0.69747791962E+02  0.00000000000E+00 0. -1.
         -1   -1    0    0    0  501 -0.00000000000E+00 -0.00000000000E+00 -0.65836284513E+03  0.65836284513E+03  0.00000000000E+00 0.  1.
         23    2    1    2    0    0  0.81161548547E+02 -0.14141680989E+03 -0.13682801974E+03  0.23178151417E+03  0.91732503752E+02 0.  0.
          5    1    1    2  502    0 -0.56383188365E+02  0.15802932009E+03 -0.32228246688E+03  0.36336729462E+03  0.41800000000E+01 0. -1.
         -5    1    1    2    0  502 -0.24778360182E+02 -0.16612510207E+02 -0.12950456654E+03  0.13296182830E+03  0.41800000000E+01 0. -1.
        -11    1    3    3    0    0  0.61777275448E+02 -0.85124633837E+02 -0.13640119537E+03  0.17224378406E+03  0.00000000000E+00 0.  1.
         11    1    3    3    0    0  0.19384273099E+02 -0.56292176049E+02 -0.42682436649E+00  0.59537730113E+02  0.00000000000E+00 0. -1.
</event>
<event>
 7    1  0.4687179E-006  0.6967290E+02  0.7561462E-02  0.1361209E+00
          1   -1    0    0  501    0  0.00000000000E+00  0.00000000000E+00  0.38071825903E+03  0.38071825903E+03  0.00000000000E+00 0. -1.
         -1   -1    0    0    0  501 -0.00000000000E+00 -0.00000000000E+00 -0.32778058257E+02  0.32778058257E+02  0.00000000000E+00 0.  1.
         23    2    1    2    0    0  0.13971788903E+02  0.15935649460E+02  0.12077777067E+03  0.15330448797E+03  0.92010001272E+02 0.  0.
          5    1    1    2  502    0 -0.30609187476E+02 -0.37143883856E+02  0.21760583279E+02  0.52986657288E+02  0.41800000000E+01 0.  1.
         -5    1    1    2    0  502  0.16637398573E+02  0.21208234396E+02  0.20540184682E+03  0.20720517203E+03  0.41800000000E+01 0.  1.
        -11    1    3    3    0    0 -0.20725202170E+02  0.20024955003E+02  0.11416600024E+03  0.11774722264E+03  0.00000000000E+00 0. -1.
         11    1    3    3    0    0  0.34696991074E+02 -0.40893055427E+01  0.66117704264E+01  0.35557265328E+02  0.00000000000E+00 0.  1.
</event>
<event>
 7    1  0.4687179E-006  0.1117206E+03  0.7561462E-02  0.1257416E+00
          1   -1    0    0  501    0  0.00000000000E+00  0.00000000000E+00  0.12268746779E+03  0.12268746779E+03  0.00000000000E+00 0. -1.
         -1   -1    0    0    0  501 -0.00000000000E+00 -0.00000000000E+00 -0.19422865281E+03  0.19422865281E+03  0.00000000000E+00 0.  1.
         23    2    1    2    0    0  0.92494341695E+02  0.29255017869E+02  0.18686023213E+02  0.13470923015E+03  0.91577016262E+02 0.  0.
          5    1    1    2  502    0 -0.27363063505E+00 -0.23314030836E+02 -0.86435913743E+02  0.89622868131E+02  0.41800000000E+01 0.  1.
         -5    1    1    2    0  502 -0.92220711060E+02 -0.59409870339E+01 -0.37912944959E+01  0.92584022322E+02  0.41800000000E+01 0.  1.
        -11    1    3    3    0    0  0.73454505508E+02  0.41734144348E+02  0.48332195424E+02  0.97330901046E+02  0.00000000000E+00 0. -1.
         11    1    3    3    0    0  0.19039836187E+02 -0.12479126479E+02 -0.29646172211E+02  0.37378329102E+02  0.00000000000E+00 0.  1.
</event>
<event>
 7    1  0.4687179E-006  0.1097685E+03  0.7561462E-02  0.1260999E+00
         -2   -1    0    0    0  501 -0.00000000000E+00  0.00000000000E+00  0.49881432578E+02  0.49881432578E+02  0.00000000000E+00 0.  1.
          2   -1    0    0  501    0  0.00000000000E+00 -0.00000000000E+00 -0.32254171304E+03  0.32254171304E+03  0.00000000000E+00 0. -1.
         23    2    1    2    0    0  0.58721060626E+02 -0.28124827487E+02 -0.14442943075E+03  0.18181851290E+03  0.89212904246E+02 0.  0.
          5    1    1    2  502    0  0.26719025193E+02 -0.87041011230E+00  0.70321672283E+01  0.27956889973E+02  0.41800000000E+01 0.  1.
         -5    1    1    2    0  502 -0.85440085820E+02  0.28995237599E+02 -0.13526301694E+03  0.16264774275E+03  0.41800000000E+01 0.  1.
        -11    1    3    3    0    0 -0.89116214663E+00  0.23367087386E+02 -0.88227576917E+01  0.24993118977E+02  0.00000000000E+00 0.  1.
         11    1    3    3    0    0  0.59612222773E+02 -0.51491914873E+02 -0.13560667305E+03  0.15682539392E+03  0.00000000000E+00 0. -1.
</event>
<event>
 7    1  0.4687179E-006  0.1040414E+03  0.7561462E-02  0.1272020E+00
          1   -1    0    0  501    0  0.00000000000E+00  0.00000000000E+00  0.82143563293E+02  0.82143563293E+02  0.00000000000E+00 0. -1.
         -1   -1    0    0    0  501 -0.00000000000E+00 -0.00000000000E+00 -0.19433447045E+03  0.19433447045E+03  0.00000000000E+00 0.  1.
         23    2    1    2    0    0 -0.18594593200E+02 -0.62450219869E+02 -0.34718948070E+02  0.11555764179E+03  0.88895300005E+02 0.  0.
          5    1    1    2  502    0  0.68529477232E+02  0.53033730569E+02 -0.31583970538E+02  0.92324890591E+02  0.41800000000E+01 0.  1.
         -5    1    1    2    0  502 -0.49934884032E+02  0.94164893003E+01 -0.45887988549E+02  0.68595501362E+02  0.41800000000E+01 0.  1.
        -11    1    3    3    0    0  0.64898979591E+01 -0.20081153020E+02 -0.57540138415E+02  0.61288163710E+02  0.00000000000E+00 0.  1.
         11    1    3    3    0    0 -0.25084491159E+02 -0.42369066849E+02  0.22821190345E+02  0.54269478080E+02  0.00000000000E+00 0. -1.
</event>
<event>
 7    1  0.4687179E-006  0.1076304E+03  0.7561462E-02  0.1265022E+00
          1   -1    0    0  501    0  0.00000000000E+00  0.00000000000E+00  0.45649970910E+02  0.45649970910E+02  0.00000000000E+00 0. -1.
         -1   -1    0    0    0  501 -0.00000000000E+00 -0.00000000000E+00 -0.29080194220E+03  0.29080194220E+03  0.00000000000E+00 0.  1.
         23    2    1    2    0    0 -0.11943243165E+02  0.33317367562E+02 -0.13627315001E+03  0.16686145071E+03  0.89552689972E+02 0.  0.
          5    1    1    2  502    0  0.60615349348E+02 -0.43883546710E+02 -0.87548109410E+02  0.11524812410E+03  0.41800000000E+01 0.  1.
         -5    1    1    2    0  502 -0.48672106183E+02  0.10566179148E+02 -0.21330711865E+02  0.54342338289E+02  0.41800000000E+01 0.  1.
        -11    1    3    3    0    0 -0.10828175836E+01 -0.28018927478E+02 -0.18388920096E+02  0.33531853114E+02  0.00000000000E+00 0. -1.
         11    1    3    3    0    0 -0.10860425581E+02  0.61336295040E+02 -0.11788422992E+03  0.13332959760E+03  0.00000000000E+00 0.  1.
</event>
<event>
 7    1  0.4687179E-006  0.3444414E+03  0.7561462E-02  0.1064920E+00
         -1   -1    0    0    0  501 -0.00000000000E+00  0.00000000000E+00  0.12818772657E+04  0.12818772657E+04  0.00000000000E+00 0.  1.
          1   -1    0    0  501    0  0.00000000000E+00 -0.00000000000E+00 -0.16615292581E+03  0.16615292581E+03  0.00000000000E+00 0. -1.
         23    2    1    2    0    0 -0.33838758867E+03 -0.21765588830E+02  0.92845049990E+02  0.36317605312E+03  0.91086449196E+02 0.  0.
          5    1    1    2  502    0  0.27894097449E+02 -0.84668485384E+01  0.24464946596E+03  0.24641550639E+03  0.41800000000E+01 0.  1.
         -5    1    1    2    0  502  0.31049349122E+03  0.30232437369E+02  0.77822982391E+03  0.83843863197E+03  0.41800000000E+01 0.  1.
        -11    1    3    3    0    0 -0.21107389667E+03 -0.50271586773E+02  0.32383613927E+02  0.21938122240E+03  0.00000000000E+00 0.  1.
         11    1    3    3    0    0 -0.12731369200E+03  0.28505997942E+02  0.60461436064E+02  0.14379483072E+03  0.00000000000E+00 0. -1.
</event>
<event>
 7    1  0.4687179E-006  0.8070226E+02  0.7561462E-02  0.1327070E+00
          1   -1    0    0  501    0  0.00000000000E+00  0.00000000000E+00  0.24226771258E+03  0.24226771258E+03  0.00000000000E+00 0. -1.
         -1   -1    0    0    0  501 -0.00000000000E+00 -0.00000000000E+00 -0.55483164035E+02  0.55483164035E+02  0.00000000000E+00 0.  1.
         23    2    1    2    0    0  0.40465245930E+01  0.84764714509E+01  0.13097574275E+03  0.16045759291E+03  0.92215882601E+02 0.  0.
          5    1    1    2  502    0  0.53518183976E+02 -0.18956582941E+02  0.88935169368E+00  0.56936907180E+02  0.41800000000E+01 0. -1.
         -5    1    1    2    0  502 -0.57564708569E+02  0.10480111490E+02  0.54919454097E+02  0.80356376522E+02  0.41800000000E+01 0. -1.
        -11    1    3    3    0    0 -0.17148161182E+02 -0.80447138551E+01 -0.67700370159E+01  0.20114926153E+02  0.00000000000E+00 0.  1.
         11    1    3    3    0    0  0.21194685775E+02  0.16521185306E+02  0.13774577977E+03  0.14034266676E+03  0.00000000000E+00 0. -1.
</event>
<event>
 7    1  0.4687179E-006  0.1099724E+03  0.7561462E-02  0.1260621E+00
          2   -1    0    0  501    0  0.00000000000E+00  0.00000000000E+00  0.28749300876E+03  0.28749300876E+03  0.00000000000E+00 0. -1.
         -2   -1    0    0    0  501 -0.00000000000E+00 -0.00000000000E+00 -0.13968659643E+03  0.13968659643E+03  0.00000000000E+00 0.  1.
         23    2    1    2    0    0 -0.31217650687E+02  0.41692556449E+02  0.24438419222E+03  0.26377577205E+03  0.84505701213E+02 0.  0.
          5    1    1    2  502    0  0.40795094712E+02  0.34418946953E+02 -0.27977516011E+02  0.60407925507E+02  0.41800000000E+01 0. -1.
         -5    1    1    2    0  502 -0.95774440245E+01 -0.76111503401E+02 -0.68600263879E+02  0.10299590763E+03  0.41800000000E+01 0.  1.
        -11    1    3    3    0    0  0.52307324228E+01 -0.18493183677E+02  0.11408434662E+03  0.11569181712E+03  0.00000000000E+00 0. -1.
         11    1    3    3    0    0 -0.36448383110E+02  0.60185740126E+02  0.13029984559E+03  0.14808395493E+03  0.00000000000E+00 0.  1.
</event>
<event>
 7    1  0.4687179E-006  0.1231635E+03  0.7561462E-02  0.1237968E+00
          2   -1    0    0  501    0  0.00000000000E+00  0.00000000000E+00  0.33269209141E+03  0.33269209141E+03  0.00000000000E+00 0.  1.
         -2   -1    0    0    0  501 -0.00000000000E+00 -0.00000000000E+00 -0.64617131915E+02  0.64617131915E+02  0.00000000000E+00 0. -1.
         23    2    1    2    0    0 -0.19652007877E+02  0.90509112297E+02  0.16720576315E+03  0.21182583881E+03  0.91292485642E+02 0.  0.
          5    1    1    2  502    0  0.40339374954E+02 -0.87031100009E+02  0.12211017159E+03  0.15533848186E+03  0.41800000000E+01 0.  1.
         -5    1    1    2    0  502 -0.20687367078E+02 -0.34780122882E+01 -0.21240975253E+02  0.30144902650E+02  0.41800000000E+01 0.  1.
        -11    1    3    3    0    0  0.25616785646E+02 -0.22390673707E+01  0.45393003837E+02  0.52170469874E+02  0.00000000000E+00 0.  1.
         11    1    3    3    0    0 -0.45268793523E+02  0.92748179668E+02  0.12181275932E+03  0.15965536894E+03  0.00000000000E+00 0. -1.
</event>
<event>
 7    1  0.7781332E-006  0.3905636E+03  0.7561462E-02  0.1047097E+00
          1   -1    0    0  501    0  0.00000000000E+00  0.00000000000E+00  0.31096961440E+03  0.31096961440E+03  0.00000000000E+00 0. -1.
         -1   -1    0    0    0  501 -0.00000000000E+00 -0.00000000000E+00 -0.61174750510E+03  0.61174750510E+03  0.00000000000E+00 0.  1.
         23    2    1    2    0    0 -0.61975152812E+02  0.37471041054E+03  0.37333571354E+02  0.39906133238E+03  0.11665050414E+03 0.  0.
          5    1    1    2  502    0 -0.74431036713E+01 -0.23599883316E+03 -0.25529535811E+03  0.34777009837E+03  0.41800000000E+01 0.  1.
         -5    1    1    2    0  502  0.69418256484E+02 -0.13871157738E+03 -0.82816103947E+02  0.17588568875E+03  0.41800000000E+01 0.  1.
        -11    1    3    3    0    0 -0.78969546279E+02  0.21235625150E+03 -0.16521524502E+02  0.22716585915E+03  0.00000000000E+00 0. -1.
         11    1    3    3    0    0  0.16994393466E+02  0.16235415904E+03  0.53855095856E+02  0.17189547323E+03  0.00000000000E+00 0.  1.
</event>
<event>
 7    1  0.4687179E-006  0.1644123E+03  0.7561462E-02  0.1183804E+00
         -4   -1    0    0    0  501 -0.00000000000E+00  0.00000000000E+00  0.13650815283E+03  0.13650815283E+03  0.00000000000E+00 0.  1.
          4   -1    0    0  501    0  0.00000000000E+00 -0.00000000000E+00 -0.27204032849E+03  0.27204032849E+03  0.00000000000E+00 0. -1.
         23    2    1    2    0    0 -0.13583546068E+03 -0.82054648973E+01 -0.15162756998E+03  0.22300661949E+03  0.90677617557E+02 0.  0.
          5    1    1    2  502    0  0.12998486680E+02  0.41315625001E+02  0.36289921738E+02  0.56660147767E+02  0.41800000000E+01 0.  1.
         -5    1    1    2    0  502  0.12283697400E+03 -0.33110160104E+02 -0.20194527413E+02  0.12888171407E+03  0.41800000000E+01 0.  1.
        -11    1    3    3    0    0 -0.13208977769E+03 -0.30375327552E+02 -0.14719126663E+03  0.20008907733E+03  0.00000000000E+00 0. -1.
         11    1    3    3    0    0 -0.37456829845E+01  0.22169862654E+02 -0.44363033508E+01  0.22917542158E+02  0.00000000000E+00 0.  1.
</event>
<event>
 7    1  0.4687179E-006  0.1152698E+03  0.7561462E-02  0.1251111E+00
          1   -1    0    0  501    0  0.00000000000E+00  0.00000000000E+00  0.19793921531E+03  0.19793921531E+03  0.00000000000E+00 0. -1.
         -1   -1    0    0    0  501 -0.00000000000E+00 -0.00000000000E+00 -0.80776613549E+02  0.80776613549E+02  0.00000000000E+00 0.  1.
         23    2    1    2    0    0 -0.60717549156E+02  0.12005246569E+02  0.73932881024E+02  0.13260866662E+03  0.91039776173E+02 0.  0.
          5    1    1    2  502    0  0.98600433662E+02 -0.18168963719E+02  0.25016782872E+02  0.10341889859E+03  0.41800000000E+01 0.  1.
         -5    1    1    2    0  502 -0.37882884506E+02  0.61637171504E+01  0.18212937870E+02  0.42688263650E+02  0.41800000000E+01 0.  1.
        -11    1    3    3    0    0 -0.12632809716E+02  0.35778656679E+02 -0.38338152203E+01  0.38136574233E+02  0.00000000000E+00 0.  1.
         11    1    3    3    0    0 -0.48084739439E+02 -0.23773410110E+02  0.77766696244E+02  0.94472092387E+02  0.00000000000E+00 0. -1.
</event>
<event>
 7    1  0.4687179E-006  0.1086288E+03  0.7561462E-02  0.1263130E+00
          2   -1    0    0  501    0  0.00000000000E+00  0.00000000000E+00  0.33050829721E+03  0.33050829721E+03  0.00000000000E+00 0.  1.
         -2   -1    0    0    0  501 -0.00000000000E+00 -0.00000000000E+00 -0.45604163026E+02  0.45604163026E+02  0.00000000000E+00 0. -1.
         23    2    1    2    0    0  0.24075828234E+02 -0.75425811625E+01  0.20369067783E+03  0.22485204457E+03  0.91825996731E+02 0.  0.
          5    1    1    2  502    0 -0.50859673107E+02  0.53560732779E+02  0.42751116509E+02  0.85443483117E+02  0.41800000000E+01 0. -1.
         -5    1    1    2    0  502  0.26783844873E+02 -0.46018151617E+02  0.38462339849E+02  0.65816932556E+02  0.41800000000E+01 0. -1.
        -11    1    3    3    0    0 -0.28949799570E+02 -0.20266209002E+02  0.11889667739E+03  0.12403721222E+03  0.00000000000E+00 0.  1.
         11    1    3    3    0    0  0.53025627804E+02  0.12723627840E+02  0.84794000441E+02  0.10081483234E+03  0.00000000000E+00 0. -1.
</event>
<event>
 7    1  0.4687179E-006  0.7898109E+02  0.7561462E-02  0.1331968E+00
         -1   -1    0    0    0  501 -0.00000000000E+00  0.00000000000E+00  0.46132626884E+03  0.46132626884E+03  0.00000000000E+00 0.  1.
          1   -1    0    0  501    0  0.00000000000E+00 -0.00000000000E+00 -0.36396954982E+02  0.36396954982E+02  0.00000000000E+00 0. -1.
         23    2    1    2    0    0  0.44539689327E+02 -0.21491393908E+02  0.80519538350E+02  0.12957403349E+03  0.88658728622E+02 0.  0.
          5    1    1    2  502    0 -0.60042880713E+02  0.34109332246E+02  0.92991491811E+02  0.11590290773E+03  0.41800000000E+01 0. -1.
         -5    1    1    2    0  502  0.15503191386E+02 -0.12617938338E+02  0.25141828370E+03  0.25224628260E+03  0.41800000000E+01 0.  1.
        -11    1    3    3    0    0  0.78922343079E+01  0.14806553245E+02 -0.14028914444E+02  0.21870798381E+02  0.00000000000E+00 0.  1.
         11    1    3    3    0    0  0.36647455019E+02 -0.36297947152E+02  0.94548452794E+02  0.10770323511E+03  0.00000000000E+00 0. -1.
</event>
<event>
 7    1  0.4687179E-006  0.8415656E+02  0.7561462E-02  0.1317653E+00
          2   -1    0    0  501    0  0.00000000000E+00  0.00000000000E+00  0.40506177928E+03  0.40506177928E+03  0.00000000000E+00 0. -1.
         -2   -1    0    0    0  501 -0.00000000000E+00 -0.00000000000E+00 -0.31854412774E+02  0.31854412774E+02  0.00000000000E+00 0.  1.
         23    2    1    2    0    0  0.27066190254E+02 -0.10994365388E+02  0.16173933113E+03  0.18948989914E+03  0.94304591168E+02 0.  0.
          5    1    1    2  502    0 -0.43573524725E+02 -0.16713755527E+02  0.20968356930E+03  0.21485500533E+03  0.41800000000E+01 0. -1.
         -5    1    1    2    0  502  0.16507334471E+02  0.27708120915E+02  0.17844660763E+01  0.32571287588E+02  0.41800000000E+01 0. -1.
        -11    1    3    3    0    0  0.21405959534E+02 -0.47443415129E+02  0.51410047498E+02  0.73157950534E+02  0.00000000000E+00 0.  1.
         11    1    3    3    0    0  0.56602307205E+01  0.36449049741E+02  0.11032928363E+03  0.11633194860E+03  0.00000000000E+00 0. -1.
</event>
<event>
 7    1  0.7913035E-006  0.2616976E+03  0.7561462E-02  0.1106128E+00
          2   -1    0    0  501    0  0.00000000000E+00  0.00000000000E+00  0.16493869711E+04  0.16493869711E+04  0.00000000000E+00 0. -1.
         -2   -1    0    0    0  501 -0.00000000000E+00 -0.00000000000E+00 -0.50915289817E+02  0.50915289817E+02  0.00000000000E+00 0.  1.
         23    2    1    2    0    0  0.10846055081E+03  0.22528434162E+03  0.10683618646E+04  0.11009856566E+04  0.90860424518E+02 0.  0.
          5    1    1    2  502    0 -0.11756377701E+03 -0.19376752167E+03  0.35563619275E+03  0.42173649132E+03  0.41800000000E+01 0.  1.
         -5    1    1    2    0  502  0.91032261991E+01 -0.31516819949E+02  0.17447362402E+03  0.17758011304E+03  0.41800000000E+01 0.  1.
        -11    1    3    3    0    0  0.12270528279E+02  0.12157637870E+03  0.42247065165E+03  0.43978725905E+03  0.00000000000E+00 0.  1.
         11    1    3    3    0    0  0.96190022535E+02  0.10370796292E+03  0.64589121291E+03  0.66119839755E+03  0.00000000000E+00 0. -1.
</event>
<event>
 7    1  0.4687179E-006  0.1280878E+03  0.7561462E-02  0.1230321E+00
         -1   -1    0    0    0  501 -0.00000000000E+00  0.00000000000E+00  0.36382294326E+03  0.36382294326E+03  0.00000000000E+00 0.  1.
          1   -1    0    0  501    0  0.00000000000E+00 -0.00000000000E+00 -0.88144947165E+02  0.88144947165E+02  0.00000000000E+00 0. -1.
         23    2    1    2    0    0  0.97992979443E+02 -0.46566744969E+02  0.15010878922E+02  0.14314473135E+03  0.92162909409E+02 0.  0.
          5    1    1    2  502    0 -0.52738106549E+02  0.76682276856E+02  0.89514382739E+02  0.12919665856E+03  0.41800000000E+01 0.  1.
         -5    1    1    2    0  502 -0.45254872894E+02 -0.30115531887E+02  0.17115273443E+03  0.17962650051E+03  0.41800000000E+01 0.  1.
        -11    1    3    3    0    0  0.64693956441E+02 -0.30804671428E+02 -0.36025713604E+02  0.80200298144E+02  0.00000000000E+00 0. -1.
         11    1    3    3    0    0  0.33299023002E+02 -0.15762073541E+02  0.51036592526E+02  0.62944433208E+02  0.00000000000E+00 0.  1.
</event>
<event>
 7    1  0.4687179E-006  0.1024940E+03  0.7561462E-02  0.1275137E+00
          2   -1    0    0  501    0  0.00000000000E+00  0.00000000000E+00  0.34923809245E+03  0.34923809245E+03  0.00000000000E+00 0. -1.
         -2   -1    0    0    0  501 -0.00000000000E+00 -0.00000000000E+00 -0.52980983679E+02  0.52980983679E+02  0.00000000000E+00 0.  1.
         23    2    1    2    0    0  0.44903204930E+02 -0.40454922962E+01  0.23619220963E+03  0.25631636260E+03  0.88761782459E+02 0.  0.
          5    1    1    2  502    0  0.25167707801E+02 -0.19078103066E+02  0.64422018873E+02  0.71868327156E+02  0.41800000000E+01 0. -1.
         -5    1    1    2    0  502 -0.70070912731E+02  0.23123595362E+02 -0.43571197326E+01  0.74034386374E+02  0.41800000000E+01 0. -1.
        -11    1    3    3    0    0  0.24500159320E+02  0.42133814845E+02  0.12646475115E+03  0.13553172855E+03  0.00000000000E+00 0. -1.
         11    1    3    3    0    0  0.20403045609E+02 -0.46179307141E+02  0.10972745848E+03  0.12078463405E+03  0.00000000000E+00 0.  1.
</event>
<event>
 7    1  0.4687179E-006  0.1312261E+03  0.7561462E-02  0.1225648E+00
          3   -1    0    0  501    0  0.00000000000E+00  0.00000000000E+00  0.30480249975E+03  0.30480249975E+03  0.00000000000E+00 0. -1.
         -3   -1    0    0    0  501 -0.00000000000E+00 -0.00000000000E+00 -0.73007736832E+02  0.73007736832E+02  0.00000000000E+00 0.  1.
         23    2    1    2    0    0 -0.49391532365E+02 -0.88591367427E+02  0.11069578064E+03  0.17631596834E+03  0.92443555680E+02 0.  0.
          5    1    1    2  502    0  0.83411409892E+02  0.22668933335E+02  0.70208847550E+02  0.11143652235E+03  0.41800000000E+01 0.  1.
         -5    1    1    2    0  502 -0.34019877527E+02  0.65922434091E+02  0.50890134724E+02  0.90057745895E+02  0.41800000000E+01 0.  1.
        -11    1    3    3    0    0 -0.30128949761E+02 -0.59982610941E+02  0.12264761643E+03  0.13981453803E+03  0.00000000000E+00 0. -1.
         11    1    3    3    0    0 -0.19262582605E+02 -0.28608756486E+02 -0.11951835781E+02  0.36501430311E+02  0.00000000000E+00 0.  1.
</event>
<event>
 7    1  0.4687179E-006  0.2630892E+03  0.7561462E-02  0.1105301E+00
         -1   -1    0    0    0  501 -0.00000000000E+00  0.00000000000E+00  0.15234689118E+03  0.15234689118E+03  0.00000000000E+00 0.  1.
          1   -1    0    0  501    0  0.00000000000E+00 -0.00000000000E+00 -0.49416913022E+03  0.49416913022E+03  0.00000000000E+00 0. -1.
         23    2    1    2    0    0 -0.10856003993E+03  0.22682367108E+03 -0.15718762527E+03  0.31040391719E+03  0.91697231321E+02 0.  0.
          5    1    1    2  502    0 -0.81339520385E+01 -0.24462050555E+02  0.13838746160E+02  0.29555649010E+02  0.41800000000E+01 0.  1.
         -5    1    1    2    0  502  0.11669399197E+03 -0.20236162053E+03 -0.19847335993E+03  0.30655645521E+03  0.41800000000E+01 0.  1.
        -11    1    3    3    0    0 -0.16066333471E+02  0.13549231987E+03 -0.65602839964E+02  0.15139362082E+03  0.00000000000E+00 0. -1.
         11    1    3    3    0    0 -0.92493706460E+02  0.91331351215E+02 -0.91584785309E+02  0.15901029636E+03  0.00000000000E+00 0.  1.
</event>
<event>
 6    1  0.4687179E-006  0.3358955E+03  0.7561462E-02  0.1068558E+00
         -2   -1    0    0    0  501 -0.00000000000E+00  0.00000000000E+00  0.59299221682E+03  0.59299221682E+03  0.00000000000E+00 0.  1.
          2   -1    0    0  501    0  0.00000000000E+00 -0.00000000000E+00 -0.31965170743E+03  0.31965170743E+03  0.00000000000E+00 0. -1.
          5    1    1    2  502    0 -0.61552405766E+02 -0.14705412654E+02  0.99336699511E+02  0.11785669301E+03  0.41800000000E+01 0. -1.
         -5    1    1    2    0  502  0.20781934173E+03  0.21073240930E+03  0.32825602473E+03  0.44200284761E+03  0.41800000000E+01 0.  1.
        -11    1    1    2    0    0  0.11893052586E+02 -0.14600594726E+03 -0.41651153718E+02  0.15229576469E+03  0.00000000000E+00 0.  1.
         11    1    1    2    0    0 -0.15815998855E+03 -0.50021049384E+02 -0.11260106113E+03  0.20048861894E+03  0.00000000000E+00 0. -1.
</event>
<event>
 7    1  0.4687179E-006  0.1235711E+03  0.7561462E-02  0.1237319E+00
         -1   -1    0    0    0  501 -0.00000000000E+00  0.00000000000E+00  0.37721578201E+02  0.37721578201E+02  0.00000000000E+00 0.  1.
          1   -1    0    0  501    0  0.00000000000E+00 -0.00000000000E+00 -0.44321409846E+03  0.44321409846E+03  0.00000000000E+00 0. -1.
         23    2    1    2    0    0  0.40174506061E+02 -0.46382197572E+02 -0.22979284558E+03  0.25433519122E+03  0.90090723294E+02 0.  0.
          5    1    1    2  502    0  0.14957784040E+02 -0.38515938793E+02 -0.57353888020E+02  0.70810689274E+02  0.41800000000E+01 0. -1.
         -5    1    1    2    0  502 -0.55132290101E+02  0.84898136365E+02 -0.11834578665E+03  0.15578979616E+03  0.41800000000E+01 0.  1.
        -11    1    3    3    0    0 -0.25279232189E+02 -0.22997077591E+01 -0.93102108449E+02  0.96500418826E+02  0.00000000000E+00 0.  1.
         11    1    3    3    0    0  0.65453738250E+02 -0.44082489813E+02 -0.13669073713E+03  0.15783477240E+03  0.00000000000E+00 0. -1.
</event>
<event>
 7    1  0.4687179E-006  0.1307562E+03  0.7561462E-02  0.1226338E+00
          2   -1    0    0  501    0  0.00000000000E+00  0.00000000000E+00  0.65688299602E+02  0.65688299602E+02  0.00000000000E+00 0. -1.
         -2   -1    0    0    0  501 -0.00000000000E+00 -0.00000000000E+00 -0.65157064101E+03  0.65157064101E+03  0.00000000000E+00 0.  1.
         23    2    1    2    0    0  0.51551670665E+02  0.87361183437E+02 -0.66646209605E+02  0.17362624088E+03  0.12415636571E+03 0.  0.
          5    1    1    2  502    0 -0.30104308715E+02 -0.48366368103E+02 -0.48223263261E+03  0.48560411790E+03  0.41800000000E+01 0.  1.
         -5    1    1    2    0  502 -0.21447361950E+02 -0.38994815334E+02 -0.37003499193E+02  0.58028581837E+02  0.41800000000E+01 0.  1.
        -11    1    3    3    0    0  0.66965306957E+02 -0.39547230294E+01 -0.20411397010E+02  0.70118594524E+02  0.00000000000E+00 0.  1.
         11    1    3    3    0    0 -0.15413636292E+02  0.91315906467E+02 -0.46234812595E+02  0.10350764635E+03  0.00000000000E+00 0. -1.
</event>
<event>
 7    1  0.4687179E-006  0.1114656E+03  0.7561462E-02  0.1257880E+00
         -1   -1    0    0    0  501 -0.00000000000E+00  0.00000000000E+00  0.37620143285E+02  0.37620143285E+02  0.00000000000E+00 0.  1.
          1   -1    0    0  501    0  0.00000000000E+00 -0.00000000000E+00 -0.40209597074E+03  0.40209597074E+03  0.00000000000E+00 0. -1.
         23    2    1    2    0    0 -0.30620312350E+02  0.32509033299E+02 -0.22050609224E+03  0.24383640440E+03  0.94014970188E+02 0.  0.
          5    1    1    2  502    0  0.74070448114E+02 -0.25834938603E+02 -0.12540285942E+03  0.14797710933E+03  0.41800000000E+01 0. -1.
         -5    1    1    2    0  502 -0.43450135764E+02 -0.66740946962E+01 -0.18566875794E+02  0.47902600292E+02  0.41800000000E+01 0. -1.
        -11    1    3    3    0    0  0.29967136141E+02 -0.27870109481E+01 -0.39038603494E+02  0.49293095269E+02  0.00000000000E+00 0.  1.
         11    1    3    3    0    0 -0.60587448491E+02  0.35296044247E+02 -0.18146748875E+03  0.19454330913E+03  0.00000000000E+00 0. -1.
</event>
<event>
 7    1  0.4687179E-006  0.8690879E+02  0.7561462E-02  0.1310515E+00
         -1   -1    0    0    0  501 -0.00000000000E+00  0.00000000000E+00  0.77855812471E+02  0.77855812471E+02  0.00000000000E+00 0.  1.
          1   -1    0    0  501    0  0.00000000000E+00 -0.00000000000E+00 -0.24311314412E+03  0.24311314412E+03  0.00000000000E+00 0. -1.
         23    2    1    2    0    0  0.35961580578E+02 -0.69971506525E+01 -0.16226537300E+03  0.19058883561E+03  0.93015362115E+02 0.  0.
          5    1    1    2  502    0 -0.60446786443E+02  0.17397478241E+01  0.45399374055E+02  0.75732531176E+02  0.41800000000E+01 0. -1.
         -5    1    1    2    0  502  0.24485205865E+02  0.52574028284E+01 -0.48391332698E+02  0.54647589801E+02  0.41800000000E+01 0. -1.
        -11    1    3    3    0    0  0.12234211457E+02 -0.42992664484E+02 -0.36722480601E+02  0.57849682029E+02  0.00000000000E+00 0. -1.
         11    1    3    3    0    0  0.23727369121E+02  0.35995513831E+02 -0.12554289240E+03  0.13273915358E+03  0.00000000000E+00 0.  1.
</event>
<event>
 7    1  0.4687179E-006  0.1056088E+03  0.7561462E-02  0.1268925E+00
         -2   -1    0    0    0  501 -0.00000000000E+00  0.00000000000E+00  0.42433728305E+03  0.42433728305E+03  0.00000000000E+00 0.  1.
          2   -1    0    0  501    0  0.00000000000E+00 -0.00000000000E+00 -0.34440482194E+02  0.34440482194E+02  0.00000000000E+00 0. -1.
         23    2    1    2    0    0  0.26563274949E+02 -0.44709412856E+02  0.14942591993E+03  0.18277190583E+03  0.91503687574E+02 0.  0.
          5    1    1    2  502    0  0.41725932172E+02 -0.12350540544E+02  0.10644485162E+03  0.11507201268E+03  0.41800000000E+01 0. -1.
         -5    1    1    2    0  502 -0.68289207121E+02  0.57059953399E+02  0.13402602930E+03  0.16093384672E+03  0.41800000000E+01 0. -1.
        -11    1    3    3    0    0 -0.21712883437E+01 -0.49271270882E+02  0.25587355938E+02  0.55561546156E+02  0.00000000000E+00 0. -1.
         11    1    3    3    0    0  0.28734563293E+02  0.45618580263E+01  0.12383856400E+03  0.12721035968E+03  0.00000000000E+00 0.  1.
</event>
<event>
 7    1  0.4687179E-006  0.2217579E+03  0.7561462E-02  0.1132579E+00
          2   -1    0    0  501    0  0.00000000000E+00  0.00000000000E+00  0.22505560710E+03  0.22505560710E+03  0.00000000000E+00 0. -1.
         -2   -1    0    0    0  501 -0.00000000000E+00 -0.00000000000E+00 -0.29380758765E+03  0.29380758765E+03  0.00000000000E+00 0.  1.
         23    2    1    2    0    0 -0.13447109352E+03  0.15015262624E+03  0.84107483347E+02  0.23665411495E+03  0.91119784932E+02 0.  0.
          5    1    1    2  502    0  0.13732732504E+03 -0.16593663602E+03 -0.15513561988E+03  0.26547748366E+03  0.41800000000E+01 0. -1.
         -5    1    1    2    0  502 -0.28562315162E+01  0.15784009775E+02  0.22761559849E+01  0.16731596132E+02  0.41800000000E+01 0. -1.
        -11    1    3    3    0    0 -0.13282331858E+03  0.11319873227E+03  0.39913765697E+02  0.17902261209E+03  0.00000000000E+00 0.  1.
         11    1    3    3    0    0 -0.16477749394E+01  0.36953893972E+02  0.44193717650E+02  0.57631502858E+02  0.00000000000E+00 0. -1.
</event>
<event>
 7    1  0.4687179E-006  0.1596528E+03  0.7561462E-02  0.1189089E+00
          1   -1    0    0  501    0  0.00000000000E+00  0.00000000000E+00  0.16665531031E+04  0.16665531031E+04  0.00000000000E+00 0. -1.
         -1   -1    0    0    0  501 -0.00000000000E+00 -0.00000000000E+00 -0.19190949341E+02  0.19190949341E+02  0.00000000000E+00 0.  1.
         23    2    1    2    0    0 -0.10810337150E+03 -0.81191041940E+02  0.58559972166E+03  0.60812379757E+03  0.92785747512E+02 0.  0.
          5    1    1    2  502    0  0.13511463144E+03  0.79118042911E+02  0.91842567480E+03  0.93168600981E+03  0.41800000000E+01 0. -1.
         -5    1    1    2    0  502 -0.27011259940E+02  0.20729990290E+01  0.14333675733E+03  0.14593424509E+03  0.41800000000E+01 0. -1.
        -11    1    3    3    0    0 -0.26210151768E+02 -0.21990471455E+02  0.37399665110E+02  0.50688143001E+02  0.00000000000E+00 0.  1.
         11    1    3    3    0    0 -0.81893219736E+02 -0.59200570485E+02  0.54820005655E+03  0.55743565457E+03  0.00000000000E+00 0. -1.
</event>
<event>
 7    1  0.4687179E-006  0.9449014E+02  0.7561462E-02  0.1292329E+00
         -2   -1    0    0    0  501 -0.00000000000E+00  0.00000000000E+00  0.78937611855E+02  0.78937611855E+02  0.00000000000E+00 0.  1.
          2   -1    0    0  501    0  0.00000000000E+00 -0.00000000000E+00 -0.26960752241E+03  0.26960752241E+03  0.00000000000E+00 0. -1.
         23    2    1    2    0    0  0.50309766800E+02  0.32321508551E+02 -0.17868514629E+03  0.20938303796E+03  0.91307844836E+02 0.  0.
          5    1    1    2  502    0 -0.87000396921E+02 -0.20957874981E+02  0.16585923647E+02  0.91109093133E+02  0.41800000000E+01 0.  1.
         -5    1    1    2    0  502  0.36690630121E+02 -0.11363633570E+02 -0.28570687917E+02  0.48053003181E+02  0.41800000000E+01 0.  1.
        -11    1    3    3    0    0  0.15034374435E+02  0.41054264298E+01  0.78543117339E+01  0.17452138941E+02  0.00000000000E+00 0.  1.
         11    1    3    3    0    0  0.35275392365E+02  0.28216082121E+02 -0.18653945802E+03  0.19193089901E+03  0.00000000000E+00 0. -1.
</event>
<event>
 7    1  0.4687179E-006  0.9473509E+02  0.7561462E-02  0.1291774E+00
          2   -1    0    0  501    0  0.00000000000E+00  0.00000000000E+00  0.29363487885E+03  0.29363487885E+03  0.00000000000E+00 0. -1.
         -2   -1    0    0    0  501 -0.00000000000E+00 -0.00000000000E+00 -0.58191989119E+02  0.58191989119E+02  0.00000000000E+00 0.  1.
         23    2    1    2    0    0  0.21593887215E+02  0.68073731598E+02  0.10623789919E+03  0.15833209789E+03  0.93178501273E+02 0.  0.
          5    1    1    2  502    0  0.84472612499E+01 -0.13436011019E+02  0.12996619486E+03  0.13099834663E+03  0.41800000000E+01 0. -1.
         -5    1    1    2    0  502 -0.30041148465E+02 -0.54637720579E+02 -0.76120431870E+00  0.62496423443E+02  0.41800000000E+01 0. -1.
        -11    1    3    3    0    0 -0.25727882750E+02  0.56152785416E+02  0.32193099233E+02  0.69652386169E+02  0.00000000000E+00 0.  1.
         11    1    3    3    0    0  0.47321769965E+02  0.11920946182E+02  0.74044799955E+02  0.88679711721E+02  0.00000000000E+00 0. -1.
</event>
<event>
 7    1  0.4687179E-006  0.2303238E+03  0.7561462E-02  0.1126412E+00
         -2   -1    0    0    0  501 -0.00000000000E+00  0.00000000000E+00  0.27704343949E+03  0.27704343949E+03  0.00000000000E+00 0.  1.
          2   -1    0    0  501    0  0.00000000000E+00 -0.00000000000E+00 -0.22238337594E+03  0.22238337594E+03  0.00000000000E+00 0. -1.
         23    2    1    2    0    0  0.73090252205E+02 -0.19330318126E+03 -0.57107744111E+02  0.23325446629E+03  0.91858841447E+02 0.  0.
          5    1    1    2  502    0 -0.63739885242E+02  0.22007790171E+02  0.48965770257E+02  0.83440007525E+02  0.41800000000E+01 0. -1.
         -5    1    1    2    0  502 -0.93503669628E+01  0.17129539109E+03  0.62802037413E+02  0.18273234162E+03  0.41800000000E+01 0. -1.
        -11    1    3    3    0    0  0.90581211036E+02 -0.15961475361E+03 -0.64600178069E+02  0.19456363578E+03  0.00000000000E+00 0. -1.
         11    1    3    3    0    0 -0.17490958831E+02 -0.33688427653E+02  0.74924339574E+01  0.38690830505E+02  0.00000000000E+00 0.  1.
</event>
<event>
 7    1  0.4687179E-006  0.3430991E+03  0.7561462E-02  0.1065484E+00
          3   -1    0    0  501    0  0.00000000000E+00  0.00000000000E+00  0.13900959552E+03  0.13900959552E+03  0.00000000000E+00 0. -1.
         -3   -1    0    0    0  501 -0.00000000000E+00 -0.00000000000E+00 -0.86053736730E+03  0.86053736730E+03  0.00000000000E+00 0.  1.
         23    2    1    2    0    0  0.87306450871E+02 -0.31707458015E+03 -0.35948752337E+03  0.49469059599E+03  0.85608414052E+02 0.  0.
          5    1    1    2  502    0 -0.72851887612E+02  0.70469791008E+02 -0.75162416501E+02  0.12625470378E+03  0.41800000000E+01 0. -1.
         -5    1    1    2    0  502 -0.14454563260E+02  0.24660478914E+03 -0.28687783191E+03  0.37860166305E+03  0.41800000000E+01 0. -1.
        -11    1    3    3    0    0  0.61659006236E+02 -0.89545377985E+02 -0.14248637297E+03  0.17922771619E+03  0.00000000000E+00 0.  1.
         11    1    3    3    0    0  0.25647444636E+02 -0.22752920217E+03 -0.21700115041E+03  0.31546287980E+03  0.00000000000E+00 0. -1.
</event>
<event>
 7    1  0.4687179E-006  0.7441262E+02  0.7561462E-02  0.1345700E+00
          1   -1    0    0  501    0  0.00000000000E+00  0.00000000000E+00  0.94439322774E+02  0.94439322774E+02  0.00000000000E+00 0. -1.
         -1   -1    0    0    0  501 -0.00000000000E+00 -0.00000000000E+00 -0.18442353458E+03  0.18442353458E+03  0.00000000000E+00 0.  1.
         23    2    1    2    0    0  0.34332357610E+02 -0.84300930316E+01  0.29844558730E+02  0.10207295734E+03  0.90985788373E+02 0.  0.
          5    1    1    2  502    0 -0.53117106066E+02  0.18431542950E+02 -0.13763115729E+03  0.14873115541E+03  0.41800000000E+01 0. -1.
         -5    1    1    2    0  502  0.18784748456E+02 -0.10001449918E+02  0.17802386752E+02  0.28058744610E+02  0.41800000000E+01 0. -1.
        -11    1    3    3    0    0 -0.12973505872E+00  0.23664919966E+02 -0.21803634149E+02  0.32178311489E+02  0.00000000000E+00 0.  1.
         11    1    3    3    0    0  0.34462092669E+02 -0.32095012997E+02  0.51648192879E+02  0.69894645847E+02  0.00000000000E+00 0. -1.
</event>
<event>
 7    1  0.4687179E-006  0.1030931E+03  0.7561462E-02  0.1273923E+00
          3   -1    0    0  501    0  0.00000000000E+00  0.00000000000E+00  0.17015078450E+03  0.17015078450E+03  0.00000000000E+00 0. -1.
         -3   -1    0    0    0  501 -0.00000000000E+00 -0.00000000000E+00 -0.11092099294E+03  0.11092099294E+03  0.00000000000E+00 0.  1.
         23    2    1    2    0    0 -0.13539065938E+02  0.82019575242E+02  0.38678041373E+02  0.12947760683E+03  0.91421784911E+02 0.  0.
          5    1    1    2  502    0  0.88798496502E+01 -0.27869109977E+02  0.71260998200E+02  0.77143640601E+02  0.41800000000E+01 0. -1.
         -5    1    1    2    0  502  0.46592162877E+01 -0.54150465265E+02 -0.50709248018E+02  0.74450530014E+02  0.41800000000E+01 0. -1.
        -11    1    3    3    0    0 -0.29281054086E+02  0.96435484723E+02  0.39168364176E+02  0.10812651661E+03  0.00000000000E+00 0. -1.
         11    1    3    3    0    0  0.15741988148E+02 -0.14415909481E+02 -0.49032280303E+00  0.21351090218E+02  0.00000000000E+00 0.  1.
</event>
<event>
 7    1  0.4687179E-006  0.1126284E+03  0.7561462E-02  0.1255779E+00
         -1   -1    0    0    0  501 -0.00000000000E+00  0.00000000000E+00  0.42044390977E+02  0.42044390977E+02  0.00000000000E+00 0.  1.
          1   -1    0    0  501    0  0.00000000000E+00 -0.00000000000E+00 -0.50416137579E+03  0.50416137579E+03  0.00000000000E+00 0. -1.
         23    2    1    2    0    0 -0.10065532153E+02  0.71961448317E+02 -0.33293148666E+03  0.35225797280E+03  0.89233063455E+02 0.  0.
          5    1    1    2  502    0 -0.32107192513E+02 -0.78257598753E+01 -0.10969744680E+03  0.11464343227E+03  0.41800000000E+01 0.  1.
         -5    1    1    2    0  502  0.42172724665E+02 -0.64135688441E+02 -0.19488051355E+02  0.79304361691E+02  0.41800000000E+01 0.  1.
        -11    1    3    3    0    0  0.35661742938E+02  0.81695781640E+01 -0.10670004674E+03  0.11279805801E+03  0.00000000000E+00 0.  1.
         11    1    3    3    0    0 -0.45727275091E+02  0.63791870153E+02 -0.22623143992E+03  0.23945991479E+03  0.00000000000E+00 0. -1.
</event>
<event>
 7    1  0.4687179E-006  0.8581443E+02  0.7561462E-02  0.1313316E+00
          1   -1    0    0  501    0  0.00000000000E+00  0.00000000000E+00  0.86787129320E+03  0.86787129320E+03  0.00000000000E+00 0. -1.
         -1   -1    0    0    0  501 -0.00000000000E+00 -0.00000000000E+00 -0.15113040679E+02  0.15113040679E+02  0.00000000000E+00 0.  1.
         23    2    1    2    0    0  0.28123849647E+02 -0.27133715725E+02  0.39487330215E+03  0.40671236569E+03  0.89234714123E+02 0.  0.
          5    1    1    2  502    0 -0.32578295739E+02  0.46707310163E+02  0.45106228196E+03  0.45466204238E+03  0.41800000000E+01 0.  1.
         -5    1    1    2    0  502  0.44544460924E+01 -0.19573594438E+02  0.68226684116E+01  0.21609925809E+02  0.41800000000E+01 0.  1.
        -11    1    3    3    0    0  0.12417205379E+02 -0.58041385108E+02  0.29718573761E+03  0.30305503132E+03  0.00000000000E+00 0. -1.
         11    1    3    3    0    0  0.15706644268E+02  0.30907669382E+02  0.97687564542E+02  0.10365733436E+03  0.00000000000E+00 0.  1.
</event>
<event>
 7    1  0.4687179E-006  0.9994171E+02  0.7561462E-02  0.1280419E+00
         -2   -1    0    0    0  501 -0.00000000000E+00  0.00000000000E+00  0.76937669048E+03  0.76937669048E+03  0.00000000000E+00 0.  1.
          2   -1    0    0  501    0  0.00000000000E+00 -0.00000000000E+00 -0.21095525266E+02  0.21095525266E+02  0.00000000000E+00 0. -1.
         23    2    1    2    0    0 -0.20752619571E+02  0.99360361355E+01  0.14474904323E+03  0.17368363392E+03  0.93189715852E+02 0.  0.
          5    1    1    2  502    0 -0.38939814803E+02  0.18253998066E+02  0.10007238677E+03  0.10900216794E+03  0.41800000000E+01 0.  1.
         -5    1    1    2    0  502  0.59692434373E+02 -0.28190034202E+02  0.50345973521E+03  0.50778641389E+03  0.41800000000E+01 0.  1.
        -11    1    3    3    0    0 -0.47202599701E+02  0.31207498305E+02  0.11653249301E+03  0.12954464595E+03  0.00000000000E+00 0.  1.
         11    1    3    3    0    0  0.26449980130E+02 -0.21271462170E+02  0.28216550227E+02  0.44138987963E+02  0.00000000000E+00 0. -1.
</event>
<event>
 7    1  0.4687179E-006  0.2517437E+03  0.7561462E-02  0.1112208E+00
         -2   -1    0    0    0  501 -0.00000000000E+00  0.00000000000E+00  0.95732897043E+03  0.95732897043E+03  0.00000000000E+00 0.  1.
          2   -1    0    0  501    0  0.00000000000E+00 -0.00000000000E+00 -0.96310753417E+02  0.96310753417E+02  0.00000000000E+00 0. -1.
         23    2    1    2    0    0 -0.11352127336E+03  0.20602223549E+03  0.14832856247E+03  0.29278098296E+03  0.91581114396E+02 0.  0.
          5    1    1    2  502    0 -0.26288888501E+02 -0.21190610526E+02  0.10959301207E+03  0.11475298831E+03  0.41800000000E+01 0.  1.
         -5    1    1    2    0  502  0.13981016186E+03 -0.18483162497E+03  0.60309664248E+03  0.64610575258E+03  0.41800000000E+01 0.  1.
        -11    1    3    3    0    0 -0.71877906020E+02  0.95220634751E+02  0.25108309009E+02  0.12191730737E+03  0.00000000000E+00 0.  1.
         11    1    3    3    0    0 -0.41643367339E+02  0.11080160074E+03  0.12322025346E+03  0.17086367558E+03  0.00000000000E+00 0. -1.
</event>
<event>
 7    1  0.4687179E-006  0.2732404E+03  0.7561462E-02  0.1099439E+00
          2   -1    0    0  501    0  0.00000000000E+00  0.00000000000E+00  0.46548102682E+03  0.46548102682E+03  0.00000000000E+00 0. -1.
         -2   -1    0    0    0  501 -0.00000000000E+00 -0.00000000000E+00 -0.16439767151E+03  0.16439767151E+03  0.00000000000E+00 0.  1.
         23    2    1    2    0    0  0.53911170798E+02  0.24714634043E+03  0.12416961094E+03  0.29681067978E+03  0.93224242674E+02 0.  0.
          5    1    1    2  502    0 -0.87045134608E+02 -0.20750789181E+03  0.16710178590E+03  0.28031564329E+03  0.41800000000E+01 0.  1.
         -5    1    1    2    0  502  0.33133963810E+02 -0.39638448619E+02  0.98119584638E+01  0.52752375260E+02  0.41800000000E+01 0.  1.
        -11    1    3    3    0    0 -0.11485394242E+02  0.16109335367E+03  0.73527140014E+02  0.17745203069E+03  0.00000000000E+00 0. -1.
         11    1    3    3    0    0  0.65396565041E+02  0.86052986758E+02  0.50642470928E+02  0.11935864908E+03  0.00000000000E+00 0.  1.
</event>
<event>
 7    1  0.4687179E-006  0.1177328E+03  0.7561462E-02  0.1246885E+00
          2   -1    0    0  501    0  0.00000000000E+00  0.00000000000E+00  0.45802119195E+03  0.45802119195E+03  0.00000000000E+00 0. -1.
         -2   -1    0    0    0  501 -0.00000000000E+00 -0.00000000000E+00 -0.44126431946E+02  0.44126431946E+02  0.00000000000E+00 0.  1.
         23    2    1    2    0    0  0.82490106261E+02 -0.63481880324E+01  0.25729969251E+03  0.28531846226E+03  0.91425248242E+02 0.  0.
          5    1    1    2  502    0 -0.18201579549E+02  0.37032545311E+02 -0.34282541441E+01  0.41616489962E+02  0.41800000000E+01 0.  1.
         -5    1    1    2    0  502 -0.64288526713E+02 -0.30684357278E+02  0.16002332164E+03  0.17521267168E+03  0.41800000000E+01 0.  1.
        -11    1    3    3    0    0  0.11525098606E+02 -0.41760959052E+02  0.10551234366E+03  0.11405989770E+03  0.00000000000E+00 0.  1.
         11    1    3    3    0    0  0.70965007655E+02  0.35412771019E+02  0.15178734886E+03  0.17125856456E+03  0.00000000000E+00 0. -1.
</event>
<event>
 7    1  0.4687179E-006  0.1132447E+03  0.7561462E-02  0.1254676E+00
          2   -1    0    0  501    0  0.00000000000E+00  0.00000000000E+00  0.32648861242E+02  0.32648861242E+02  0.00000000000E+00 0. -1.
         -2   -1    0    0    0  501 -0.00000000000E+00 -0.00000000000E+00 -0.12189379424E+04  0.12189379424E+04  0.00000000000E+00 0.  1.
         23    2    1    2    0    0  0.26141136323E+01  0.99910168345E+02 -0.14933743246E+03  0.20234637868E+03  0.93024259755E+02 0.  0.
          5    1    1    2  502    0 -0.37640932028E+02 -0.64561342413E+02 -0.90604958451E+03  0.90913603420E+03  0.41800000000E+01 0.  1.
         -5    1    1    2    0  502  0.35026818396E+02 -0.35348825931E+02 -0.13090206423E+03  0.14010439080E+03  0.41800000000E+01 0.  1.
        -11    1    3    3    0    0 -0.56100743689E+01  0.79476631427E+02 -0.36958251732E+02  0.87828926036E+02  0.00000000000E+00 0. -1.
         11    1    3    3    0    0  0.82241880012E+01  0.20433536917E+02 -0.11237918073E+03  0.11451745265E+03  0.00000000000E+00 0.  1.
</event>
<event>
 7    1  0.4687179E-006  0.1378084E+03  0.7561462E-02  0.1216309E+00
         -1   -1    0    0    0  501 -0.00000000000E+00  0.00000000000E+00  0.40119604847E+02  0.40119604847E+02  0.00000000000E+00 0.  1.
          1   -1    0    0  501    0  0.00000000000E+00 -0.00000000000E+00 -0.56759033102E+03  0.56759033102E+03  0.00000000000E+00 0. -1.
         23    2    1    2    0    0  0.91693048210E+02  0.45371242850E+02 -0.28865906926E+03  0.31936261171E+03  0.90566300172E+02 0.  0.
          5    1    1    2  502    0 -0.11795984498E+03 -0.25103529624E+02 -0.21738199353E+03  0.24863048031E+03  0.41800000000E+01 0.  1.
         -5    1    1    2    0  502  0.26266796775E+02 -0.20267713227E+02 -0.21429663386E+02  0.39716843846E+02  0.41800000000E+01 0.  1.
        -11    1    3    3    0    0  0.68722478767E+02 -0.21130178990E+01 -0.86833690600E+02  0.11075799635E+03  0.00000000000E+00 0.  1.
         11    1    3    3    0    0  0.22970569443E+02  0.47484260749E+02 -0.20182537866E+03  0.20860461536E+03  0.00000000000E+00 0. -1.
</event>
<event>
 7    1  0.4687179E-006  0.1035979E+03  0.7561462E-02  0.1272907E+00
         -2   -1    0    0    0  501 -0.00000000000E+00  0.00000000000E+00  0.34093055479E+03  0.34093055479E+03  0.00000000000E+00 0.  1.
          2   -1    0    0  501    0  0.00000000000E+00 -0.00000000000E+00 -0.41189732549E+02  0.41189732549E+02  0.00000000000E+00 0. -1.
         23    2    1    2    0    0  0.16846379538E+02  0.46063673883E+02  0.68850585967E+02  0.11498079569E+03  0.77939191899E+02 0.  0.
          5    1    1    2  502    0 -0.52459788411E+02  0.11653362719E+02  0.48521147604E+02  0.72523130293E+02  0.41800000000E+01 0.  1.
         -5    1    1    2    0  502  0.35613408873E+02 -0.57717036602E+02  0.18236908867E+03  0.19461636135E+03  0.41800000000E+01 0.  1.
        -11    1    3    3    0    0 -0.14628888069E+02  0.51382604088E+02  0.62870784408E+02  0.82504011424E+02  0.00000000000E+00 0.  1.
         11    1    3    3    0    0  0.31475267607E+02 -0.53189302043E+01  0.59798015594E+01  0.32476784264E+02  0.00000000000E+00 0. -1.
</event>
<event>
 7    1  0.4687179E-006  0.1027470E+03  0.7561462E-02  0.1274623E+00
         -2   -1    0    0    0  501 -0.00000000000E+00  0.00000000000E+00  0.16390201697E+02  0.16390201697E+02  0.00000000000E+00 0.  1.
          2   -1    0    0  501    0  0.00000000000E+00 -0.00000000000E+00 -0.75776675041E+03  0.75776675041E+03  0.00000000000E+00 0. -1.
         23    2    1    2    0    0 -0.10569173208E+02  0.14256572095E+02 -0.38640231459E+03  0.39736638878E+03  0.90985388594E+02 0.  0.
          5    1    1    2  502    0 -0.38946952784E+02  0.27818210061E+02 -0.72962481597E+02  0.87359682136E+02  0.41800000000E+01 0. -1.
         -5    1    1    2    0  502  0.49516125992E+02 -0.42074782156E+02 -0.28201175252E+03  0.28943088119E+03  0.41800000000E+01 0. -1.
        -11    1    3    3    0    0 -0.34685375057E+02 -0.27401421803E+02 -0.16751419062E+03  0.17324813770E+03  0.00000000000E+00 0.  1.
         11    1    3    3    0    0  0.24116201849E+02  0.41657993897E+02 -0.21888812398E+03  0.22411825108E+03  0.00000000000E+00 0. -1.
</event>
<event>
 6    1  0.4687179E-006  0.8585161E+02  0.7561462E-02  0.1313220E+00
         -2   -1    0    0    0  501 -0.00000000000E+00  0.00000000000E+00  0.98558852877E+03  0.98558852877E+03  0.00000000000E+00 0.  1.
          2   -1    0    0  501    0  0.00000000000E+00 -0.00000000000E+00 -0.10269114445E+02  0.10269114445E+02  0.00000000000E+00 0. -1.
          5    1    1    2  502    0  0.69899391283E+02 -0.76650627676E+01  0.20246275122E+03  0.21436724591E+03  0.41800000000E+01 0. -1.
         -5    1    1    2    0  502 -0.55377341956E+02 -0.11112641441E+02  0.60032317049E+03  0.60298882430E+03  0.41800000000E+01 0.  1.
        -11    1    1    2    0    0  0.84766502290E+01 -0.63273866931E+01  0.26099479365E+02  0.28161538392E+02  0.00000000000E+00 0.  1.
         11    1    1    2    0    0 -0.22998699556E+02  0.25105090901E+02  0.14643401325E+03  0.15034003461E+03  0.00000000000E+00 0. -1.
</event>
<event>
 7    1  0.4687179E-006  0.2042375E+03  0.7561462E-02  0.1146212E+00
         -1   -1    0    0    0  501 -0.00000000000E+00  0.00000000000E+00  0.64773634353E+02  0.64773634353E+02  0.00000000000E+00 0.  1.
          1   -1    0    0  501    0  0.00000000000E+00 -0.00000000000E+00 -0.66106893785E+03  0.66106893785E+03  0.00000000000E+00 0. -1.
         23    2    1    2    0    0  0.18129419328E+03 -0.70751680656E+01 -0.30493543352E+03  0.36052632963E+03  0.63843349065E+02 0.  0.
          5    1    1    2  502    0 -0.36660450910E+02  0.53892902586E+02 -0.11662609481E+03  0.13366956273E+03  0.41800000000E+01 0.  1.
         -5    1    1    2    0  502 -0.14463374237E+03 -0.46817734520E+02 -0.17473377517E+03  0.23164667984E+03  0.41800000000E+01 0.  1.
        -11    1    3    3    0    0  0.13706866302E+03  0.21042010264E+02 -0.23878910506E+03  0.27613551252E+03  0.00000000000E+00 0.  1.
         11    1    3    3    0    0  0.44225530261E+02 -0.28117178330E+02 -0.66146328456E+02  0.84390817109E+02  0.00000000000E+00 0. -1.
</event>
<event>
 7    1  0.4687179E-006  0.7948996E+02  0.7561462E-02  0.1330505E+00
          2   -1    0    0  501    0  0.00000000000E+00  0.00000000000E+00  0.20814050094E+03  0.20814050094E+03  0.00000000000E+00 0. -1.
         -2   -1    0    0    0  501 -0.00000000000E+00 -0.00000000000E+00 -0.11077301952E+03  0.11077301952E+03  0.00000000000E+00 0.  1.
         23    2    1    2    0    0  0.54943044155E+02 -0.25644500532E+01  0.13756103558E+03  0.17647542347E+03  0.95891720570E+02 0.  0.
          5    1    1    2  502    0 -0.48687992045E+02  0.16098567115E+02 -0.82588553593E+02  0.97303782131E+02  0.41800000000E+01 0.  1.
         -5    1    1    2    0  502 -0.62550521097E+01 -0.13534117062E+02  0.42394999426E+02  0.45134314860E+02  0.41800000000E+01 0.  1.
        -11    1    3    3    0    0 -0.18163803344E+02  0.41451054548E+01 -0.20454689563E+01  0.18742721105E+02  0.00000000000E+00 0.  1.
         11    1    3    3    0    0  0.73106847499E+02 -0.67095555080E+01  0.13960650454E+03  0.15773270237E+03  0.00000000000E+00 0. -1.
</event>
<event>
 7    1  0.4687179E-006  0.1237544E+03  0.7561462E-02  0.1237029E+00
         -2   -1    0    0    0  501 -0.00000000000E+00  0.00000000000E+00  0.37341319006E+03  0.37341319006E+03  0.00000000000E+00 0.  1.
          2   -1    0    0  501    0  0.00000000000E+00 -0.00000000000E+00 -0.46290720139E+02  0.46290720139E+02  0.00000000000E+00 0. -1.
         23    2    1    2    0    0 -0.20656188054E+02  0.59555500127E+02  0.20517725829E+03  0.23398513717E+03  0.93154717520E+02 0.  0.
          5    1    1    2  502    0 -0.36871385835E+02 -0.70708162677E+02  0.56784876058E+02  0.97985396419E+02  0.41800000000E+01 0. -1.
         -5    1    1    2    0  502  0.57527573889E+02  0.11152662551E+02  0.65160335573E+02  0.87733376611E+02  0.41800000000E+01 0. -1.
        -11    1    3    3    0    0  0.26081849370E+02  0.56309936678E+02  0.87042459067E+02  0.10689930550E+03  0.00000000000E+00 0. -1.
         11    1    3    3    0    0 -0.46738037424E+02  0.32455634488E+01  0.11813479923E+03  0.12708583168E+03  0.00000000000E+00 0.  1.
</event>
<event>
 7    1  0.4687179E-006  0.7735996E+02  0.7561462E-02  0.1336715E+00
          1   -1    0    0  501    0  0.00000000000E+00  0.00000000000E+00  0.16051232189E+03  0.16051232189E+03  0.00000000000E+00 0. -1.
         -1   -1    0    0    0  501 -0.00000000000E+00 -0.00000000000E+00 -0.87054354211E+02  0.87054354211E+02  0.00000000000E+00 0.  1.
         23    2    1    2    0    0  0.70696103262E+01  0.30948678831E+02  0.48636752150E+02  0.11614594519E+03  0.10058104599E+03 0.  0.
          5    1    1    2  502    0  0.29174270662E+02  0.28399384987E+02  0.43059360387E+02  0.59407441060E+02  0.41800000000E+01 0.  1.
         -5    1    1    2    0  502 -0.36243880988E+02 -0.59348063818E+02 -0.18238144856E+02  0.72013289855E+02  0.41800000000E+01 0.  1.
        -11    1    3    3    0    0  0.18434366139E+02  0.25648855120E+02  0.78034875732E+02  0.84185102330E+02  0.00000000000E+00 0. -1.
         11    1    3    3    0    0 -0.11364755813E+02  0.52998237108E+01 -0.29398123581E+02  0.31960842857E+02  0.00000000000E+00 0.  1.
</event>
<event>
 7    1  0.4687179E-006  0.9511023E+02  0.7561462E-02  0.1290928E+00
          3   -1    0    0  501    0  0.00000000000E+00  0.00000000000E+00  0.32920298276E+03  0.32920298276E+03  0.00000000000E+00 0. -1.
         -3   -1    0    0    0  501 -0.00000000000E+00 -0.00000000000E+00 -0.69046303907E+02  0.69046303907E+02  0.00000000000E+00 0.  1.
         23    2    1    2    0    0  0.27985479359E+01 -0.10880362071E+02  0.25649949065E+03  0.27260331958E+03  0.91620778167E+02 0.  0.
          5    1    1    2  502    0 -0.49890587602E+02  0.83263599660E+00 -0.37183290328E+02  0.62368529673E+02  0.41800000000E+01 0.  1.
         -5    1    1    2    0  502  0.47092039666E+02  0.10047726074E+02  0.40840478529E+02  0.63277437414E+02  0.41800000000E+01 0.  1.
        -11    1    3    3    0    0 -0.33794354602E+02 -0.34473992221E+02  0.12075955672E+03  0.13005147090E+03  0.00000000000E+00 0.  1.
         11    1    3    3    0    0  0.36592902538E+02  0.23593630150E+02  0.13573993393E+03  0.14255184868E+03  0.00000000000E+00 0. -1.
</event>
<event>
 7    1  0.4687179E-006  0.9586555E+02  0.7561462E-02  0.1289238E+00
         -3   -1    0    0    0  501 -0.00000000000E+00  0.00000000000E+00  0.11422399005E+03  0.11422399005E+03  0.00000000000E+00 0.  1.
          3   -1    0    0  501    0  0.00000000000E+00 -0.00000000000E+00 -0.12581189835E+03  0.12581189835E+03  0.00000000000E+00 0. -1.
         23    2    1    2    0    0 -0.49844669612E+02 -0.11759425894E+01 -0.56152915904E+01  0.10524098004E+03  0.92510855855E+02 0.  0.
          5    1    1    2  502    0  0.62825719473E+02 -0.45954716514E+02 -0.25458392691E+02  0.82003104549E+02  0.41800000000E+01 0.  1.
         -5    1    1    2    0  502 -0.12981049861E+02  0.47130659104E+02  0.19485775982E+02  0.52791803802E+02  0.41800000000E+01 0.  1.
        -11    1    3    3    0    0 -0.35247894058E+02  0.18821166753E+02  0.37965788729E+02  0.55118521998E+02  0.00000000000E+00 0.  1.
         11    1    3    3    0    0 -0.14596775555E+02 -0.19997109342E+02 -0.43581080319E+02  0.50122458045E+02  0.00000000000E+00 0. -1.
</event>
<event>
 7    1  0.4687179E-006  0.9857383E+02  0.7561462E-02  0.1283324E+00
         -1   -1    0    0    0  501 -0.00000000000E+00  0.00000000000E+00  0.12421530804E+03  0.12421530804E+03  0.00000000000E+00 0.  1.
          1   -1    0    0  501    0  0.00000000000E+00 -0.00000000000E+00 -0.14132559133E+03  0.14132559133E+03  0.00000000000E+00 0. -1.
         23    2    1    2    0    0 -0.29211534172E+02 -0.12207703402E+02 -0.76845853368E+02  0.12334900073E+03  0.91144660024E+02 0.  0.
          5    1    1    2  502    0  0.51446154667E+01 -0.53985758083E+02  0.86312273524E+01  0.55071767991E+02  0.41800000000E+01 0.  1.
         -5    1    1    2    0  502  0.24066918705E+02  0.66193461485E+02  0.51104342716E+02  0.87120130646E+02  0.41800000000E+01 0.  1.
        -11    1    3    3    0    0  0.19635647770E+02  0.52519681413E+01  0.96424333688E+01  0.22497074342E+02  0.00000000000E+00 0.  1.
         11    1    3    3    0    0 -0.48847181942E+02 -0.17459671544E+02 -0.86488286736E+02  0.10085192639E+03  0.00000000000E+00 0. -1.
</event>
<event>
 7    1  0.4687179E-006  0.1015965E+03  0.7561462E-02  0.1276974E+00
         -1   -1    0    0    0  501 -0.00000000000E+00  0.00000000000E+00  0.56548076997E+03  0.56548076997E+03  0.00000000000E+00 0.  1.
          1   -1    0    0  501    0  0.00000000000E+00 -0.00000000000E+00 -0.42312453021E+02  0.42312453021E+02  0.00000000000E+00 0. -1.
         23    2    1    2    0    0  0.21956121826E+02  0.75146860626E+02  0.87171392323E+02  0.14749952089E+03  0.89599860909E+02 0.  0.
          5    1    1    2  502    0  0.17371480625E+02 -0.35689755713E+02  0.28642443273E+02  0.49126255288E+02  0.41800000000E+01 0. -1.
         -5    1    1    2    0  502 -0.39327602452E+02 -0.39457104913E+02  0.40735448135E+03  0.41116744682E+03  0.41800000000E+01 0. -1.
        -11    1    3    3    0    0 -0.26218810244E+02  0.39814090359E+02  0.71152551500E+02  0.85646210580E+02  0.00000000000E+00 0.  1.
         11    1    3    3    0    0  0.48174932070E+02  0.35332770267E+02  0.16018840822E+02  0.61853310307E+02  0.00000000000E+00 0. -1.
</event>
<event>
 7    1  0.4687179E-006  0.2251266E+03  0.7561462E-02  0.1130118E+00
         -2   -1    0    0    0  501 -0.00000000000E+00  0.00000000000E+00  0.15499897881E+03  0.15499897881E+03  0.00000000000E+00 0. -1.
          2   -1    0    0  501    0  0.00000000000E+00 -0.00000000000E+00 -0.44745300721E+03  0.44745300721E+03  0.00000000000E+00 0.  1.
         23    2    1    2    0    0 -0.38332224257E+02  0.20589545245E+03 -0.27624049527E+03  0.35796220496E+03  0.89251510903E+02 0.  0.
          5    1    1    2  502    0 -0.20557749198E+02 -0.15615529225E+03  0.20713978352E+02  0.15891393157E+03  0.41800000000E+01 0. -1.
         -5    1    1    2    0  502  0.58889973456E+02 -0.49740160200E+02 -0.36927511484E+02  0.85575849483E+02  0.41800000000E+01 0. -1.
        -11    1    3    3    0    0  0.11209536929E+02  0.69170566826E+02 -0.40384788777E+02  0.80877389904E+02  0.00000000000E+00 0. -1.
         11    1    3    3    0    0 -0.49541761186E+02  0.13672488562E+03 -0.23585570649E+03  0.27708481505E+03  0.00000000000E+00 0.  1.
</event>
<event>
 7    1  0.4687179E-006  0.1250286E+03  0.7561462E-02  0.1235025E+00
         -1   -1    0    0    0  501 -0.00000000000E+00  0.00000000000E+00  0.20780487937E+03  0.20780487937E+03  0.00000000000E+00 0.  1.
          1   -1    0    0  501    0  0.00000000000E+00 -0.00000000000E+00 -0.14742831555E+03  0.14742831555E+03  0.00000000000E+00 0. -1.
         23    2    1    2    0    0  0.64563227294E+02  0.22894371869E+02 -0.92758564785E+02  0.14684013959E+03  0.90913765029E+02 0.  0.
          5    1    1    2  502    0  0.10614657930E+01  0.43225736231E+02  0.25668160321E+02  0.50457089062E+02  0.41800000000E+01 0. -1.
         -5    1    1    2    0  502 -0.65624693087E+02 -0.66120108099E+02  0.12746696829E+03  0.15793596627E+03  0.41800000000E+01 0.  1.
        -11    1    3    3    0    0  0.54297039827E+02 -0.28245731421E+02 -0.56677327094E+02  0.83416480890E+02  0.00000000000E+00 0.  1.
         11    1    3    3    0    0  0.10266187467E+02  0.51140103290E+02 -0.36081237691E+02  0.63423658700E+02  0.00000000000E+00 0. -1.
</event>
<event>
 7    1  0.4687179E-006  0.8525354E+02  0.7561462E-02  0.1314771E+00
         -2   -1    0    0    0  501 -0.00000000000E+00  0.00000000000E+00  0.19784757468E+02  0.19784757468E+02  0.00000000000E+00 0.  1.
          2   -1    0    0  501    0  0.00000000000E+00 -0.00000000000E+00 -0.71413732085E+03  0.71413732085E+03  0.00000000000E+00 0. -1.
         23    2    1    2    0    0  0.40543395489E+02 -0.26912957644E+02 -0.24458260378E+03  0.26455317743E+03  0.88315680432E+02 0.  0.
          5    1    1    2  502    0 -0.35412985108E+02  0.45759861255E+02 -0.44508767996E+03  0.44885249211E+03  0.41800000000E+01 0.  1.
         -5    1    1    2    0  502 -0.51304103809E+01 -0.18846903612E+02 -0.46822796343E+01  0.20516408775E+02  0.41800000000E+01 0.  1.
        -11    1    3    3    0    0  0.21401560724E+02 -0.54722357018E+02 -0.20106884134E+03  0.20947850037E+03  0.00000000000E+00 0. -1.
         11    1    3    3    0    0  0.19141834765E+02  0.27809399375E+02 -0.43513762436E+02  0.55074677059E+02  0.00000000000E+00 0.  1.
</event>
<event>
 7    1  0.4687179E-006  0.1641147E+03  0.7561462E-02  0.1184128E+00
         -2   -1    0    0    0  501 -0.00000000000E+00  0.00000000000E+00  0.15777366664E+03  0.15777366664E+03  0.00000000000E+00 0.  1.
          2   -1    0    0  501    0  0.00000000000E+00 -0.00000000000E+00 -0.23427040091E+03  0.23427040091E+03  0.00000000000E+00 0. -1.
         23    2    1    2    0    0  0.13602091676E+03  0.27755553945E+02 -0.10565006990E+03  0.20293030587E+03  0.10366634556E+03 0.  0.
          5    1    1    2  502    0  0.24079200940E+02 -0.44127487664E+01  0.66542080366E+01  0.25710526136E+02  0.41800000000E+01 0.  1.
         -5    1    1    2    0  502 -0.16010011770E+03 -0.23342805179E+02  0.22499127590E+02  0.16340323554E+03  0.41800000000E+01 0.  1.
        -11    1    3    3    0    0  0.54224041755E+02 -0.26347651583E+01  0.12831177211E+02  0.55783759288E+02  0.00000000000E+00 0.  1.
         11    1    3    3    0    0  0.81796875006E+02  0.30390319103E+02 -0.11848124711E+03  0.14714654659E+03  0.00000000000E+00 0. -1.
</event>
<event>
 7    1  0.4687179E-006  0.2386163E+03  0.7561462E-02  0.1120718E+00
         -2   -1    0    0    0  501 -0.00000000000E+00  0.00000000000E+00  0.57576160406E+02  0.57576160406E+02  0.00000000000E+00 0.  1.
          2   -1    0    0  501    0  0.00000000000E+00 -0.00000000000E+00 -0.13573303119E+04  0.13573303119E+04  0.00000000000E+00 0. -1.
         23    2    1    2    0    0  0.15225129358E+03  0.18294368146E+03 -0.37503494281E+03  0.45349488759E+03  0.91419679278E+02 0.  0.
          5    1    1    2  502    0 -0.77124248082E+02 -0.10730326048E+03 -0.70341237968E+03  0.71572940951E+03  0.41800000000E+01 0. -1.
         -5    1    1    2    0  502 -0.75127045500E+02 -0.75640420983E+02 -0.22130682904E+03  0.24568217524E+03  0.41800000000E+01 0.  1.
        -11    1    3    3    0    0  0.11804807254E+03  0.13345562772E+03 -0.34005892040E+03  0.38390861067E+03  0.00000000000E+00 0.  1.
         11    1    3    3    0    0  0.34203221045E+02  0.49488053736E+02 -0.34976022410E+02  0.69586276924E+02  0.00000000000E+00 0. -1.
</event>
<event>
 7    1  0.4687179E-006  0.9909052E+02  0.7561462E-02  0.1282220E+00
         -3   -1    0    0    0  501 -0.00000000000E+00  0.00000000000E+00  0.77763131698E+02  0.77763131698E+02  0.00000000000E+00 0. -1.
          3   -1    0    0  501    0  0.00000000000E+00 -0.00000000000E+00 -0.27714653844E+03  0.27714653844E+03  0.00000000000E+00 0.  1.
         23    2    1    2    0    0 -0.72747441712E+02  0.56155532510E+02 -0.13666761086E+03  0.18749637225E+03  0.89617072269E+02 0.  0.
          5    1    1    2  502    0  0.32838795868E+02 -0.42019957588E+02  0.32871403540E+02  0.62785865611E+02  0.41800000000E+01 0.  1.
         -5    1    1    2    0  502  0.39908645844E+02 -0.14135574922E+02 -0.95587199426E+02  0.10462743228E+03  0.41800000000E+01 0.  1.
        -11    1    3    3    0    0 -0.70683858676E+01  0.31026738579E+02  0.21382670205E+01  0.31893459698E+02  0.00000000000E+00 0. -1.
         11    1    3    3    0    0 -0.65679055844E+02  0.25128793931E+02 -0.13880587788E+03  0.15560291255E+03  0.00000000000E+00 0.  1.
</event>
<event>
 7    1  0.4687179E-006  0.7804105E+02  0.7561462E-02  0.1334704E+00
          1   -1    0    0  501    0  0.00000000000E+00  0.00000000000E+00  0.20065469205E+03  0.20065469205E+03  0.00000000000E+00 0. -1.
         -1   -1    0    0    0  501 -0.00000000000E+00 -0.00000000000E+00 -0.59855851388E+02  0.59855851388E+02  0.00000000000E+00 0.  1.
         23    2    1    2    0    0  0.67331712098E+01  0.44336070870E+01  0.78171410056E+02  0.12037219722E+03  0.91179515497E+02 0.  0.
          5    1    1    2  502    0 -0.43744766691E+02 -0.46730678940E+02  0.13901352178E+02  0.65635973060E+02  0.41800000000E+01 0.  1.
         -5    1    1    2    0  502  0.37011595482E+02  0.42297071853E+02  0.48726078424E+02  0.74502373157E+02  0.41800000000E+01 0.  1.
        -11    1    3    3    0    0 -0.14194264333E+02  0.50802002385E-01 -0.17390262126E+02  0.22447737917E+02  0.00000000000E+00 0.  1.
         11    1    3    3    0    0  0.20927435543E+02  0.43828050846E+01  0.95561672182E+02  0.97924459299E+02  0.00000000000E+00 0. -1.
</event>
<event>
 7    1  0.4687179E-006  0.9910620E+02  0.7561462E-02  0.1282187E+00
         -1   -1    0    0    0  501 -0.00000000000E+00  0.00000000000E+00  0.48380832275E+02  0.48380832275E+02  0.00000000000E+00 0.  1.
          1   -1    0    0  501    0  0.00000000000E+00 -0.00000000000E+00 -0.26502965357E+03  0.26502965357E+03  0.00000000000E+00 0. -1.
         23    2    1    2    0    0  0.22192295539E+02 -0.27908576459E+02 -0.10540290821E+03  0.14226290594E+03  0.88642962081E+02 0.  0.
          5    1    1    2  502    0 -0.61237458401E+02  0.27586815659E+02 -0.11335081743E+03  0.13182161780E+03  0.41800000000E+01 0. -1.
         -5    1    1    2    0  502  0.39045162862E+02  0.32176080014E+00  0.21049043395E+01  0.39325962101E+02  0.41800000000E+01 0. -1.
        -11    1    3    3    0    0 -0.29757798913E+02 -0.26235375391E+02 -0.26250126215E+02  0.47569850161E+02  0.00000000000E+00 0. -1.
         11    1    3    3    0    0  0.51950094452E+02 -0.16732010681E+01 -0.79152782000E+02  0.94693055784E+02  0.00000000000E+00 0.  1.
</event>
<event>
 7    1  0.4687179E-006  0.2565615E+03  0.7561462E-02  0.1109227E+00
          1   -1    0    0  501    0  0.00000000000E+00  0.00000000000E+00  0.37716810170E+03  0.37716810170E+03  0.00000000000E+00 0. -1.
         -1   -1    0    0    0  501 -0.00000000000E+00 -0.00000000000E+00 -0.19362487268E+03  0.19362487268E+03  0.00000000000E+00 0.  1.
         23    2    1    2    0    0 -0.21662706252E+03 -0.11697781743E+03  0.10695380773E+03  0.28422059296E+03  0.93440539853E+02 0.  0.
          5    1    1    2  502    0  0.13916337574E+03  0.12597142194E+03  0.88507270123E+02  0.20757228514E+03  0.41800000000E+01 0. -1.
         -5    1    1    2    0  502  0.77463686782E+02 -0.89936045067E+01 -0.11917848831E+02  0.79000096283E+02  0.41800000000E+01 0. -1.
        -11    1    3    3    0    0 -0.19066843086E+03 -0.93900754494E+02  0.51336605638E+02  0.21864868922E+03  0.00000000000E+00 0.  1.
         11    1    3    3    0    0 -0.25958631666E+02 -0.23077062939E+02  0.55617202091E+02  0.65571903742E+02  0.00000000000E+00 0. -1.
</event>
<event>
 7    1  0.4687179E-006  0.9952928E+02  0.7561462E-02  0.1281289E+00
          2   -1    0    0  501    0  0.00000000000E+00  0.00000000000E+00  0.63656969830E+03  0.63656969830E+03  0.00000000000E+00 0. -1.
         -2   -1    0    0    0  501 -0.00000000000E+00 -0.00000000000E+00 -0.24650193594E+02  0.24650193594E+02  0.00000000000E+00 0.  1.
         23    2    1    2    0    0 -0.24742511047E+01 -0.58483693734E+02  0.29802583143E+03  0.31828825440E+03  0.95192186329E+02 0.  0.
          5    1    1    2  502    0  0.10764999028E+02 -0.12070714784E+02  0.23913695533E+03  0.23971971793E+03  0.41800000000E+01 0. -1.
         -5    1    1    2    0  502 -0.82907479231E+01  0.70554408518E+02  0.74756717947E+02  0.10321191957E+03  0.41800000000E+01 0. -1.
        -11    1    3    3    0    0  0.27272622905E+02 -0.73118213021E+02  0.19400843345E+03  0.20911561703E+03  0.00000000000E+00 0.  1.
         11    1    3    3    0    0 -0.29746874010E+02  0.14634519286E+02  0.10401739798E+03  0.10917263737E+03  0.00000000000E+00 0. -1.
</event>
<event>
 7    1  0.4687179E-006  0.1201989E+03  0.7561462E-02  0.1242769E+00
          2   -1    0    0  501    0  0.00000000000E+00  0.00000000000E+00  0.44575082033E+03  0.44575082033E+03  0.00000000000E+00 0. -1.
         -2   -1    0    0    0  501 -0.00000000000E+00 -0.00000000000E+00 -0.38997578404E+02  0.38997578404E+02  0.00000000000E+00 0.  1.
         23    2    1    2    0    0 -0.49865703822E+02  0.37458032109E+02  0.25697678063E+03  0.27988266487E+03  0.91692680876E+02 0.  0.
          5    1    1    2  502    0  0.86240160420E+02 -0.14451770639E+02  0.62816787107E+02  0.10774803983E+03  0.41800000000E+01 0. -1.
         -5    1    1    2    0  502 -0.36374456598E+02 -0.23006261470E+02  0.86959674195E+02  0.97117694041E+02  0.41800000000E+01 0. -1.
        -11    1    3    3    0    0  0.15261970664E+02 -0.18334485957E+02  0.40003826416E+02  0.46576681417E+02  0.00000000000E+00 0.  1.
         11    1    3    3    0    0 -0.65127674486E+02  0.55792518066E+02  0.21697295421E+03  0.23330598345E+03  0.00000000000E+00 0. -1.
</event>
<event>
 7    1  0.4687179E-006  0.9738693E+02  0.7561462E-02  0.1285889E+00
         -2   -1    0    0    0  501 -0.00000000000E+00  0.00000000000E+00  0.46320494287E+03  0.46320494287E+03  0.00000000000E+00 0.  1.
          2   -1    0    0  501    0  0.00000000000E+00 -0.00000000000E+00 -0.31256638829E+02  0.31256638829E+02  0.00000000000E+00 0. -1.
         23    2    1    2    0    0 -0.31895929857E+02 -0.11879426238E+02  0.10658628976E+03  0.14422497675E+03  0.91004041916E+02 0.  0.
          5    1    1    2  502    0 -0.39089448347E+02 -0.18833118822E+01  0.21263757660E+03  0.21624926178E+03  0.41800000000E+01 0.  1.
         -5    1    1    2    0  502  0.70985378205E+02  0.13762738120E+02  0.11272443768E+03  0.13398734317E+03  0.41800000000E+01 0.  1.
        -11    1    3    3    0    0 -0.18077386435E+02 -0.44245490299E+02  0.22012651031E+02  0.52621403607E+02  0.00000000000E+00 0. -1.
         11    1    3    3    0    0 -0.13818543422E+02  0.32366064061E+02  0.84573638729E+02  0.91603573145E+02  0.00000000000E+00 0.  1.
</event>
<event>
 7    1  0.4687179E-006  0.1333735E+03  0.7561462E-02  0.1222534E+00
         -1   -1    0    0    0  501 -0.00000000000E+00  0.00000000000E+00  0.10617939874E+04  0.10617939874E+04  0.00000000000E+00 0.  1.
          1   -1    0    0  501    0  0.00000000000E+00 -0.00000000000E+00 -0.17438861881E+02  0.17438861881E+02  0.00000000000E+00 0. -1.
         23    2    1    2    0    0  0.41966215322E+02  0.66873078147E+02  0.37407948296E+03  0.39282903861E+03  0.90255316718E+02 0.  0.
          5    1    1    2  502    0 -0.64308453217E+02 -0.92811532074E+02  0.53492988947E+03  0.54673303969E+03  0.41800000000E+01 0. -1.
         -5    1    1    2    0  502  0.22342237895E+02  0.25938453927E+02  0.13534575309E+03  0.13967077098E+03  0.41800000000E+01 0. -1.
        -11    1    3    3    0    0 -0.21708785761E+02  0.48275425536E+02  0.14601289600E+03  0.15531115185E+03  0.00000000000E+00 0. -1.
         11    1    3    3    0    0  0.63675001083E+02  0.18597652611E+02  0.22806658696E+03  0.23751788676E+03  0.00000000000E+00 0.  1.
</event>
<event>
 7    1  0.4687179E-006  0.1237409E+03  0.7561462E-02  0.1237050E+00
          2   -1    0    0  501    0  0.00000000000E+00  0.00000000000E+00  0.42430813313E+03  0.42430813313E+03  0.00000000000E+00 0. -1.
         -2   -1    0    0    0  501 -0.00000000000E+00 -0.00000000000E+00 -0.77744315854E+02  0.77744315854E+02  0.00000000000E+00 0.  1.
         23    2    1    2    0    0 -0.65558046607E+01  0.69578646658E+02  0.33980170006E+03  0.35860428384E+03  0.90816685566E+02 0.  0.
          5    1    1    2  502    0 -0.85149269285E+01  0.31943134273E+02  0.21530670720E+02  0.39672534447E+02  0.41800000000E+01 0.  1.
         -5    1    1    2    0  502  0.15070731589E+02 -0.10152178093E+03 -0.14768553507E+02  0.10377563070E+03  0.41800000000E+01 0.  1.
        -11    1    3    3    0    0 -0.27944285764E+02 -0.95043357723E+01  0.13148770694E+03  0.13475990717E+03  0.00000000000E+00 0. -1.
         11    1    3    3    0    0  0.21388481103E+02  0.79082982430E+02  0.20831399312E+03  0.22384437667E+03  0.00000000000E+00 0.  1.
</event>
<event>
 7    1  0.4687179E-006  0.9162454E+02  0.7561462E-02  0.1298965E+00
         -2   -1    0    0    0  501 -0.00000000000E+00  0.00000000000E+00  0.68716996306E+02  0.68716996306E+02  0.00000000000E+00 0.  1.
          2   -1    0    0  501    0  0.00000000000E+00 -0.00000000000E+00 -0.28482844094E+03  0.28482844094E+03  0.00000000000E+00 0. -1.
         23    2    1    2    0    0 -0.18983526826E+02 -0.10651515265E+02 -0.20455444127E+03  0.22604926134E+03  0.93711899156E+02 0.  0.
          5    1    1    2  502    0  0.67193185723E+02 -0.12090689876E+02 -0.24197432111E+02  0.72554097817E+02  0.41800000000E+01 0. -1.
         -5    1    1    2    0  502 -0.48209658897E+02  0.22742205141E+02  0.12640428744E+02  0.54942078086E+02  0.41800000000E+01 0. -1.
        -11    1    3    3    0    0  0.19652733182E+02 -0.11433289262E+02 -0.56532813364E+01  0.23428820173E+02  0.00000000000E+00 0.  1.
         11    1    3    3    0    0 -0.38636260008E+02  0.78177399703E+00 -0.19890115993E+03  0.20262044117E+03  0.00000000000E+00 0. -1.
</event>
<event>
 7    1  0.4687179E-006  0.2824676E+03  0.7561462E-02  0.1094349E+00
          2   -1    0    0  501    0  0.00000000000E+00  0.00000000000E+00  0.93286565369E+03  0.93286565369E+03  0.00000000000E+00 0. -1.
         -2   -1    0    0    0  501 -0.00000000000E+00 -0.00000000000E+00 -0.15263665859E+03  0.15263665859E+03  0.00000000000E+00 0.  1.
         23    2    1    2    0    0 -0.17163160623E+03 -0.14320489298E+03  0.69433787161E+03  0.73505782205E+03  0.90773741676E+02 0.  0.
          5    1    1    2  502    0  0.19261356450E+03  0.13540709486E+02  0.10136640614E+03  0.21811913427E+03  0.41800000000E+01 0. -1.
         -5    1    1    2    0  502 -0.20981958273E+02  0.12966418349E+03 -0.15475282654E+02  0.13232535595E+03  0.41800000000E+01 0.  1.
        -11    1    3    3    0    0  0.72566694603E+01 -0.24847583389E+02  0.96218271740E+02  0.99639437315E+02  0.00000000000E+00 0. -1.
         11    1    3    3    0    0 -0.17888827569E+03 -0.11835730959E+03  0.59811959987E+03  0.63541838474E+03  0.00000000000E+00 0.  1.
</event>
<event>
 7    1  0.4687179E-006  0.1183628E+03  0.7561462E-02  0.1245823E+00
          1   -1    0    0  501    0  0.00000000000E+00  0.00000000000E+00  0.18939836536E+03  0.18939836536E+03  0.00000000000E+00 0. -1.
         -1   -1    0    0    0  501 -0.00000000000E+00 -0.00000000000E+00 -0.88569697663E+02  0.88569697663E+02  0.00000000000E+00 0.  1.
         23    2    1    2    0    0 -0.38754461776E+02 -0.59941530787E+02  0.40319974273E+02  0.12175802004E+03  0.90024550527E+02 0.  0.
          5    1    1    2  502    0  0.72695212768E+02  0.17791199347E+02  0.44549732928E-01  0.74957288627E+02  0.41800000000E+01 0.  1.
         -5    1    1    2    0  502 -0.33940750992E+02  0.42150331439E+02  0.60464143688E+02  0.81252754355E+02  0.41800000000E+01 0.  1.
        -11    1    3    3    0    0 -0.60416169974E+02 -0.22960117693E+02  0.26314370808E+01  0.64685431590E+02  0.00000000000E+00 0.  1.
         11    1    3    3    0    0  0.21661708199E+02 -0.36981413094E+02  0.37688537192E+02  0.57072588449E+02  0.00000000000E+00 0. -1.
</event>
<event>
 7    1  0.4687179E-006  0.9303494E+02  0.7561462E-02  0.1295664E+00
          1   -1    0    0  501    0  0.00000000000E+00  0.00000000000E+00  0.20226060219E+02  0.20226060219E+02  0.00000000000E+00 0. -1.
         -1   -1    0    0    0  501 -0.00000000000E+00 -0.00000000000E+00 -0.10989242108E+04  0.10989242108E+04  0.00000000000E+00 0.  1.
         23    2    1    2    0    0  0.74361360632E+02 -0.19915848176E+01 -0.23370687645E+03  0.26171731108E+03  0.91342588369E+02 0.  0.
          5    1    1    2  502    0 -0.39160331105E+02  0.29250604554E+02 -0.10290061752E+03  0.11399622312E+03  0.41800000000E+01 0. -1.
         -5    1    1    2    0  502 -0.35201029527E+02 -0.27259019737E+02 -0.74209065665E+03  0.74343673687E+03  0.41800000000E+01 0. -1.
        -11    1    3    3    0    0  0.27416246941E+02  0.25878439862E+02 -0.18419980227E+03  0.18801838049E+03  0.00000000000E+00 0.  1.
         11    1    3    3    0    0  0.46945113691E+02 -0.27870024679E+02 -0.49507074182E+02  0.73698930583E+02  0.00000000000E+00 0. -1.
</event>
<event>
 7    1  0.4687179E-006  0.1269024E+03  0.7561462E-02  0.1232126E+00
         -2   -1    0    0    0  501 -0.00000000000E+00  0.00000000000E+00  0.32701889250E+02  0.32701889250E+02  0.00000000000E+00 0.  1.
          2   -1    0    0  501    0  0.00000000000E+00 -0.00000000000E+00 -0.61568564463E+03  0.61568564463E+03  0.00000000000E+00 0. -1.
         23    2    1    2    0    0  0.55451500878E+02 -0.67688149487E+02 -0.20788152212E+03  0.24341125386E+03  0.91530086509E+02 0.  0.
          5    1    1    2  502    0 -0.16523387643E+02 -0.32959787136E+02 -0.49047552480E+02  0.61502070790E+02  0.41800000000E+01 0. -1.
         -5    1    1    2    0  502 -0.38928113235E+02  0.10064793662E+03 -0.32605468078E+03  0.34347420923E+03  0.41800000000E+01 0. -1.
        -11    1    3    3    0    0 -0.82392225192E+01 -0.37182994881E+02 -0.20690353265E+02  0.43342249761E+02  0.00000000000E+00 0.  1.
         11    1    3    3    0    0  0.63690723397E+02 -0.30505154606E+02 -0.18719116885E+03  0.20006900410E+03  0.00000000000E+00 0. -1.
</event>
<event>
 7    1  0.4687179E-006  0.1186423E+03  0.7561462E-02  0.1245354E+00
         -1   -1    0    0    0  501 -0.00000000000E+00  0.00000000000E+00  0.66733874048E+03  0.66733874048E+03  0.00000000000E+00 0.  1.
          1   -1    0    0  501    0  0.00000000000E+00 -0.00000000000E+00 -0.27588798000E+02  0.27588798000E+02  0.00000000000E+00 0. -1.
         23    2    1    2    0    0 -0.67606142635E+02 -0.44000655151E+02  0.24332423679E+03  0.27148091878E+03  0.89378727185E+02 0.  0.
          5    1    1    2  502    0 -0.15289314643E+02  0.54577042069E+02  0.95751982051E+02  0.11134779356E+03  0.41800000000E+01 0. -1.
         -5    1    1    2    0  502  0.82895457277E+02 -0.10576386917E+02  0.30067372363E+03  0.31209882614E+03  0.41800000000E+01 0. -1.
        -11    1    3    3    0    0 -0.75133977162E+02 -0.30034047514E+02  0.24244441707E+03  0.25559040260E+03  0.00000000000E+00 0.  1.
         11    1    3    3    0    0  0.75278345272E+01 -0.13966607638E+02  0.87981972448E+00  0.15890516175E+02  0.00000000000E+00 0. -1.
</event>
<event>
 7    1  0.4687179E-006  0.1147995E+03  0.7561462E-02  0.1251932E+00
          1   -1    0    0  501    0  0.00000000000E+00  0.00000000000E+00  0.63155007398E+03  0.63155007398E+03  0.00000000000E+00 0. -1.
         -1   -1    0    0    0  501 -0.00000000000E+00 -0.00000000000E+00 -0.29025747661E+02  0.29025747661E+02  0.00000000000E+00 0.  1.
         23    2    1    2    0    0  0.61380382475E+02  0.29936927396E+02  0.37344235334E+03  0.39078096261E+03  0.92664979846E+02 0.  0.
          5    1    1    2  502    0 -0.71541025475E+02 -0.53977275561E+02  0.22603340396E+03  0.24318765739E+03  0.41800000000E+01 0. -1.
         -5    1    1    2    0  502  0.10160642999E+02  0.24040348165E+02  0.30485690142E+01  0.26607201640E+02  0.41800000000E+01 0. -1.
        -11    1    3    3    0    0 -0.21845389332E+02  0.20027205702E+02  0.70926378144E+02  0.76869116815E+02  0.00000000000E+00 0. -1.
         11    1    3    3    0    0  0.83225771807E+02  0.99097216938E+01  0.30251597520E+03  0.31391184579E+03  0.00000000000E+00 0.  1.
</event>
<event>
 7    1  0.4687179E-006  0.1153662E+03  0.7561462E-02  0.1250943E+00
          1   -1    0    0  501    0  0.00000000000E+00  0.00000000000E+00  0.22397521801E+02  0.22397521801E+02  0.00000000000E+00 0. -1.
         -1   -1    0    0    0  501 -0.00000000000E+00 -0.00000000000E+00 -0.64865522665E+03  0.64865522665E+03  0.00000000000E+00 0.  1.
         23    2    1    2    0    0  0.51778362467E+02  0.10418848038E+02 -0.25455412214E+03  0.27532491201E+03  0.90644662613E+02 0.  0.
          5    1    1    2  502    0  0.23906911956E+02  0.32630071523E+02 -0.18857690197E+03  0.19291185128E+03  0.41800000000E+01 0.  1.
         -5    1    1    2    0  502 -0.75685274422E+02 -0.43048919561E+02 -0.18312668073E+03  0.20281598516E+03  0.41800000000E+01 0.  1.
        -11    1    3    3    0    0 -0.23227374481E+02 -0.98016994591E+01 -0.88091860516E+02  0.91628380575E+02  0.00000000000E+00 0. -1.
         11    1    3    3    0    0  0.75005736947E+02  0.20220547497E+02 -0.16646226163E+03  0.18369653144E+03  0.00000000000E+00 0.  1.
</event>
<event>
 7    1  0.4687179E-006  0.1244168E+03  0.7561462E-02  0.1235984E+00
         -2   -1    0    0    0  501 -0.00000000000E+00  0.00000000000E+00  0.25149237698E+03  0.25149237698E+03  0.00000000000E+00 0.  1.
          2   -1    0    0  501    0  0.00000000000E+00 -0.00000000000E+00 -0.96282327149E+02  0.96282327149E+02  0.00000000000E+00 0. -1.
         23    2    1    2    0    0 -0.70818579473E+01  0.87952411471E+02  0.41159320289E+02  0.15688058439E+03  0.12301076667E+03 0.  0.
          5    1    1    2  502    0 -0.25187987017E+02  0.15373434301E+02  0.65940450652E+02  0.72362922857E+02  0.41800000000E+01 0.  1.
         -5    1    1    2    0  502  0.32269844965E+02 -0.10332584577E+03  0.48110278889E+02  0.11853119688E+03  0.41800000000E+01 0.  1.
        -11    1    3    3    0    0  0.16433160461E+01 -0.11122553522E+02 -0.31671055324E+02  0.33607550190E+02  0.00000000000E+00 0. -1.
         11    1    3    3    0    0 -0.87251739934E+01  0.99074964993E+02  0.72830375613E+02  0.12327303420E+03  0.00000000000E+00 0.  1.
</event>
<event>
 7    1  0.4687179E-006  0.1264783E+03  0.7561462E-02  0.1232777E+00
          1   -1    0    0  501    0  0.00000000000E+00  0.00000000000E+00  0.18653460237E+02  0.18653460237E+02  0.00000000000E+00 0. -1.
         -1   -1    0    0    0  501 -0.00000000000E+00 -0.00000000000E+00 -0.10993185784E+04  0.10993185784E+04  0.00000000000E+00 0.  1.
         23    2    1    2    0    0  0.94022760055E+01  0.44352863422E+02 -0.31368767702E+03  0.33962262375E+03  0.12201634546E+03 0.  0.
          5    1    1    2  502    0 -0.61696911219E+02 -0.49452116488E+02 -0.42121526088E+03  0.42859280101E+03  0.41800000000E+01 0. -1.
         -5    1    1    2    0  502  0.52294635214E+02  0.50992530657E+01 -0.34576218029E+03  0.34975661391E+03  0.41800000000E+01 0. -1.
        -11    1    3    3    0    0 -0.46001903805E+02  0.46781911718E+02 -0.23040828410E+03  0.23956773530E+03  0.00000000000E+00 0.  1.
         11    1    3    3    0    0  0.55404179810E+02 -0.24290482960E+01 -0.83279392929E+02  0.10005488845E+03  0.00000000000E+00 0. -1.
</event>
<event>
 7    1  0.4687179E-006  0.8249971E+02  0.7561462E-02  0.1322104E+00
          1   -1    0    0  501    0  0.00000000000E+00  0.00000000000E+00  0.42999831400E+03  0.42999831400E+03  0.00000000000E+00 0. -1.
         -1   -1    0    0    0  501 -0.00000000000E+00 -0.00000000000E+00 -0.30938437638E+02  0.30938437638E+02  0.00000000000E+00 0.  1.
         23    2    1    2    0    0  0.26795991167E+02 -0.14972825532E+02  0.22251227145E+03  0.24239751329E+03  0.91118784338E+02 0.  0.
          5    1    1    2  502    0  0.14422368672E+02  0.38294140716E+02  0.16440209980E+03  0.16946966912E+03  0.41800000000E+01 0. -1.
         -5    1    1    2    0  502 -0.41218359839E+02 -0.23321315184E+02  0.12145505112E+02  0.49069569227E+02  0.41800000000E+01 0. -1.
        -11    1    3    3    0    0  0.13614830498E+02 -0.43133335085E+02  0.51332765742E+02  0.68417110752E+02  0.00000000000E+00 0.  1.
         11    1    3    3    0    0  0.13181160669E+02  0.28160509552E+02  0.17117950570E+03  0.17398040254E+03  0.00000000000E+00 0. -1.
</event>
<event>
 7    1  0.4687179E-006  0.1006918E+03  0.7561462E-02  0.1278848E+00
          1   -1    0    0  501    0  0.00000000000E+00  0.00000000000E+00  0.16144006167E+03  0.16144006167E+03  0.00000000000E+00 0. -1.
         -1   -1    0    0    0  501 -0.00000000000E+00 -0.00000000000E+00 -0.12045175421E+03  0.12045175421E+03  0.00000000000E+00 0.  1.
         23    2    1    2    0    0  0.30894375288E+02 -0.21672591489E+02  0.98904045571E+02  0.13896953292E+03  0.90035310865E+02 0.  0.
          5    1    1    2  502    0 -0.69157709212E+02 -0.20597024685E+02 -0.22628683567E+02  0.75740054722E+02  0.41800000000E+01 0. -1.
         -5    1    1    2    0  502  0.38263333924E+02  0.42269616174E+02 -0.35287054544E+02  0.67182228251E+02  0.41800000000E+01 0. -1.
        -11    1    3    3    0    0  0.16947115453E+02 -0.43131179069E+02  0.11293584149E+02  0.47697467155E+02  0.00000000000E+00 0.  1.
         11    1    3    3    0    0  0.13947259835E+02  0.21458587581E+02  0.87610461422E+02  0.91272065762E+02  0.00000000000E+00 0. -1.
</event>
<event>
 7    1  0.4687179E-006  0.1231247E+03  0.7561462E-02  0.1238029E+00
          1   -1    0    0  501    0  0.00000000000E+00  0.00000000000E+00  0.31387599022E+02  0.31387599022E+02  0.00000000000E+00 0. -1.
         -1   -1    0    0    0  501 -0.00000000000E+00 -0.00000000000E+00 -0.69173740940E+03  0.69173740940E+03  0.00000000000E+00 0.  1.
         23    2    1    2    0    0  0.62636036122E+02  0.10275048864E+02 -0.12001805247E+03  0.16488048186E+03  0.93554212779E+02 0.  0.
          5    1    1    2  502    0 -0.94151567001E+02  0.11978055628E+02 -0.45018593022E+03  0.46010089714E+03  0.41800000000E+01 0.  1.
         -5    1    1    2    0  502  0.31515530879E+02 -0.22253104492E+02 -0.90145827689E+02  0.98143629420E+02  0.41800000000E+01 0.  1.
        -11    1    3    3    0    0  0.24152648239E+02 -0.41448207787E+02 -0.59782276750E+02  0.76650016041E+02  0.00000000000E+00 0. -1.
         11    1    3    3    0    0  0.38483387883E+02  0.51723256651E+02 -0.60235775721E+02  0.88230465817E+02  0.00000000000E+00 0.  1.
</event>
<event>
 7    1  0.4687179E-006  0.1105867E+03  0.7561462E-02  0.1259487E+00
         -1   -1    0    0    0  501 -0.00000000000E+00  0.00000000000E+00  0.58700699438E+03  0.58700699438E+03  0.00000000000E+00 0.  1.
          1   -1    0    0  501    0  0.00000000000E+00 -0.00000000000E+00 -0.27977042314E+02  0.27977042314E+02  0.00000000000E+00 0. -1.
         23    2    1    2    0    0 -0.14345785800E+02  0.66148029991E+02  0.26382849491E+03  0.28730289291E+03  0.91411783181E+02 0.  0.
          5    1    1    2  502    0  0.54947953366E+02 -0.53403660838E+02  0.90934027313E+02  0.11898612647E+03  0.41800000000E+01 0. -1.
         -5    1    1    2    0  502 -0.40602167566E+02 -0.12744369153E+02  0.20426742984E+03  0.20869501731E+03  0.41800000000E+01 0. -1.
        -11    1    3    3    0    0 -0.37744051621E+02  0.68447597478E+02  0.13210218149E+03  0.15349486437E+03  0.00000000000E+00 0. -1.
         11    1    3    3    0    0  0.23398265821E+02 -0.22995674872E+01  0.13172631342E+03  0.13380802854E+03  0.00000000000E+00 0.  1.
</event>
<event>
 7    1  0.4687179E-006  0.1566291E+03  0.7561462E-02  0.1192556E+00
          1   -1    0    0  501    0  0.00000000000E+00  0.00000000000E+00  0.12508812478E+04  0.12508812478E+04  0.00000000000E+00 0. -1.
         -1   -1    0    0    0  501 -0.00000000000E+00 -0.00000000000E+00 -0.19725261903E+02  0.19725261903E+02  0.00000000000E+00 0.  1.
         23    2    1    2    0    0  0.76447764954E+02 -0.82627424671E+02  0.57607229350E+03  0.59425317054E+03  0.92768482182E+02 0.  0.
          5    1    1    2  502    0 -0.96182359501E+02  0.10154690966E+03  0.52225644688E+03  0.54067743605E+03  0.41800000000E+01 0. -1.
         -5    1    1    2    0  502  0.19734594547E+02 -0.18919484994E+02  0.13282724554E+03  0.13567590314E+03  0.41800000000E+01 0. -1.
        -11    1    3    3    0    0  0.81938786578E+02 -0.22059855363E+02  0.32025948932E+03  0.33131064345E+03  0.00000000000E+00 0. -1.
         11    1    3    3    0    0 -0.54910216235E+01 -0.60567569308E+02  0.25581280418E+03  0.26294252709E+03  0.00000000000E+00 0.  1.
</event>
<event>
 7    1  0.4687179E-006  0.1609398E+03  0.7561462E-02  0.1187640E+00
          2   -1    0    0  501    0  0.00000000000E+00  0.00000000000E+00  0.33133867130E+03  0.33133867130E+03  0.00000000000E+00 0. -1.
         -2   -1    0    0    0  501 -0.00000000000E+00 -0.00000000000E+00 -0.10314503336E+03  0.10314503336E+03  0.00000000000E+00 0.  1.
         23    2    1    2    0    0 -0.89081098815E+02  0.93590754523E+01  0.14749296607E+03  0.19448267847E+03  0.89701185749E+02 0.  0.
          5    1    1    2  502    0 -0.67209586526E+02 -0.10220952414E+02  0.11722064139E+02  0.69112050880E+02  0.41800000000E+01 0. -1.
         -5    1    1    2    0  502  0.15629068534E+03  0.86187696206E+00  0.68978607735E+02  0.17088897531E+03  0.41800000000E+01 0.  1.
        -11    1    3    3    0    0 -0.18286019246E+02 -0.13826491749E+02  0.10752764531E+03  0.10994428079E+03  0.00000000000E+00 0.  1.
         11    1    3    3    0    0 -0.70795079570E+02  0.23185567201E+02  0.39965320761E+02  0.84538397674E+02  0.00000000000E+00 0. -1.
</event>
<event>
 7    1  0.4687179E-006  0.9514102E+02  0.7561462E-02  0.1290859E+00
         -2   -1    0    0    0  501 -0.00000000000E+00  0.00000000000E+00  0.10670137122E+03  0.10670137122E+03  0.00000000000E+00 0.  1.
          2   -1    0    0  501    0  0.00000000000E+00 -0.00000000000E+00 -0.14861711265E+03  0.14861711265E+03  0.00000000000E+00 0. -1.
         23    2    1    2    0    0 -0.42418802905E+02 -0.40212159287E+02 -0.42068407322E+02  0.11724625662E+03  0.92523300863E+02 0.  0.
          5    1    1    2  502    0 -0.36988163272E+01 -0.34358045063E+02  0.29386078927E+02  0.45554039750E+02  0.41800000000E+01 0. -1.
         -5    1    1    2    0  502  0.46117619232E+02  0.74570204350E+02 -0.29233413043E+02  0.92518187501E+02  0.41800000000E+01 0. -1.
        -11    1    3    3    0    0 -0.99791447751E+01 -0.32983471265E+02 -0.67239055955E+02  0.75555167612E+02  0.00000000000E+00 0. -1.
         11    1    3    3    0    0 -0.32439658130E+02 -0.72286880215E+01  0.25170648634E+02  0.41691089008E+02  0.00000000000E+00 0.  1.
</event>
<event>
 7    1  0.4687179E-006  0.1141866E+03  0.7561462E-02  0.1253008E+00
          1   -1    0    0  501    0  0.00000000000E+00  0.00000000000E+00  0.50802525210E+03  0.50802525210E+03  0.00000000000E+00 0. -1.
         -1   -1    0    0    0  501 -0.00000000000E+00 -0.00000000000E+00 -0.51394772511E+02  0.51394772511E+02  0.00000000000E+00 0.  1.
         23    2    1    2    0    0 -0.27930004091E+02  0.63336542954E+02  0.37722368216E+03  0.39591076936E+03  0.98265090989E+02 0.  0.
          5    1    1    2  502    0  0.68999921557E+02 -0.42813976421E+02  0.84329764726E+02  0.11714524050E+03  0.41800000000E+01 0.  1.
         -5    1    1    2    0  502 -0.41069917467E+02 -0.20522566534E+02 -0.49229672951E+01  0.46364014762E+02  0.41800000000E+01 0.  1.
        -11    1    3    3    0    0 -0.14959529604E+02 -0.15219457794E+02  0.17846315125E+02  0.27819244869E+02  0.00000000000E+00 0.  1.
         11    1    3    3    0    0 -0.12970474486E+02  0.78556000748E+02  0.35937736704E+03  0.36809152449E+03  0.00000000000E+00 0. -1.
</event>
<event>
 7    1  0.4687179E-006  0.1798569E+03  0.7561462E-02  0.1167942E+00
         -2   -1    0    0    0  501 -0.00000000000E+00  0.00000000000E+00  0.13548919045E+03  0.13548919045E+03  0.00000000000E+00 0.  1.
          2   -1    0    0  501    0  0.00000000000E+00 -0.00000000000E+00 -0.30904930284E+03  0.30904930284E+03  0.00000000000E+00 0. -1.
         23    2    1    2    0    0 -0.11454966779E+03  0.11217325079E+03 -0.12580092167E+02  0.18517404603E+03  0.91797080670E+02 0.  0.
          5    1    1    2  502    0  0.77623885161E+02  0.35660651013E+01 -0.88459585243E+02  0.11781661593E+03  0.41800000000E+01 0.  1.
         -5    1    1    2    0  502  0.36925782627E+02 -0.11573931589E+03 -0.72520434980E+02  0.14154783133E+03  0.41800000000E+01 0.  1.
        -11    1    3    3    0    0 -0.61154908495E+02  0.61178884376E+02  0.39222769287E+02  0.94980020831E+02  0.00000000000E+00 0.  1.
         11    1    3    3    0    0 -0.53394759293E+02  0.50994366413E+02 -0.51802861455E+02  0.90194025194E+02  0.00000000000E+00 0. -1.
</event>
<event>
 7    1  0.4687179E-006  0.1082044E+03  0.7561462E-02  0.1263932E+00
          2   -1    0    0  501    0  0.00000000000E+00  0.00000000000E+00  0.24693140366E+02  0.24693140366E+02  0.00000000000E+00 0. -1.
         -2   -1    0    0    0  501 -0.00000000000E+00 -0.00000000000E+00 -0.96761685967E+03  0.96761685967E+03  0.00000000000E+00 0.  1.
         23    2    1    2    0    0 -0.14694900016E+02 -0.49327072352E+02 -0.11450935955E+03  0.15498198234E+03  0.90873105318E+02 0.  0.
          5    1    1    2  502    0  0.79963863489E+01 -0.32763175847E+02 -0.36976568404E+03  0.37132398438E+03  0.41800000000E+01 0. -1.
         -5    1    1    2    0  502  0.66985136671E+01  0.82090248199E+02 -0.45864867572E+03  0.46600403332E+03  0.41800000000E+01 0.  1.
        -11    1    3    3    0    0 -0.49971846438E+02 -0.38414352792E+02 -0.49211974166E+02  0.79966657665E+02  0.00000000000E+00 0.  1.
         11    1    3    3    0    0  0.35276946422E+02 -0.10912719560E+02 -0.65297385387E+02  0.75015324670E+02  0.00000000000E+00 0. -1.
</event>
<event>
 7    1  0.4687179E-006  0.7045663E+02  0.7561462E-02  0.1358547E+00
          1   -1    0    0  501    0  0.00000000000E+00  0.00000000000E+00  0.72276554876E+02  0.72276554876E+02  0.00000000000E+00 0. -1.
         -1   -1    0    0    0  501 -0.00000000000E+00 -0.00000000000E+00 -0.18098947234E+03  0.18098947234E+03  0.00000000000E+00 0.  1.
         23    2    1    2    0    0 -0.14369038505E+02  0.17956282398E+02 -0.24487612602E+02  0.10071927587E+03  0.94951735193E+02 0.  0.
          5    1    1    2  502    0  0.33393802646E+02 -0.51982118569E+02 -0.25840943715E+01  0.61979324374E+02  0.41800000000E+01 0.  1.
         -5    1    1    2    0  502 -0.19024764141E+02  0.34025836172E+02 -0.81641210495E+02  0.90567426975E+02  0.41800000000E+01 0.  1.
        -11    1    3    3    0    0 -0.76065856814E+01 -0.91184211858E+01  0.33946498107E+02  0.35963460406E+02  0.00000000000E+00 0. -1.
         11    1    3    3    0    0 -0.67624528238E+01  0.27074703584E+02 -0.58434110709E+02  0.64755815466E+02  0.00000000000E+00 0.  1.
</event>
<event>
 7    1  0.4687179E-006  0.7859653E+02  0.7561462E-02  0.1333082E+00
         -2   -1    0    0    0  501 -0.00000000000E+00  0.00000000000E+00  0.23264253963E+03  0.23264253963E+03  0.00000000000E+00 0.  1.
          2   -1    0    0  501    0  0.00000000000E+00 -0.00000000000E+00 -0.69492816177E+02  0.69492816177E+02  0.00000000000E+00 0. -1.
         23    2    1    2    0    0  0.56781611718E+02 -0.17526398692E+02  0.39386377414E+02  0.11643129690E+03  0.92052344299E+02 0.  0.
          5    1    1    2  502    0  0.81458261130E+01 -0.13866608290E+02  0.11113325305E+03  0.11236863282E+03  0.41800000000E+01 0. -1.
         -5    1    1    2    0  502 -0.64927437831E+02  0.31393006981E+02  0.12630092987E+02  0.73335426087E+02  0.41800000000E+01 0. -1.
        -11    1    3    3    0    0  0.48935513536E+02  0.21712502930E+00  0.66824786787E+02  0.82826829937E+02  0.00000000000E+00 0.  1.
         11    1    3    3    0    0  0.78460981812E+01 -0.17743523721E+02 -0.27438409373E+02  0.33604466960E+02  0.00000000000E+00 0. -1.
</event>
<event>
 7    1  0.4687179E-006  0.1391858E+03  0.7561462E-02  0.1214429E+00
          2   -1    0    0  501    0  0.00000000000E+00  0.00000000000E+00  0.24176889742E+03  0.24176889742E+03  0.00000000000E+00 0. -1.
         -2   -1    0    0    0  501 -0.00000000000E+00 -0.00000000000E+00 -0.98503774408E+02  0.98503774408E+02  0.00000000000E+00 0.  1.
         23    2    1    2    0    0 -0.53700012211E+02  0.93865872879E+02  0.40652330434E+02  0.14566664007E+03  0.88722402227E+02 0.  0.
          5    1    1    2  502    0  0.44694272825E+02  0.51029255413E+00  0.87730425575E+02  0.98549167391E+02  0.41800000000E+01 0. -1.
         -5    1    1    2    0  502  0.90057393860E+01 -0.94376165433E+02  0.14882366998E+02  0.96056864363E+02  0.41800000000E+01 0. -1.
        -11    1    3    3    0    0  0.22819651875E+02  0.36095531324E+02  0.35193063174E+01  0.42848680379E+02  0.00000000000E+00 0.  1.
         11    1    3    3    0    0 -0.76519664085E+02  0.57770341555E+02  0.37133024117E+02  0.10281795969E+03  0.00000000000E+00 0. -1.
</event>
<event>
 7    1  0.4687179E-006  0.1442824E+03  0.7561462E-02  0.1207680E+00
         -2   -1    0    0    0  501 -0.00000000000E+00  0.00000000000E+00  0.50151807007E+02  0.50151807007E+02  0.00000000000E+00 0.  1.
          2   -1    0    0  501    0  0.00000000000E+00 -0.00000000000E+00 -0.52550110612E+03  0.52550110612E+03  0.00000000000E+00 0. -1.
         23    2    1    2    0    0  0.82092073257E+02  0.55346984538E+02 -0.34311779405E+03  0.36844482926E+03  0.90660765617E+02 0.  0.
          5    1    1    2  502    0 -0.11010249772E+03 -0.20008762784E+02 -0.10915349664E+03  0.15638052571E+03  0.41800000000E+01 0.  1.
         -5    1    1    2    0  502  0.28010424465E+02 -0.35338221754E+02 -0.23078008418E+02  0.50827558155E+02  0.41800000000E+01 0.  1.
        -11    1    3    3    0    0  0.13627429360E+02  0.61088283744E+02 -0.20228653081E+03  0.21174826042E+03  0.00000000000E+00 0.  1.
         11    1    3    3    0    0  0.68464643897E+02 -0.57412992062E+01 -0.14083126324E+03  0.15669656884E+03  0.00000000000E+00 0. -1.
</event>
<event>
 7    1  0.4687179E-006  0.1425129E+03  0.7561462E-02  0.1209987E+00
         -4   -1    0    0    0  501 -0.00000000000E+00  0.00000000000E+00  0.12687826141E+03  0.12687826141E+03  0.00000000000E+00 0.  1.
          4   -1    0    0  501    0  0.00000000000E+00 -0.00000000000E+00 -0.21977786048E+03  0.21977786048E+03  0.00000000000E+00 0. -1.
         23    2    1    2    0    0  0.89726415529E+02 -0.59673677662E+02 -0.11980580730E+03  0.17937581624E+03  0.78806564064E+02 0.  0.
          5    1    1    2  502    0 -0.37919909677E+02  0.94346424905E+02  0.83762271934E+01  0.10211170856E+03  0.41800000000E+01 0.  1.
         -5    1    1    2    0  502 -0.51806505853E+02 -0.34672747243E+02  0.18529981038E+02  0.65168597095E+02  0.41800000000E+01 0.  1.
        -11    1    3    3    0    0  0.65780741303E+02 -0.11218547932E+02 -0.27015298468E+02  0.71991583504E+02  0.00000000000E+00 0.  1.
         11    1    3    3    0    0  0.23945674226E+02 -0.48455129729E+02 -0.92790508828E+02  0.10738423273E+03  0.00000000000E+00 0. -1.
</event>
<event>
 7    1  0.4687179E-006  0.1302798E+03  0.7561462E-02  0.1227041E+00
          2   -1    0    0  501    0  0.00000000000E+00  0.00000000000E+00  0.57457397455E+03  0.57457397455E+03  0.00000000000E+00 0. -1.
         -2   -1    0    0    0  501 -0.00000000000E+00 -0.00000000000E+00 -0.31544972386E+02  0.31544972386E+02  0.00000000000E+00 0.  1.
         23    2    1    2    0    0  0.54164362553E+02 -0.51823221368E+02  0.30196828252E+03  0.32437958766E+03  0.91748835401E+02 0.  0.
          5    1    1    2  502    0 -0.93418906876E+02  0.23462824377E+02  0.14578807888E+03  0.17478338775E+03  0.41800000000E+01 0. -1.
         -5    1    1    2    0  502  0.39254544322E+02  0.28360396991E+02  0.95272640764E+02  0.10695597153E+03  0.41800000000E+01 0. -1.
        -11    1    3    3    0    0  0.21728793284E+02  0.24418552822E+02  0.12115582227E+03  0.12548760676E+03  0.00000000000E+00 0. -1.
         11    1    3    3    0    0  0.32435569270E+02 -0.76241774190E+02  0.18081246025E+03  0.19889198090E+03  0.00000000000E+00 0.  1.
</event>
<event>
 7    1  0.4687179E-006  0.1888874E+03  0.7561462E-02  0.1159469E+00
          3   -1    0    0  501    0  0.00000000000E+00  0.00000000000E+00  0.36077371877E+03  0.36077371877E+03  0.00000000000E+00 0. -1.
         -3   -1    0    0    0  501 -0.00000000000E+00 -0.00000000000E+00 -0.10551659176E+03  0.10551659176E+03  0.00000000000E+00 0.  1.
         23    2    1    2    0    0 -0.14973402043E+03 -0.70511401284E+02  0.89752572263E+02  0.20089955321E+03  0.70092593526E+02 0.  0.
          5    1    1    2  502    0  0.72941119343E+00 -0.28203721944E+02  0.19327133488E+02  0.34452756944E+02  0.41800000000E+01 0. -1.
         -5    1    1    2    0  502  0.14900460924E+03  0.98715123227E+02  0.14617742126E+03  0.23093800037E+03  0.41800000000E+01 0. -1.
        -11    1    3    3    0    0 -0.57660963062E+02 -0.58495109928E+01  0.62296694091E+02  0.85087493410E+02  0.00000000000E+00 0.  1.
         11    1    3    3    0    0 -0.92073057372E+02 -0.64661890291E+02  0.27455878172E+02  0.11581205980E+03  0.00000000000E+00 0. -1.
</event>
<event>
 7    1  0.4687179E-006  0.1202177E+03  0.7561462E-02  0.1242738E+00
          1   -1    0    0  501    0  0.00000000000E+00  0.00000000000E+00  0.98016802332E+02  0.98016802332E+02  0.00000000000E+00 0. -1.
         -1   -1    0    0    0  501 -0.00000000000E+00 -0.00000000000E+00 -0.40991463159E+03  0.40991463159E+03  0.00000000000E+00 0.  1.
         23    2    1    2    0    0  0.10858946595E+02  0.33472105933E+02  0.15410696276E+02  0.97813889558E+02  0.89954259677E+02 0.  0.
          5    1    1    2  502    0 -0.71980582584E+01  0.73191937253E+02 -0.88121560992E+01  0.74188935945E+02  0.41800000000E+01 0. -1.
         -5    1    1    2    0  502 -0.36608883371E+01 -0.10666404319E+03 -0.31849636943E+03  0.33592860842E+03  0.41800000000E+01 0.  1.
        -11    1    3    3    0    0 -0.16301158458E+02 -0.69505417897E+00  0.43127089521E+02  0.46110266947E+02  0.00000000000E+00 0. -1.
         11    1    3    3    0    0  0.27160105053E+02  0.34167160112E+02 -0.27716393245E+02  0.51703622611E+02  0.00000000000E+00 0.  1.
</event>
<event>
 7    1  0.4687179E-006  0.1290769E+03  0.7561462E-02  0.1228832E+00
          1   -1    0    0  501    0  0.00000000000E+00  0.00000000000E+00  0.31993065817E+03  0.31993065817E+03  0.00000000000E+00 0. -1.
         -1   -1    0    0    0  501 -0.00000000000E+00 -0.00000000000E+00 -0.90212169119E+02  0.90212169119E+02  0.00000000000E+00 0.  1.
         23    2    1    2    0    0 -0.77002537392E+02 -0.10313155395E+03  0.14020628763E+03  0.20958141234E+03  0.87755667178E+02 0.  0.
          5    1    1    2  502    0  0.23523972887E+02  0.24456025209E+02  0.99124574156E+02  0.10485527202E+03  0.41800000000E+01 0. -1.
         -5    1    1    2    0  502  0.53478564506E+02  0.78675528741E+02 -0.96123727364E+01  0.95706142926E+02  0.41800000000E+01 0. -1.
        -11    1    3    3    0    0 -0.59819497628E+02 -0.82156022513E+02  0.46003792357E+02  0.11155417179E+03  0.00000000000E+00 0.  1.
         11    1    3    3    0    0 -0.17183039765E+02 -0.20975531437E+02  0.94202495275E+02  0.98027240554E+02  0.00000000000E+00 0. -1.
</event>
<event>
 7    1  0.4687179E-006  0.5605724E+02  0.7561462E-02  0.1415164E+00
          1   -1    0    0  501    0  0.00000000000E+00  0.00000000000E+00  0.33654966367E+03  0.33654966367E+03  0.00000000000E+00 0. -1.
         -1   -1    0    0    0  501 -0.00000000000E+00 -0.00000000000E+00 -0.63522300871E+02  0.63522300871E+02  0.00000000000E+00 0.  1.
         23    2    1    2    0    0 -0.47260265259E+01 -0.14655994840E+02  0.25729118700E+03  0.27306912518E+03  0.90171274302E+02 0.  0.
          5    1    1    2  502    0 -0.52113129703E+01  0.15303662040E+02  0.69851833112E+02  0.71819989166E+02  0.41800000000E+01 0. -1.
         -5    1    1    2    0  502  0.99373394962E+01 -0.64766720017E+00 -0.54115657312E+02  0.55182850192E+02  0.41800000000E+01 0. -1.
        -11    1    3    3    0    0  0.29914549278E+02  0.19707299699E+02  0.16312647224E+03  0.16701348408E+03  0.00000000000E+00 0.  1.
         11    1    3    3    0    0 -0.34640575804E+02 -0.34363294538E+02  0.94164714761E+02  0.10605564110E+03  0.00000000000E+00 0. -1.
</event>
<event>
 7    1  0.4687179E-006  0.1075725E+03  0.7561462E-02  0.1265132E+00
          1   -1    0    0  501    0  0.00000000000E+00  0.00000000000E+00  0.13689079293E+03  0.13689079293E+03  0.00000000000E+00 0. -1.
         -1   -1    0    0    0  501 -0.00000000000E+00 -0.00000000000E+00 -0.10788026138E+03  0.10788026138E+03  0.00000000000E+00 0.  1.
         23    2    1    2    0    0 -0.85114574380E+01  0.11976272465E+02  0.65648873381E+02  0.11360109227E+03  0.91539923411E+02 0.  0.
          5    1    1    2  502    0 -0.55224960039E+02 -0.19153743640E+02 -0.31310348793E+01  0.58685073794E+02  0.41800000000E+01 0.  1.
         -5    1    1    2    0  502  0.63736417477E+02  0.71774711751E+01 -0.33507306957E+02  0.72484888251E+02  0.41800000000E+01 0.  1.
        -11    1    3    3    0    0 -0.15637559463E+02  0.50616136364E+02  0.43134372976E+02  0.68316181527E+02  0.00000000000E+00 0.  1.
         11    1    3    3    0    0  0.71261020252E+01 -0.38639863899E+02  0.22514500405E+02  0.45284910739E+02  0.00000000000E+00 0. -1.
</event>
<event>
 7    1  0.4687179E-006  0.1361710E+03  0.7561462E-02  0.1218576E+00
         -1   -1    0    0    0  501 -0.00000000000E+00  0.00000000000E+00  0.12282791146E+03  0.12282791146E+03  0.00000000000E+00 0.  1.
          1   -1    0    0  501    0  0.00000000000E+00 -0.00000000000E+00 -0.37845441165E+03  0.37845441165E+03  0.00000000000E+00 0. -1.
         23    2    1    2    0    0 -0.87572745366E+02 -0.15237728946E+02 -0.31263991642E+03  0.33757740417E+03  0.91179012681E+02 0.  0.
          5    1    1    2  502    0  0.10890966636E+03  0.37664177739E+02  0.23112472641E+02  0.11760767196E+03  0.41800000000E+01 0. -1.
         -5    1    1    2    0  502 -0.21336920998E+02 -0.22426448793E+02  0.33900943587E+02  0.46097246981E+02  0.41800000000E+01 0. -1.
        -11    1    3    3    0    0 -0.59351381590E+02  0.34467496341E+02 -0.19634632959E+03  0.20799633637E+03  0.00000000000E+00 0.  1.
         11    1    3    3    0    0 -0.28221363776E+02 -0.49705225287E+02 -0.11629358683E+03  0.12958106780E+03  0.00000000000E+00 0. -1.
</event>
<event>
 7    1  0.4687179E-006  0.1361584E+03  0.7561462E-02  0.1218594E+00
          2   -1    0    0  501    0  0.00000000000E+00  0.00000000000E+00  0.70865913284E+03  0.70865913284E+03  0.00000000000E+00 0. -1.
         -2   -1    0    0    0  501 -0.00000000000E+00 -0.00000000000E+00 -0.40672950901E+02  0.40672950901E+02  0.00000000000E+00 0.  1.
         23    2    1    2    0    0 -0.29988824527E+02  0.12633682832E+03  0.34090531824E+03  0.37585605519E+03  0.90504223271E+02 0.  0.
          5    1    1    2  502    0  0.57810430027E+01 -0.68805486398E+02  0.40523818657E+02  0.80170241956E+02  0.41800000000E+01 0. -1.
         -5    1    1    2    0  502  0.24207781524E+02 -0.57531341918E+02  0.28655704504E+03  0.29330578660E+03  0.41800000000E+01 0. -1.
        -11    1    3    3    0    0 -0.45782980149E+02  0.97230574442E+02  0.31779193408E+03  0.33547217358E+03  0.00000000000E+00 0. -1.
         11    1    3    3    0    0  0.15794155622E+02  0.29106253875E+02  0.23113384156E+02  0.40383881606E+02  0.00000000000E+00 0.  1.
</event>
<event>
 7    1  0.4687179E-006  0.1098878E+03  0.7561462E-02  0.1260778E+00
          1   -1    0    0  501    0  0.00000000000E+00  0.00000000000E+00  0.55037249298E+03  0.55037249298E+03  0.00000000000E+00 0. -1.
         -1   -1    0    0    0  501 -0.00000000000E+00 -0.00000000000E+00 -0.36841509514E+02  0.36841509514E+02  0.00000000000E+00 0.  1.
         23    2    1    2    0    0 -0.19040045585E+02 -0.81066795642E+02  0.30061450331E+03  0.32660968292E+03  0.96801119229E+02 0.  0.
          5    1    1    2  502    0  0.44959256009E+02  0.10817616075E+02  0.14743044759E+02  0.48715349605E+02  0.41800000000E+01 0.  1.
         -5    1    1    2    0  502 -0.25919210424E+02  0.70249179567E+02  0.19817343540E+03  0.21188896997E+03  0.41800000000E+01 0.  1.
        -11    1    3    3    0    0  0.63899289056E+00 -0.78501847289E+02  0.29600173129E+03  0.30623516008E+03  0.00000000000E+00 0. -1.
         11    1    3    3    0    0 -0.19679038475E+02 -0.25649483528E+01  0.46127720204E+01  0.20374522843E+02  0.00000000000E+00 0.  1.
</event>
<event>
 7    1  0.9862195E-006  0.2133589E+03  0.7561462E-02  0.1138933E+00
          1   -1    0    0  501    0  0.00000000000E+00  0.00000000000E+00  0.24403320346E+03  0.24403320346E+03  0.00000000000E+00 0. -1.
         -1   -1    0    0    0  501 -0.00000000000E+00 -0.00000000000E+00 -0.20430266010E+03  0.20430266010E+03  0.00000000000E+00 0.  1.
         23    2    1    2    0    0 -0.18166528267E+03  0.67199432852E+02 -0.74324851970E+00  0.21423420656E+03  0.91529799189E+02 0.  0.
          5    1    1    2  502    0  0.92369453018E+02  0.14506436646E+02  0.60362581291E+02  0.11137174765E+03  0.41800000000E+01 0.  1.
         -5    1    1    2    0  502  0.89295829648E+02 -0.81705869498E+02 -0.19888789413E+02  0.12272990934E+03  0.41800000000E+01 0.  1.
        -11    1    3    3    0    0 -0.11060511869E+03 -0.49920039497E+01  0.14970785182E+02  0.11172527374E+03  0.00000000000E+00 0. -1.
         11    1    3    3    0    0 -0.71060163975E+02  0.72191436802E+02 -0.15714033702E+02  0.10250893281E+03  0.00000000000E+00 0.  1.
</event>
<event>
 7    1  0.4687179E-006  0.1398910E+03  0.7561462E-02  0.1213476E+00
         -2   -1    0    0    0  501 -0.00000000000E+00  0.00000000000E+00  0.46573748057E+02  0.46573748057E+02  0.00000000000E+00 0.  1.
          2   -1    0    0  501    0  0.00000000000E+00 -0.00000000000E+00 -0.67473358102E+03  0.67473358102E+03  0.00000000000E+00 0. -1.
         23    2    1    2    0    0 -0.11100749240E+03 -0.61690379003E+02 -0.41481536517E+03  0.44329655787E+03  0.91168441923E+02 0.  0.
          5    1    1    2  502    0  0.67836815526E+02  0.63485039647E+01 -0.19314696905E+03  0.20485448761E+03  0.41800000000E+01 0. -1.
         -5    1    1    2    0  502  0.43170676875E+02  0.55341875038E+02 -0.20197498748E+02  0.73156283601E+02  0.41800000000E+01 0. -1.
        -11    1    3    3    0    0 -0.39696697556E+02  0.91000509620E+01 -0.22369134467E+03  0.22736854753E+03  0.00000000000E+00 0. -1.
         11    1    3    3    0    0 -0.71310794845E+02 -0.70790429965E+02 -0.19112402050E+03  0.21592801034E+03  0.00000000000E+00 0.  1.
</event>
<event>
 6    1  0.4687179E-006  0.1347001E+03  0.7561462E-02  0.1220644E+00
          1   -1    0    0  501    0  0.00000000000E+00  0.00000000000E+00  0.32344782252E+03  0.32344782252E+03  0.00000000000E+00 0. -1.
         -1   -1    0    0    0  501 -0.00000000000E+00 -0.00000000000E+00 -0.62708927698E+02  0.62708927698E+02  0.00000000000E+00 0.  1.
          5    1    1    2  502    0  0.42045680075E+02  0.22288585794E+02  0.80120607812E+02  0.93281318954E+02  0.41800000000E+01 0.  1.
         -5    1    1    2    0  502  0.31261228588E+02 -0.99065881886E+02  0.46164689279E+02  0.11375396390E+03  0.41800000000E+01 0.  1.
        -11    1    1    2    0    0  0.30431509475E+01  0.25526609139E+02  0.21832346030E+02  0.33727138553E+02  0.00000000000E+00 0.  1.
         11    1    1    2    0    0 -0.76350059610E+02  0.51250686953E+02  0.11262125170E+03  0.14539432881E+03  0.00000000000E+00 0. -1.
</event>
<event>
 7    1  0.4687179E-006  0.1776268E+03  0.7561462E-02  0.1170120E+00
         -2   -1    0    0    0  501 -0.00000000000E+00  0.00000000000E+00  0.23133874057E+03  0.23133874057E+03  0.00000000000E+00 0.  1.
          2   -1    0    0  501    0  0.00000000000E+00 -0.00000000000E+00 -0.14501223411E+03  0.14501223411E+03  0.00000000000E+00 0. -1.
         23    2    1    2    0    0 -0.44785324741E+02  0.14027575603E+03  0.45141312501E+02  0.17885730625E+03  0.90935058493E+02 0.  0.
          5    1    1    2  502    0  0.79746382852E+02 -0.76246906128E+02 -0.58956974986E+01  0.11056811440E+03  0.41800000000E+01 0. -1.
         -5    1    1    2    0  502 -0.34961058110E+02 -0.64028849899E+02  0.47080891466E+02  0.86925554038E+02  0.41800000000E+01 0. -1.
        -11    1    3    3    0    0 -0.68840324861E+02  0.73070382812E+02  0.37093783125E+02  0.10702438936E+03  0.00000000000E+00 0. -1.
         11    1    3    3    0    0  0.24055000120E+02  0.67205373214E+02  0.80475293756E+01  0.71832916888E+02  0.00000000000E+00 0.  1.
</event>
<event>
 7    1  0.4687179E-006  0.8157416E+02  0.7561462E-02  0.1324643E+00
          1   -1    0    0  501    0  0.00000000000E+00  0.00000000000E+00  0.57102156064E+03  0.57102156064E+03  0.00000000000E+00 0. -1.
         -1   -1    0    0    0  501 -0.00000000000E+00 -0.00000000000E+00 -0.23950641994E+02  0.23950641994E+02  0.00000000000E+00 0.  1.
         23    2    1    2    0    0  0.28886982116E+02  0.90425265861E+01  0.31592541455E+03  0.33041176836E+03  0.91906714053E+02 0.  0.
          5    1    1    2  502    0 -0.35732666150E+02 -0.31933824572E+02  0.23511168703E+03  0.23998243761E+03  0.41800000000E+01 0.  1.
         -5    1    1    2    0  502  0.68456840340E+01  0.22891297986E+02 -0.39661829295E+01  0.24577996672E+02  0.41800000000E+01 0.  1.
        -11    1    3    3    0    0  0.26533080908E+02 -0.36532924937E+02  0.21437451468E+03  0.21907782072E+03  0.00000000000E+00 0.  1.
         11    1    3    3    0    0  0.23539012081E+01  0.45575451523E+02  0.10155089987E+03  0.11133394764E+03  0.00000000000E+00 0. -1.
</event>
<event>
 7    1  0.4828491E-006  0.1130937E+03  0.7561462E-02  0.1254946E+00
         -2   -1    0    0    0  501 -0.00000000000E+00  0.00000000000E+00  0.30286638804E+02  0.30286638804E+02  0.00000000000E+00 0.  1.
          2   -1    0    0  501    0  0.00000000000E+00 -0.00000000000E+00 -0.65851499280E+03  0.65851499280E+03  0.00000000000E+00 0. -1.
         23    2    1    2    0    0  0.56517131865E+02 -0.16697051495E+02 -0.45128960535E+03  0.46424024710E+03  0.91562663831E+02 0.  0.
          5    1    1    2  502    0 -0.92872785443E+02  0.18804662606E+02 -0.92395522583E+02  0.13241364962E+03  0.41800000000E+01 0.  1.
         -5    1    1    2    0  502  0.36355653577E+02 -0.21076111113E+01 -0.84543226068E+02  0.92147734891E+02  0.41800000000E+01 0.  1.
        -11    1    3    3    0    0 -0.92161151330E+01 -0.26650828685E+02 -0.49342515056E+02  0.56832096915E+02  0.00000000000E+00 0.  1.
         11    1    3    3    0    0  0.65733246998E+02  0.99537771901E+01 -0.40194709029E+03  0.40740815018E+03  0.00000000000E+00 0. -1.
</event>
<event>
 7    1  0.4687179E-006  0.8925738E+02  0.7561462E-02  0.1304660E+00
         -1   -1    0    0    0  501 -0.00000000000E+00  0.00000000000E+00  0.63278166617E+02  0.63278166617E+02  0.00000000000E+00 0.  1.
          1   -1    0    0  501    0  0.00000000000E+00 -0.00000000000E+00 -0.34441177149E+03  0.34441177149E+03  0.00000000000E+00 0. -1.
         23    2    1    2    0    0  0.47963705171E+02  0.65857154161E+02 -0.20830310723E+03  0.24157962081E+03  0.91284428797E+02 0.  0.
          5    1    1    2  502    0 -0.36119312740E+02 -0.45632661722E+02  0.26415775468E+02  0.64048498517E+02  0.41800000000E+01 0. -1.
         -5    1    1    2    0  502 -0.11844392430E+02 -0.20224492439E+02 -0.99246273105E+02  0.10206181878E+03  0.41800000000E+01 0. -1.
        -11    1    3    3    0    0  0.54570970096E+02  0.35061974663E+02 -0.19813623251E+03  0.20848333142E+03  0.00000000000E+00 0. -1.
         11    1    3    3    0    0 -0.66072649251E+01  0.30795179498E+02 -0.10166874720E+02  0.33096289394E+02  0.00000000000E+00 0.  1.
</event>
<event>
 7    1  0.4687179E-006  0.1264238E+03  0.7561462E-02  0.1232861E+00
         -2   -1    0    0    0  501 -0.00000000000E+00  0.00000000000E+00  0.85280924053E+03  0.85280924053E+03  0.00000000000E+00 0.  1.
          2   -1    0    0  501    0  0.00000000000E+00 -0.00000000000E+00 -0.32058302685E+02  0.32058302685E+02  0.00000000000E+00 0. -1.
         23    2    1    2    0    0  0.52755248752E+02  0.44940312431E+02  0.10111123475E+03  0.15115684589E+03  0.88442989058E+02 0.  0.
          5    1    1    2  502    0 -0.93518296975E+02 -0.23812264023E+02  0.46407414771E+03  0.47402002359E+03  0.41800000000E+01 0.  1.
         -5    1    1    2    0  502  0.40763048223E+02 -0.21128048408E+02  0.25556555538E+03  0.25969067374E+03  0.41800000000E+01 0.  1.
        -11    1    3    3    0    0  0.36084115100E+01 -0.24674269768E+02  0.36551928505E+02  0.44247979611E+02  0.00000000000E+00 0.  1.
         11    1    3    3    0    0  0.49146837242E+02  0.69614582199E+02  0.64559306246E+02  0.10690886628E+03  0.00000000000E+00 0. -1.
</event>
<event>
 7    1  0.4687179E-006  0.2545393E+03  0.7561462E-02  0.1110469E+00
          2   -1    0    0  501    0  0.00000000000E+00  0.00000000000E+00  0.44931257006E+03  0.44931257006E+03  0.00000000000E+00 0. -1.
         -2   -1    0    0    0  501 -0.00000000000E+00 -0.00000000000E+00 -0.17809334647E+03  0.17809334647E+03  0.00000000000E+00 0.  1.
         23    2    1    2    0    0  0.11785973734E+03  0.20928557199E+03  0.24535441738E+03  0.35536357247E+03  0.91613919151E+02 0.  0.
          5    1    1    2  502    0  0.22450077596E+02 -0.19140947741E+02 -0.13023430464E+02  0.32518671645E+02  0.41800000000E+01 0. -1.
         -5    1    1    2    0  502 -0.14030981494E+03 -0.19014462425E+03  0.38888236672E+02  0.23952367242E+03  0.41800000000E+01 0. -1.
        -11    1    3    3    0    0  0.80886322123E+02  0.10671820069E+03  0.76067573678E+02  0.15400534806E+03  0.00000000000E+00 0.  1.
         11    1    3    3    0    0  0.36973415218E+02  0.10256737130E+03  0.16928684371E+03  0.20135822442E+03  0.00000000000E+00 0. -1.
</event>
<event>
 7    1  0.4687179E-006  0.7195044E+02  0.7561462E-02  0.1353583E+00
          2   -1    0    0  501    0  0.00000000000E+00  0.00000000000E+00  0.21632395903E+03  0.21632395903E+03  0.00000000000E+00 0. -1.
         -2   -1    0    0    0  501 -0.00000000000E+00 -0.00000000000E+00 -0.57162007681E+02  0.57162007681E+02  0.00000000000E+00 0.  1.
         23    2    1    2    0    0  0.90218656561E+01  0.37083520129E+02  0.66388894611E+02  0.11314032400E+03  0.83286649962E+02 0.  0.
          5    1    1    2  502    0 -0.43763154971E+02 -0.46691148818E+02  0.10415532164E+03  0.12231549589E+03  0.41800000000E+01 0.  1.
         -5    1    1    2    0  502  0.34741289315E+02  0.96076286881E+01 -0.11382264902E+02  0.38030146813E+02  0.41800000000E+01 0.  1.
        -11    1    3    3    0    0 -0.43848063131E+00  0.33286523654E+02  0.85350235746E+02  0.91612486398E+02  0.00000000000E+00 0. -1.
         11    1    3    3    0    0  0.94603462874E+01  0.37969964750E+01 -0.18961341135E+02  0.21527837600E+02  0.00000000000E+00 0.  1.
</event>
<event>
 7    1  0.4687179E-006  0.9056631E+02  0.7561462E-02  0.1301486E+00
          3   -1    0    0  501    0  0.00000000000E+00  0.00000000000E+00  0.30688604171E+02  0.30688604171E+02  0.00000000000E+00 0. -1.
         -3   -1    0    0    0  501 -0.00000000000E+00 -0.00000000000E+00 -0.49881990680E+03  0.49881990680E+03  0.00000000000E+00 0.  1.
         23    2    1    2    0    0 -0.53536133321E+02  0.29571094797E+02 -0.14672523796E+03  0.17883707256E+03  0.81938000032E+02 0.  0.
          5    1    1    2  502    0  0.47939908239E+02  0.53736526187E+01 -0.30925201128E+03  0.31301979142E+03  0.41800000000E+01 0.  1.
         -5    1    1    2    0  502  0.55962250817E+01 -0.34944747416E+02 -0.12154053396E+02  0.37651646990E+02  0.41800000000E+01 0. -1.
        -11    1    3    3    0    0 -0.78913502395E+01  0.47414864725E+02 -0.10079673985E+03  0.11167105968E+03  0.00000000000E+00 0. -1.
         11    1    3    3    0    0 -0.45644783081E+02 -0.17843769928E+02 -0.45928498112E+02  0.67166012883E+02  0.00000000000E+00 0.  1.
</event>
<event>
 7    1  0.4687179E-006  0.1413741E+03  0.7561462E-02  0.1211492E+00
          2   -1    0    0  501    0  0.00000000000E+00  0.00000000000E+00  0.11431165599E+03  0.11431165599E+03  0.00000000000E+00 0. -1.
         -2   -1    0    0    0  501 -0.00000000000E+00 -0.00000000000E+00 -0.25652688551E+03  0.25652688551E+03  0.00000000000E+00 0.  1.
         23    2    1    2    0    0 -0.10275812912E+03 -0.32896857946E+02  0.17307136922E+02  0.14119386501E+03  0.89413277345E+02 0.  0.
          5    1    1    2  502    0 -0.15988662863E+02  0.15939813452E+02 -0.85728177495E+02  0.88749691885E+02  0.41800000000E+01 0. -1.
         -5    1    1    2    0  502  0.11874679198E+03  0.16957044494E+02 -0.73794188956E+02  0.14089498461E+03  0.41800000000E+01 0. -1.
        -11    1    3    3    0    0 -0.41661968404E+01 -0.40653972057E+02  0.44048911839E+00  0.40869263154E+02  0.00000000000E+00 0.  1.
         11    1    3    3    0    0 -0.98591932276E+02  0.77571141109E+01  0.16866647804E+02  0.10032460186E+03  0.00000000000E+00 0. -1.
</event>
<event>
 7    1  0.4687179E-006  0.1050420E+03  0.7561462E-02  0.1270037E+00
         -2   -1    0    0    0  501 -0.00000000000E+00  0.00000000000E+00  0.94752317348E+02  0.94752317348E+02  0.00000000000E+00 0.  1.
          2   -1    0    0  501    0  0.00000000000E+00 -0.00000000000E+00 -0.16710021833E+03  0.16710021833E+03  0.00000000000E+00 0. -1.
         23    2    1    2    0    0 -0.45040722285E+02  0.47011264582E+02 -0.38032832487E+02  0.11690827348E+03  0.89343843655E+02 0.  0.
          5    1    1    2  502    0  0.44151640803E+02 -0.80834268771E+02  0.56983081519E+01  0.92376888393E+02  0.41800000000E+01 0. -1.
         -5    1    1    2    0  502  0.88908148227E+00  0.33823004189E+02 -0.40013376643E+02  0.52567373804E+02  0.41800000000E+01 0. -1.
        -11    1    3    3    0    0 -0.30262171719E+02 -0.41434587504E+01 -0.53373712539E+02  0.61495694790E+02  0.00000000000E+00 0. -1.
         11    1    3    3    0    0 -0.14778550567E+02  0.51154723332E+02  0.15340880052E+02  0.55412578688E+02  0.00000000000E+00 0.  1.
</event>
<event>
 7    1  0.4687179E-006  0.1280294E+03  0.7561462E-02  0.1230409E+00
         -3   -1    0    0    0  501 -0.00000000000E+00  0.00000000000E+00  0.13945351433E+03  0.13945351433E+03  0.00000000000E+00 0.  1.
          3   -1    0    0  501    0  0.00000000000E+00 -0.00000000000E+00 -0.19433123517E+03  0.19433123517E+03  0.00000000000E+00 0. -1.
         23    2    1    2    0    0 -0.11104853763E+03 -0.93577090510E+01 -0.80580798168E+02  0.16429246931E+03  0.89885516135E+02 0.  0.
          5    1    1    2  502    0  0.85425366071E+02  0.67084190080E+00  0.74574161421E+02  0.11347564121E+03  0.41800000000E+01 0.  1.
         -5    1    1    2    0  502  0.25623171556E+02  0.86868671502E+01 -0.48871084094E+02  0.56016638975E+02  0.41800000000E+01 0.  1.
        -11    1    3    3    0    0 -0.12692123031E+03 -0.71017530528E+01 -0.70640731972E+02  0.14542883694E+03  0.00000000000E+00 0.  1.
         11    1    3    3    0    0  0.15872692680E+02 -0.22559559982E+01 -0.99400661961E+01  0.18863632374E+02  0.00000000000E+00 0. -1.
</event>
<event>
 7    1  0.4687179E-006  0.1389728E+03  0.7561462E-02  0.1214718E+00
         -3   -1    0    0    0  501 -0.00000000000E+00  0.00000000000E+00  0.43584634618E+03  0.43584634618E+03  0.00000000000E+00 0.  1.
          3   -1    0    0  501    0  0.00000000000E+00 -0.00000000000E+00 -0.59636884287E+02  0.59636884287E+02  0.00000000000E+00 0. -1.
         23    2    1    2    0    0  0.13306145561E+02 -0.98852974086E+02  0.80420441580E+02  0.15919779297E+03  0.94485585506E+02 0.  0.
          5    1    1    2  502    0 -0.57976613667E+02  0.58200457765E+02  0.24092921217E+03  0.25458385395E+03  0.41800000000E+01 0. -1.
         -5    1    1    2    0  502  0.44670468106E+02  0.40652516321E+02  0.54859808147E+02  0.81701583547E+02  0.41800000000E+01 0. -1.
        -11    1    3    3    0    0 -0.39149383413E+02 -0.35040770045E+02  0.17568597193E+02  0.55400229190E+02  0.00000000000E+00 0.  1.
         11    1    3    3    0    0  0.52455528974E+02 -0.63812204041E+02  0.62851844388E+02  0.10379756378E+03  0.00000000000E+00 0. -1.
</event>
<event>
 7    1  0.4687179E-006  0.1343532E+03  0.7561462E-02  0.1221136E+00
         -2   -1    0    0    0  501 -0.00000000000E+00  0.00000000000E+00  0.29275691539E+02  0.29275691539E+02  0.00000000000E+00 0.  1.
          2   -1    0    0  501    0  0.00000000000E+00 -0.00000000000E+00 -0.76576822311E+03  0.76576822311E+03  0.00000000000E+00 0. -1.
         23    2    1    2    0    0 -0.28073769685E+02  0.96597969428E+02 -0.40101656992E+03  0.42314575866E+03  0.90104048090E+02 0.  0.
          5    1    1    2  502    0  0.59059509967E+02 -0.48153568488E+02 -0.28572979034E+03  0.29574613669E+03  0.41800000000E+01 0. -1.
         -5    1    1    2    0  502 -0.30985740283E+02 -0.48444400940E+02 -0.49746171305E+02  0.76152019295E+02  0.41800000000E+01 0. -1.
        -11    1    3    3    0    0 -0.60901570507E+02  0.58585883613E+02 -0.23727911281E+03  0.25187831273E+03  0.00000000000E+00 0.  1.
         11    1    3    3    0    0  0.32827800822E+02  0.38012085815E+02 -0.16373745711E+03  0.17126744594E+03  0.00000000000E+00 0. -1.
</event>
<event>
 7    1  0.4687179E-006  0.9136648E+02  0.7561462E-02  0.1299576E+00
          1   -1    0    0  501    0  0.00000000000E+00  0.00000000000E+00  0.87903288157E+02  0.87903288157E+02  0.00000000000E+00 0. -1.
         -1   -1    0    0    0  501 -0.00000000000E+00 -0.00000000000E+00 -0.17459432598E+03  0.17459432598E+03  0.00000000000E+00 0.  1.
         23    2    1    2    0    0  0.34638267040E+01  0.40536646778E+02  0.96070360990E+01  0.99468639354E+02  0.90257948375E+02 0.  0.
          5    1    1    2  502    0  0.33261061711E+02 -0.32798447217E+02 -0.11253986814E+03  0.12192100182E+03  0.41800000000E+01 0. -1.
         -5    1    1    2    0  502 -0.36724888415E+02 -0.77381995610E+01  0.16241794212E+02  0.41107972959E+02  0.41800000000E+01 0. -1.
        -11    1    3    3    0    0  0.52040145010E+00 -0.28733416058E+02  0.90650394086E+01  0.30133950215E+02  0.00000000000E+00 0.  1.
         11    1    3    3    0    0  0.29434252539E+01  0.69270062837E+02  0.54199669042E+00  0.69334689139E+02  0.00000000000E+00 0. -1.
</event>
<event>
 7    1  0.4687179E-006  0.1427082E+03  0.7561462E-02  0.1209731E+00
          3   -1    0    0  501    0  0.00000000000E+00  0.00000000000E+00  0.28612435720E+03  0.28612435720E+03  0.00000000000E+00 0. -1.
         -3   -1    0    0    0  501 -0.00000000000E+00 -0.00000000000E+00 -0.10457238673E+03  0.10457238673E+03  0.00000000000E+00 0.  1.
         23    2    1    2    0    0  0.93039305576E+02  0.82460359052E+02  0.13421797081E+03  0.20416799476E+03  0.90631579466E+02 0.  0.
          5    1    1    2  502    0 -0.27919818331E+02 -0.77992568027E+02  0.78387849625E+02  0.11412486272E+03  0.41800000000E+01 0. -1.
         -5    1    1    2    0  502 -0.65119487245E+02 -0.44677910249E+01 -0.31053849958E+02  0.72403886449E+02  0.41800000000E+01 0.  1.
        -11    1    3    3    0    0  0.53774268292E+02  0.81680588646E+02  0.13273196302E+03  0.16486711164E+03  0.00000000000E+00 0.  1.
         11    1    3    3    0    0  0.39265037284E+02  0.77977040547E+00  0.14860077915E+01  0.39300883119E+02  0.00000000000E+00 0. -1.
</event>
<event>
 7    1  0.4687179E-006  0.2101173E+03  0.7561462E-02  0.1141473E+00
          2   -1    0    0  501    0  0.00000000000E+00  0.00000000000E+00  0.75573656541E+03  0.75573656541E+03  0.00000000000E+00 0. -1.
         -2   -1    0    0    0  501 -0.00000000000E+00 -0.00000000000E+00 -0.60236557865E+02  0.60236557865E+02  0.00000000000E+00 0.  1.
         23    2    1    2    0    0 -0.16554282238E+03  0.75221747451E+02  0.29497155525E+03  0.35866238682E+03  0.92562151976E+02 0.  0.
          5    1    1    2  502    0  0.17690491899E+03 -0.39212275237E+02  0.34940898916E+03  0.39362046059E+03  0.41800000000E+01 0. -1.
         -5    1    1    2    0  502 -0.11362096610E+02 -0.36009472214E+02  0.51119463135E+02  0.63690275864E+02  0.41800000000E+01 0. -1.
        -11    1    3    3    0    0 -0.11938325288E+03  0.82614807316E+01  0.14450555665E+03  0.18762321028E+03  0.00000000000E+00 0. -1.
         11    1    3    3    0    0 -0.46159569496E+02  0.66960266720E+02  0.15046599860E+03  0.17103917654E+03  0.00000000000E+00 0.  1.
</event>
<event>
 7    1  0.4687179E-006  0.8661131E+02  0.7561462E-02  0.1311272E+00
          1   -1    0    0  501    0  0.00000000000E+00  0.00000000000E+00  0.30132026823E+03  0.30132026823E+03  0.00000000000E+00 0. -1.
         -1   -1    0    0    0  501 -0.00000000000E+00 -0.00000000000E+00 -0.48102403121E+02  0.48102403121E+02  0.00000000000E+00 0.  1.
         23    2    1    2    0    0  0.40341580492E+01  0.41790311132E+01  0.18739146986E+03  0.20795098599E+03  0.89968388135E+02 0.  0.
          5    1    1    2  502    0 -0.43678283192E+02 -0.26459049979E+02 -0.10710689710E+02  0.52345630405E+02  0.41800000000E+01 0.  1.
         -5    1    1    2    0  502  0.39644125143E+02  0.22280018866E+02  0.76537084959E+02  0.89126054962E+02  0.41800000000E+01 0.  1.
        -11    1    3    3    0    0  0.16799241970E+02  0.37252668432E+02  0.15371376135E+03  0.15905312403E+03  0.00000000000E+00 0. -1.
         11    1    3    3    0    0 -0.12765083921E+02 -0.33073637319E+02  0.33677708510E+02  0.48897861952E+02  0.00000000000E+00 0.  1.
</event>
<event>
 6    1  0.4687179E-006  0.1293799E+03  0.7561462E-02  0.1228379E+00
          2   -1    0    0  501    0  0.00000000000E+00  0.00000000000E+00  0.83212212158E+03  0.83212212158E+03  0.00000000000E+00 0.  1.
         -2   -1    0    0    0  501 -0.00000000000E+00 -0.00000000000E+00 -0.31088014246E+02  0.31088014246E+02  0.00000000000E+00 0. -1.
          5    1    1    2  502    0  0.52205298531E+02  0.98848826766E+01  0.48660944237E+02  0.72169688888E+02  0.41800000000E+01 0. -1.
         -5    1    1    2    0  502 -0.48463569292E+02  0.39211818123E+02  0.21341651394E+03  0.22237438039E+03  0.41800000000E+01 0. -1.
        -11    1    1    2    0    0  0.58655907531E+02 -0.54868675358E+02  0.46430086885E+03  0.47119675704E+03  0.00000000000E+00 0.  1.
         11    1    1    2    0    0 -0.62397636770E+02  0.57719745587E+01  0.74655780302E+02  0.97469309515E+02  0.00000000000E+00 0. -1.
</event>
<event>
 7    1  0.4687179E-006  0.1053648E+03  0.7561462E-02  0.1269402E+00
          2   -1    0    0  501    0  0.00000000000E+00  0.00000000000E+00  0.36792581177E+03  0.36792581177E+03  0.00000000000E+00 0. -1.
         -2   -1    0    0    0  501 -0.00000000000E+00 -0.00000000000E+00 -0.37508761840E+02  0.37508761840E+02  0.00000000000E+00 0.  1.
         23    2    1    2    0    0  0.20625310513E+02  0.11834280302E+02  0.21126686641E+03  0.23105099063E+03  0.90473298841E+02 0.  0.
          5    1    1    2  502    0 -0.72268116573E+02 -0.15429998648E+02  0.82394175096E+02  0.11075666129E+03  0.41800000000E+01 0. -1.
         -5    1    1    2    0  502  0.51642806060E+02  0.35957183464E+01  0.36756008419E+02  0.63626921685E+02  0.41800000000E+01 0. -1.
        -11    1    3    3    0    0 -0.26859464482E+02 -0.14454712263E+02  0.34074804172E+02  0.45732502864E+02  0.00000000000E+00 0.  1.
         11    1    3    3    0    0  0.47484774996E+02  0.26288992565E+02  0.17719206224E+03  0.18531848776E+03  0.00000000000E+00 0. -1.
</event>
<event>
 7    1  0.4687179E-006  0.8587348E+02  0.7561462E-02  0.1313164E+00
         -1   -1    0    0    0  501 -0.00000000000E+00  0.00000000000E+00  0.59964756457E+03  0.59964756457E+03  0.00000000000E+00 0.  1.
          1   -1    0    0  501    0  0.00000000000E+00 -0.00000000000E+00 -0.25928027200E+02  0.25928027200E+02  0.00000000000E+00 0. -1.
         23    2    1    2    0    0  0.40770327775E+02  0.50454030056E+02  0.25763749868E+03  0.27950635651E+03  0.86826803609E+02 0.  0.
          5    1    1    2  502    0 -0.49734325198E+02 -0.31969148088E+02  0.31939194360E+03  0.32484491003E+03  0.41800000000E+01 0. -1.
         -5    1    1    2    0  502  0.89639974226E+01 -0.18484881969E+02 -0.33099049151E+01  0.21224325236E+02  0.41800000000E+01 0. -1.
        -11    1    3    3    0    0  0.15134762469E+01  0.52194386979E+02  0.67439180197E+02  0.85291193380E+02  0.00000000000E+00 0.  1.
         11    1    3    3    0    0  0.39256851529E+02 -0.17403569224E+01  0.19019831849E+03  0.19421516313E+03  0.00000000000E+00 0. -1.
</event>
<event>
 7    1  0.4687179E-006  0.1281887E+03  0.7561462E-02  0.1230168E+00
          2   -1    0    0  501    0  0.00000000000E+00  0.00000000000E+00  0.31393254857E+03  0.31393254857E+03  0.00000000000E+00 0.  1.
         -2   -1    0    0    0  501 -0.00000000000E+00 -0.00000000000E+00 -0.67417235474E+02  0.67417235474E+02  0.00000000000E+00 0. -1.
         23    2    1    2    0    0 -0.85995532784E+02 -0.59903509512E+01  0.10922533702E+03  0.17658825190E+03  0.10872957509E+03 0.  0.
          5    1    1    2  502    0 -0.14188427670E+02 -0.85565026803E+01 -0.14399173140E+02  0.22345778237E+02  0.41800000000E+01 0.  1.
         -5    1    1    2    0  502  0.10018396045E+03  0.14546853632E+02  0.15168914921E+03  0.18241575390E+03  0.41800000000E+01 0.  1.
        -11    1    3    3    0    0 -0.10996883668E+03  0.79167663956E+01  0.94465215599E+02  0.14518779972E+03  0.00000000000E+00 0. -1.
         11    1    3    3    0    0  0.23973303895E+02 -0.13907117347E+02  0.14760121424E+02  0.31400452178E+02  0.00000000000E+00 0.  1.
</event>
<event>
 7    1  0.4687179E-006  0.1466368E+03  0.7561462E-02  0.1204668E+00
          4   -1    0    0  501    0  0.00000000000E+00  0.00000000000E+00  0.21824786773E+03  0.21824786773E+03  0.00000000000E+00 0. -1.
         -4   -1    0    0    0  501 -0.00000000000E+00 -0.00000000000E+00 -0.11597419533E+03  0.11597419533E+03  0.00000000000E+00 0.  1.
         23    2    1    2    0    0  0.91722768494E+02 -0.82213760392E+02  0.45029616588E+02  0.15915837290E+03  0.90175122054E+02 0.  0.
          5    1    1    2  502    0 -0.10717328690E+03  0.68598351758E+02  0.74816167627E+02  0.14767118415E+03  0.41800000000E+01 0. -1.
         -5    1    1    2    0  502  0.15450518409E+02  0.13615408634E+02 -0.17572111823E+02  0.27392506006E+02  0.41800000000E+01 0.  1.
        -11    1    3    3    0    0  0.28266238563E+02  0.12525235415E+02 -0.10071093226E+02  0.32515975820E+02  0.00000000000E+00 0. -1.
         11    1    3    3    0    0  0.63456529931E+02 -0.94738995807E+02  0.55100709815E+02  0.12664239708E+03  0.00000000000E+00 0.  1.
</event>
<event>
 7    1  0.4687179E-006  0.8527139E+02  0.7561462E-02  0.1314724E+00
          2   -1    0    0  501    0  0.00000000000E+00  0.00000000000E+00  0.19702573714E+03  0.19702573714E+03  0.00000000000E+00 0. -1.
         -2   -1    0    0    0  501 -0.00000000000E+00 -0.00000000000E+00 -0.95952061845E+02  0.95952061845E+02  0.00000000000E+00 0.  1.
         23    2    1    2    0    0 -0.32035120258E+02 -0.64003332952E+01  0.13217339623E+03  0.16312171178E+03  0.89842489866E+02 0.  0.
          5    1    1    2  502    0  0.23867258433E+02 -0.30365092653E+02  0.35891771692E+02  0.52890231159E+02  0.41800000000E+01 0. -1.
         -5    1    1    2    0  502  0.81678618251E+01  0.36765425948E+02 -0.66991492632E+02  0.76965856046E+02  0.41800000000E+01 0.  1.
        -11    1    3    3    0    0  0.30219600278E+02  0.46462024876E+01  0.58725618867E+02  0.66208079188E+02  0.00000000000E+00 0.  1.
         11    1    3    3    0    0 -0.62254720535E+02 -0.11046535783E+02  0.73447777367E+02  0.96913632591E+02  0.00000000000E+00 0. -1.
</event>
<event>
 7    1  0.4687179E-006  0.1754213E+03  0.7561462E-02  0.1172309E+00
          1   -1    0    0  501    0  0.00000000000E+00  0.00000000000E+00  0.14161621356E+04  0.14161621356E+04  0.00000000000E+00 0. -1.
         -1   -1    0    0    0  501 -0.00000000000E+00 -0.00000000000E+00 -0.24991665860E+02  0.24991665860E+02  0.00000000000E+00 0.  1.
         23    2    1    2    0    0  0.35505711013E+02  0.14137223058E+03  0.83752664764E+03  0.85515055289E+03  0.92654301112E+02 0.  0.
          5    1    1    2  502    0  0.18787968695E+02 -0.12311196708E+03  0.28120889514E+03  0.30758000473E+03  0.41800000000E+01 0. -1.
         -5    1    1    2    0  502 -0.54293679709E+02 -0.18260263502E+02  0.27243492696E+03  0.27842324383E+03  0.41800000000E+01 0. -1.
        -11    1    3    3    0    0 -0.25436027710E+02  0.72524290274E+02  0.29280432527E+03  0.30272287175E+03  0.00000000000E+00 0.  1.
         11    1    3    3    0    0  0.60941738724E+02  0.68847940304E+02  0.54472232237E+03  0.55242768114E+03  0.00000000000E+00 0. -1.
</event>
<event>
 7    1  0.4687179E-006  0.1131477E+03  0.7561462E-02  0.1254849E+00
         -2   -1    0    0    0  501 -0.00000000000E+00  0.00000000000E+00  0.88469107014E+02  0.88469107014E+02  0.00000000000E+00 0.  1.
          2   -1    0    0  501    0  0.00000000000E+00 -0.00000000000E+00 -0.16773592961E+03  0.16773592961E+03  0.00000000000E+00 0. -1.
         23    2    1    2    0    0 -0.41690455607E+02 -0.27114826959E+02 -0.60014393641E+02  0.12021967333E+03  0.91529964943E+02 0.  0.
          5    1    1    2  502    0  0.17647630791E+02 -0.50256196057E+02 -0.96137693752E+01  0.54286472314E+02  0.41800000000E+01 0. -1.
         -5    1    1    2    0  502  0.24042824816E+02  0.77371023017E+02 -0.96386595757E+01  0.81698890973E+02  0.41800000000E+01 0. -1.
        -11    1    3    3    0    0  0.18851396771E+02  0.93715180220E+01  0.76193595314E+01  0.22388728189E+02  0.00000000000E+00 0.  1.
         11    1    3    3    0    0 -0.60541852378E+02 -0.36486344981E+02 -0.67633753172E+02  0.97830945143E+02  0.00000000000E+00 0. -1.
</event>
<event>
 7    1  0.4687179E-006  0.1465842E+03  0.7561462E-02  0.1204734E+00
         -2   -1    0    0    0  501 -0.00000000000E+00  0.00000000000E+00  0.63344594760E+02  0.63344594760E+02  0.00000000000E+00 0.  1.
          2   -1    0    0  501    0  0.00000000000E+00 -0.00000000000E+00 -0.49255836338E+03  0.49255836338E+03  0.00000000000E+00 0. -1.
         23    2    1    2    0    0 -0.34385566971E+02  0.12516744578E+03 -0.12583056170E+03  0.20300412481E+03  0.92347646056E+02 0.  0.
          5    1    1    2  502    0  0.49581786181E+02 -0.13518481117E+03 -0.19237518917E+03  0.24033096451E+03  0.41800000000E+01 0.  1.
         -5    1    1    2    0  502 -0.15196219209E+02  0.10017365392E+02 -0.11100801775E+03  0.11256786883E+03  0.41800000000E+01 0.  1.
        -11    1    3    3    0    0 -0.26579095409E+02  0.72880333662E+02 -0.13345788512E+02  0.78715318830E+02  0.00000000000E+00 0.  1.
         11    1    3    3    0    0 -0.78064715620E+01  0.52287112117E+02 -0.11248477319E+03  0.12428880598E+03  0.00000000000E+00 0. -1.
</event>
<event>
 7    1  0.4687179E-006  0.3723885E+03  0.7561462E-02  0.1053783E+00
          1   -1    0    0  501    0  0.00000000000E+00  0.00000000000E+00  0.14852083636E+03  0.14852083636E+03  0.00000000000E+00 0. -1.
         -1   -1    0    0    0  501 -0.00000000000E+00 -0.00000000000E+00 -0.10362804823E+04  0.10362804823E+04  0.00000000000E+00 0.  1.
         23    2    1    2    0    0 -0.30424056486E+03 -0.21357103742E+03 -0.34377320204E+03  0.51417005315E+03  0.89531669176E+02 0.  0.
          5    1    1    2  502    0  0.17547105480E+03  0.11381405215E+03 -0.40757770266E+03  0.45812747751E+03  0.41800000000E+01 0.  1.
         -5    1    1    2    0  502  0.12876951006E+03  0.99756985273E+02 -0.13640874127E+03  0.21250378803E+03  0.41800000000E+01 0.  1.
        -11    1    3    3    0    0 -0.16957295183E+03 -0.13483612675E+03 -0.25529309818E+03  0.33482881155E+03  0.00000000000E+00 0.  1.
         11    1    3    3    0    0 -0.13466761303E+03 -0.78734910674E+02 -0.88480103857E+02  0.17934124160E+03  0.00000000000E+00 0. -1.
</event>
<event>
 7    1  0.4687179E-006  0.1320790E+03  0.7561462E-02  0.1224403E+00
         -1   -1    0    0    0  501 -0.00000000000E+00  0.00000000000E+00  0.18319148820E+03  0.18319148820E+03  0.00000000000E+00 0.  1.
          1   -1    0    0  501    0  0.00000000000E+00 -0.00000000000E+00 -0.99611027788E+02  0.99611027788E+02  0.00000000000E+00 0. -1.
         23    2    1    2    0    0  0.67175598171E+02  0.41106417908E+02  0.24836807019E+02  0.12374012369E+03  0.92154504199E+02 0.  0.
          5    1    1    2  502    0  0.32705595695E+02  0.47145519217E+01  0.31332000909E+02  0.45727996572E+02  0.41800000000E+01 0. -1.
         -5    1    1    2    0  502 -0.99881193866E+02 -0.45820969829E+02  0.27411652488E+02  0.11333439573E+03  0.41800000000E+01 0. -1.
        -11    1    3    3    0    0  0.59200634142E+02  0.69554057609E+02  0.14744872467E+02  0.92519691292E+02  0.00000000000E+00 0.  1.
         11    1    3    3    0    0  0.79749640296E+01 -0.28447639702E+02  0.10091934552E+02  0.31220432394E+02  0.00000000000E+00 0. -1.
</event>
<event>
 7    1  0.4687179E-006  0.1652471E+03  0.7561462E-02  0.1182897E+00
          2   -1    0    0  501    0  0.00000000000E+00  0.00000000000E+00  0.39180657383E+03  0.39180657383E+03  0.00000000000E+00 0. -1.
         -2   -1    0    0    0  501 -0.00000000000E+00 -0.00000000000E+00 -0.90158187898E+02  0.90158187898E+02  0.00000000000E+00 0.  1.
         23    2    1    2    0    0 -0.62718180277E+01 -0.12475713364E+03  0.22178088799E+03  0.27040786438E+03  0.91268684368E+02 0.  0.
          5    1    1    2  502    0  0.49599619052E+01 -0.35246069535E+02  0.14401169778E+02  0.38623214920E+02  0.41800000000E+01 0. -1.
         -5    1    1    2    0  502  0.13118561225E+01  0.16000320318E+03  0.65466328166E+02  0.17293368243E+03  0.41800000000E+01 0.  1.
        -11    1    3    3    0    0 -0.24731764188E+02 -0.34389170142E+02  0.16684366479E+02  0.45526292049E+02  0.00000000000E+00 0.  1.
         11    1    3    3    0    0  0.18459946161E+02 -0.90367963502E+02  0.20509652151E+03  0.22488157233E+03  0.00000000000E+00 0. -1.
</event>
<event>
 7    1  0.4687179E-006  0.2361292E+03  0.7561462E-02  0.1122399E+00
          2   -1    0    0  501    0  0.00000000000E+00  0.00000000000E+00  0.73486822315E+03  0.73486822315E+03  0.00000000000E+00 0. -1.
         -2   -1    0    0    0  501 -0.00000000000E+00 -0.00000000000E+00 -0.82895962402E+02  0.82895962402E+02  0.00000000000E+00 0.  1.
         23    2    1    2    0    0 -0.18517783013E+03 -0.85595515181E+02  0.31751069865E+03  0.38915714714E+03  0.94935875326E+02 0.  0.
          5    1    1    2  502    0  0.18961203321E+03  0.90222538323E+01  0.21800577011E+03  0.28909879350E+03  0.41800000000E+01 0. -1.
         -5    1    1    2    0  502 -0.44342030796E+01  0.76573261349E+02  0.11645579199E+03  0.13950824491E+03  0.41800000000E+01 0.  1.
        -11    1    3    3    0    0 -0.16272734703E+03 -0.65415522199E+02  0.19190458994E+03  0.25997452117E+03  0.00000000000E+00 0.  1.
         11    1    3    3    0    0 -0.22450483096E+02 -0.20179992982E+02  0.12560610871E+03  0.12918262597E+03  0.00000000000E+00 0. -1.
</event>
<event>
 7    1  0.4687179E-006  0.1585509E+03  0.7561462E-02  0.1190343E+00
         -1   -1    0    0    0  501 -0.00000000000E+00  0.00000000000E+00  0.25782570273E+02  0.25782570273E+02  0.00000000000E+00 0.  1.
          1   -1    0    0  501    0  0.00000000000E+00 -0.00000000000E+00 -0.13435026471E+04  0.13435026471E+04  0.00000000000E+00 0. -1.
         23    2    1    2    0    0  0.82500648225E+01 -0.14817343786E+03 -0.72872982065E+03  0.74913978178E+03  0.90221005730E+02 0.  0.
          5    1    1    2  502    0 -0.19686203782E+00  0.14500815060E+03 -0.59243441277E+03  0.60993721671E+03  0.41800000000E+01 0.  1.
         -5    1    1    2    0  502 -0.80532027847E+01  0.31652872531E+01  0.34441565843E+01  0.10208218898E+02  0.41800000000E+01 0.  1.
        -11    1    3    3    0    0  0.17045911585E+02 -0.33981909539E+01 -0.23964207105E+02  0.29603952872E+02  0.00000000000E+00 0.  1.
         11    1    3    3    0    0 -0.87958467625E+01 -0.14477524690E+03 -0.70476561355E+03  0.71953582890E+03  0.00000000000E+00 0. -1.
</event>
<event>
 7    1  0.4687179E-006  0.1273165E+03  0.7561462E-02  0.1231493E+00
          3   -1    0    0  501    0  0.00000000000E+00  0.00000000000E+00  0.58255901208E+03  0.58255901208E+03  0.00000000000E+00 0. -1.
         -3   -1    0    0    0  501 -0.00000000000E+00 -0.00000000000E+00 -0.34943618635E+02  0.34943618635E+02  0.00000000000E+00 0.  1.
         23    2    1    2    0    0  0.38319124457E+02  0.78387530427E+02  0.31701118304E+03  0.34117604596E+03  0.91060660749E+02 0.  0.
          5    1    1    2  502    0 -0.63674527389E+02 -0.84769996511E+02  0.10993338185E+03  0.15278487684E+03  0.41800000000E+01 0. -1.
         -5    1    1    2    0  502  0.25355402932E+02  0.63824660838E+01  0.12067082856E+03  0.12354170792E+03  0.41800000000E+01 0.  1.
        -11    1    3    3    0    0  0.50332454144E+02  0.83856453375E+01  0.17659098211E+03  0.18381526038E+03  0.00000000000E+00 0. -1.
         11    1    3    3    0    0 -0.12013329687E+02  0.70001885089E+02  0.14042020093E+03  0.15736078557E+03  0.00000000000E+00 0.  1.
</event>
<event>
 7    1  0.4687179E-006  0.1120385E+03  0.7561462E-02  0.1256841E+00
          2   -1    0    0  501    0  0.00000000000E+00  0.00000000000E+00  0.10023507079E+03  0.10023507079E+03  0.00000000000E+00 0. -1.
         -2   -1    0    0    0  501 -0.00000000000E+00 -0.00000000000E+00 -0.14837501491E+03  0.14837501491E+03  0.00000000000E+00 0.  1.
         23    2    1    2    0    0  0.16579475777E+02 -0.47476180686E+02 -0.27838577471E+02  0.11227004248E+03  0.96440185055E+02 0.  0.
          5    1    1    2  502    0  0.36635099501E+02  0.52873858446E+02 -0.43628330406E+02  0.77837516895E+02  0.41800000000E+01 0. -1.
         -5    1    1    2    0  502 -0.53214575277E+02 -0.53976777592E+01  0.23326963758E+02  0.58502526316E+02  0.41800000000E+01 0. -1.
        -11    1    3    3    0    0 -0.31742295628E+02  0.76573109776E+01 -0.20584756891E+02  0.38599740406E+02  0.00000000000E+00 0.  1.
         11    1    3    3    0    0  0.48321771405E+02 -0.55133491664E+02 -0.72538205802E+01  0.73670302075E+02  0.00000000000E+00 0. -1.
</event>
<event>
 7    1  0.4687179E-006  0.9669457E+02  0.7561462E-02  0.1287404E+00
          2   -1    0    0  501    0  0.00000000000E+00  0.00000000000E+00  0.91829215165E+02  0.91829215165E+02  0.00000000000E+00 0. -1.
         -2   -1    0    0    0  501 -0.00000000000E+00 -0.00000000000E+00 -0.11012824716E+03  0.11012824716E+03  0.00000000000E+00 0.  1.
         23    2    1    2    0    0  0.13168289492E+02  0.60038448695E+01  0.29909232259E+01  0.74249794355E+02  0.72764251790E+02 0.  0.
          5    1    1    2  502    0  0.20339786974E+02  0.53227074285E+02 -0.15949083926E+02  0.59318412396E+02  0.41800000000E+01 0. -1.
         -5    1    1    2    0  502 -0.33508076466E+02 -0.59230919155E+02 -0.53408712997E+01  0.68389255578E+02  0.41800000000E+01 0. -1.
        -11    1    3    3    0    0  0.40361464939E+02  0.64744001113E+01 -0.12757624852E+02  0.42821988518E+02  0.00000000000E+00 0.  1.
         11    1    3    3    0    0 -0.27193175447E+02 -0.47055524186E+00  0.15748548078E+02  0.31427805836E+02  0.00000000000E+00 0. -1.
</event>
<event>
 7    1  0.4687179E-006  0.1420323E+03  0.7561462E-02  0.1210620E+00
         -3   -1    0    0    0  501 -0.00000000000E+00  0.00000000000E+00  0.22415934916E+03  0.22415934916E+03  0.00000000000E+00 0.  1.
          3   -1    0    0  501    0  0.00000000000E+00 -0.00000000000E+00 -0.13199518928E+03  0.13199518928E+03  0.00000000000E+00 0. -1.
         23    2    1    2    0    0  0.87712797551E+02 -0.57154358740E+02 -0.42874122160E+02  0.14439164936E+03  0.89725149631E+02 0.  0.
          5    1    1    2  502    0 -0.53664937788E+01 -0.37019060226E+02  0.25823100714E+02  0.45645536539E+02  0.41800000000E+01 0.  1.
         -5    1    1    2    0  502 -0.82346303772E+02  0.94173418966E+02  0.10921518132E+03  0.16611735254E+03  0.41800000000E+01 0.  1.
        -11    1    3    3    0    0  0.49864681986E+02 -0.65677178160E+02  0.51882971784E+01  0.82625036570E+02  0.00000000000E+00 0.  1.
         11    1    3    3    0    0  0.37848115565E+02  0.85228194196E+01 -0.48062419339E+02  0.61766612788E+02  0.00000000000E+00 0. -1.
</event>
<event>
 7    1  0.4687179E-006  0.1172410E+03  0.7561462E-02  0.1247719E+00
          2   -1    0    0  501    0  0.00000000000E+00  0.00000000000E+00  0.21051926058E+03  0.21051926058E+03  0.00000000000E+00 0.  1.
         -2   -1    0    0    0  501 -0.00000000000E+00 -0.00000000000E+00 -0.77898135422E+02  0.77898135422E+02  0.00000000000E+00 0. -1.
         23    2    1    2    0    0  0.14195994861E+02  0.66395381803E+02  0.74548157642E+02  0.13469531646E+03  0.89305808730E+02 0.  0.
          5    1    1    2  502    0 -0.48339518998E+02 -0.87664766231E+02  0.51804048644E+02  0.11279606461E+03  0.41800000000E+01 0. -1.
         -5    1    1    2    0  502  0.34143524137E+02  0.21269384428E+02  0.62689188689E+01  0.40926014932E+02  0.41800000000E+01 0. -1.
        -11    1    3    3    0    0  0.23725894947E+02  0.76415734955E+02  0.25872099791E+02  0.84093092388E+02  0.00000000000E+00 0. -1.
         11    1    3    3    0    0 -0.95299000860E+01 -0.10020353152E+02  0.48676057851E+02  0.50602224070E+02  0.00000000000E+00 0.  1.
</event>
<event>
 7    1  0.4687179E-006  0.9851188E+02  0.7561462E-02  0.1283457E+00
          2   -1    0    0  501    0  0.00000000000E+00  0.00000000000E+00  0.56129373341E+03  0.56129373341E+03  0.00000000000E+00 0. -1.
         -2   -1    0    0    0  501 -0.00000000000E+00 -0.00000000000E+00 -0.34450620357E+02  0.34450620357E+02  0.00000000000E+00 0.  1.
         23    2    1    2    0    0 -0.67934031292E+02  0.22374591599E+02  0.34936299393E+03  0.36713456063E+03  0.87279030244E+02 0.  0.
          5    1    1    2  502    0  0.41667672608E+02 -0.36095467427E+02  0.72388259312E+01  0.55757965441E+02  0.41800000000E+01 0. -1.
         -5    1    1    2    0  502  0.26266358684E+02  0.13720875828E+02  0.17024129319E+03  0.17285182770E+03  0.41800000000E+01 0. -1.
        -11    1    3    3    0    0 -0.16342737268E+02  0.50480353281E+02  0.14121873556E+03  0.15085782181E+03  0.00000000000E+00 0. -1.
         11    1    3    3    0    0 -0.51591294024E+02 -0.28105761682E+02  0.20814425837E+03  0.21627673882E+03  0.00000000000E+00 0.  1.
</event>
<event>
 7    1  0.4687179E-006  0.1208978E+03  0.7561462E-02  0.1241623E+00
         -2   -1    0    0    0  501 -0.00000000000E+00  0.00000000000E+00  0.80396098260E+02  0.80396098260E+02  0.00000000000E+00 0.  1.
          2   -1    0    0  501    0  0.00000000000E+00 -0.00000000000E+00 -0.24201249810E+03  0.24201249810E+03  0.00000000000E+00 0. -1.
         23    2    1    2    0    0  0.79503042691E+02 -0.49295026206E+01 -0.11805240474E+03  0.16784603119E+03  0.88830659831E+02 0.  0.
          5    1    1    2  502    0 -0.16889049319E+02 -0.52099529271E+02 -0.43012848453E+02  0.69765166589E+02  0.41800000000E+01 0.  1.
         -5    1    1    2    0  502 -0.62613993372E+02  0.57029031891E+02 -0.55114664447E+00  0.84797398587E+02  0.41800000000E+01 0.  1.
        -11    1    3    3    0    0 -0.81862020594E+01  0.10208874995E+02 -0.60433929215E+02  0.61834414635E+02  0.00000000000E+00 0. -1.
         11    1    3    3    0    0  0.87689244750E+02 -0.15138377616E+02 -0.57618475529E+02  0.10601161655E+03  0.00000000000E+00 0.  1.
</event>
<event>
 7    1  0.4687179E-006  0.1850577E+03  0.7561462E-02  0.1162996E+00
         -3   -1    0    0    0  501 -0.00000000000E+00  0.00000000000E+00  0.16134602576E+03  0.16134602576E+03  0.00000000000E+00 0.  1.
          3   -1    0    0  501    0  0.00000000000E+00 -0.00000000000E+00 -0.27624911245E+03  0.27624911245E+03  0.00000000000E+00 0. -1.
         23    2    1    2    0    0  0.14558905656E+03 -0.92909455935E+02  0.53796232807E+01  0.19275874637E+03  0.85432157665E+02 0.  0.
          5    1    1    2  502    0 -0.11932117184E+03  0.51342008962E+02 -0.17914806918E+02  0.13119434683E+03  0.41800000000E+01 0. -1.
         -5    1    1    2    0  502 -0.26267884721E+02  0.41567446973E+02 -0.10236790306E+03  0.11364204500E+03  0.41800000000E+01 0. -1.
        -11    1    3    3    0    0  0.58087389666E+02 -0.84987020219E+02 -0.10500418761E+02  0.10347558764E+03  0.00000000000E+00 0.  1.
         11    1    3    3    0    0  0.87501666898E+02 -0.79224357160E+01  0.15880042041E+02  0.89283158730E+02  0.00000000000E+00 0. -1.
</event>
<event>
 7    1  0.4687179E-006  0.1522212E+03  0.7561462E-02  0.1197770E+00
          1   -1    0    0  501    0  0.00000000000E+00  0.00000000000E+00  0.73503063870E+03  0.73503063870E+03  0.00000000000E+00 0. -1.
         -1   -1    0    0    0  501 -0.00000000000E+00 -0.00000000000E+00 -0.59813812762E+02  0.59813812762E+02  0.00000000000E+00 0.  1.
         23    2    1    2    0    0  0.17726093399E+02  0.12775360655E+03  0.55977759578E+03  0.58127516497E+03  0.88851912129E+02 0.  0.
          5    1    1    2  502    0  0.14875242362E+02  0.71229815163E+01 -0.15294184658E+02  0.22877809890E+02  0.41800000000E+01 0.  1.
         -5    1    1    2    0  502 -0.32601335762E+02 -0.13487658807E+03  0.13073341481E+03  0.19069147661E+03  0.41800000000E+01 0.  1.
        -11    1    3    3    0    0  0.46720552177E+02  0.73581075944E+02  0.41403572798E+03  0.42311058693E+03  0.00000000000E+00 0.  1.
         11    1    3    3    0    0 -0.28994458778E+02  0.54172530609E+02  0.14574186781E+03  0.15816457803E+03  0.00000000000E+00 0. -1.
</event>
<event>
 7    1  0.4687179E-006  0.9503433E+02  0.7561462E-02  0.1291099E+00
          1   -1    0    0  501    0  0.00000000000E+00  0.00000000000E+00  0.20980097803E+03  0.20980097803E+03  0.00000000000E+00 0.  1.
         -1   -1    0    0    0  501 -0.00000000000E+00 -0.00000000000E+00 -0.87263313852E+02  0.87263313852E+02  0.00000000000E+00 0. -1.
         23    2    1    2    0    0  0.73938964287E+02  0.11313712237E+02  0.88648734334E+02  0.14743913726E+03  0.91020495338E+02 0.  0.
          5    1    1    2  502    0 -0.58646818921E+02 -0.14720472172E+02 -0.40886570026E+02  0.73111734208E+02  0.41800000000E+01 0.  1.
         -5    1    1    2    0  502 -0.15292145366E+02  0.34067599351E+01  0.74775499865E+02  0.76513420412E+02  0.41800000000E+01 0.  1.
        -11    1    3    3    0    0  0.46952758891E+02  0.48364197834E+02  0.72112144190E+02  0.98710782285E+02  0.00000000000E+00 0. -1.
         11    1    3    3    0    0  0.26986205396E+02 -0.37050485597E+02  0.16536590144E+02  0.48728354972E+02  0.00000000000E+00 0.  1.
</event>
<event>
 7    1  0.4687179E-006  0.1252728E+03  0.7561462E-02  0.1234644E+00
         -2   -1    0    0    0  501 -0.00000000000E+00  0.00000000000E+00  0.57003141193E+03  0.57003141193E+03  0.00000000000E+00 0.  1.
          2   -1    0    0  501    0  0.00000000000E+00 -0.00000000000E+00 -0.37190951949E+02  0.37190951949E+02  0.00000000000E+00 0. -1.
         23    2    1    2    0    0  0.50832778843E+02  0.56480499291E+02  0.10871602191E+03  0.16215937036E+03  0.93287028954E+02 0.  0.
          5    1    1    2  502    0  0.31687724808E+02  0.29412904859E+00  0.14499218614E+03  0.14847358303E+03  0.41800000000E+01 0. -1.
         -5    1    1    2    0  502 -0.82520503651E+02 -0.56774628340E+02  0.27913225194E+03  0.29658941049E+03  0.41800000000E+01 0.  1.
        -11    1    3    3    0    0  0.61413827148E+02  0.55915015871E+00  0.41689749128E+02  0.74229414629E+02  0.00000000000E+00 0. -1.
         11    1    3    3    0    0 -0.10581048305E+02  0.55921349132E+02  0.67026272780E+02  0.87929955730E+02  0.00000000000E+00 0.  1.
</event>
<event>
 7    1  0.4687179E-006  0.1327039E+03  0.7561462E-02  0.1223498E+00
          1   -1    0    0  501    0  0.00000000000E+00  0.00000000000E+00  0.35738187636E+03  0.35738187636E+03  0.00000000000E+00 0. -1.
         -1   -1    0    0    0  501 -0.00000000000E+00 -0.00000000000E+00 -0.62838390508E+02  0.62838390508E+02  0.00000000000E+00 0.  1.
         23    2    1    2    0    0  0.43074575015E+02 -0.91801503209E+02  0.10889316528E+03  0.17446309591E+03  0.91086307344E+02 0.  0.
          5    1    1    2  502    0 -0.49477954699E+02 -0.16596056837E+02  0.61542745907E+02  0.80799004186E+02  0.41800000000E+01 0. -1.
         -5    1    1    2    0  502  0.64033796834E+01  0.10839756005E+03  0.12410757466E+03  0.16495816677E+03  0.41800000000E+01 0. -1.
        -11    1    3    3    0    0 -0.51217848307E+00 -0.22577947381E+02 -0.14192754380E+02  0.26673213373E+02  0.00000000000E+00 0.  1.
         11    1    3    3    0    0  0.43586753498E+02 -0.69223555828E+02  0.12308591966E+03  0.14778988254E+03  0.00000000000E+00 0. -1.
</event>
<event>
 7    1  0.4687179E-006  0.1601099E+03  0.7561462E-02  0.1188573E+00
          2   -1    0    0  501    0  0.00000000000E+00  0.00000000000E+00  0.69107235918E+03  0.69107235918E+03  0.00000000000E+00 0. -1.
         -2   -1    0    0    0  501 -0.00000000000E+00 -0.00000000000E+00 -0.39426681838E+02  0.39426681838E+02  0.00000000000E+00 0.  1.
         23    2    1    2    0    0  0.11697892283E+03  0.13682063659E+02  0.39033317990E+03  0.41776484322E+03  0.91083509194E+02 0.  0.
          5    1    1    2  502    0 -0.12374247743E+03  0.29989701435E+02  0.19616859317E+03  0.23390419462E+03  0.41800000000E+01 0. -1.
         -5    1    1    2    0  502  0.67635546008E+01 -0.43671765094E+02  0.65143904276E+02  0.78830003182E+02  0.41800000000E+01 0. -1.
        -11    1    3    3    0    0  0.95849093421E+02 -0.29563886135E+02  0.27855938830E+03  0.29606824362E+03  0.00000000000E+00 0.  1.
         11    1    3    3    0    0  0.21129829413E+02  0.43245949794E+02  0.11177379160E+03  0.12169659960E+03  0.00000000000E+00 0. -1.
</event>
<event>
 7    1  0.4687179E-006  0.1640178E+03  0.7561462E-02  0.1184234E+00
         -2   -1    0    0    0  501 -0.00000000000E+00  0.00000000000E+00  0.17943405696E+03  0.17943405696E+03  0.00000000000E+00 0.  1.
          2   -1    0    0  501    0  0.00000000000E+00 -0.00000000000E+00 -0.16388021438E+03  0.16388021438E+03  0.00000000000E+00 0. -1.
         23    2    1    2    0    0  0.44269057074E+02  0.12024934267E+03 -0.19704646689E+02  0.16080257716E+03  0.95129080164E+02 0.  0.
          5    1    1    2  502    0  0.28859853455E+02  0.88413739525E+01  0.90862656574E+01  0.31797698948E+02  0.41800000000E+01 0. -1.
         -5    1    1    2    0  502 -0.73128910529E+02 -0.12909071662E+03  0.26172223616E+02  0.15071399524E+03  0.41800000000E+01 0. -1.
        -11    1    3    3    0    0  0.59785862714E+02  0.11948055471E+03  0.25899942705E+01  0.13362881577E+03  0.00000000000E+00 0.  1.
         11    1    3    3    0    0 -0.15516805640E+02  0.76878795620E+00 -0.22294640960E+02  0.27173761383E+02  0.00000000000E+00 0. -1.
</event>
<event>
 7    1  0.4687179E-006  0.7471690E+02  0.7561462E-02  0.1344750E+00
          2   -1    0    0  501    0  0.00000000000E+00  0.00000000000E+00  0.66180850477E+02  0.66180850477E+02  0.00000000000E+00 0.  1.
         -2   -1    0    0    0  501 -0.00000000000E+00 -0.00000000000E+00 -0.23011955857E+03  0.23011955857E+03  0.00000000000E+00 0. -1.
         23    2    1    2    0    0  0.10321336741E+02  0.49948855967E+01 -0.31252866265E+01  0.92239308898E+02  0.91470453237E+02 0.  0.
          5    1    1    2  502    0 -0.37942712179E+02  0.13234232345E+02 -0.59362713711E+00  0.40405681611E+02  0.41800000000E+01 0.  1.
         -5    1    1    2    0  502  0.27621375438E+02 -0.18229117941E+02 -0.16021979433E+03  0.16365541854E+03  0.41800000000E+01 0.  1.
        -11    1    3    3    0    0  0.36968743018E+02  0.22977540773E+02  0.24415661467E+02  0.49907713484E+02  0.00000000000E+00 0.  1.
         11    1    3    3    0    0 -0.26647406277E+02 -0.17982655176E+02 -0.27540948093E+02  0.42331595415E+02  0.00000000000E+00 0. -1.
</event>
<event>
 7    1  0.4687179E-006  0.1105430E+03  0.7561462E-02  0.1259568E+00
          3   -1    0    0  501    0  0.00000000000E+00  0.00000000000E+00  0.10073961954E+03  0.10073961954E+03  0.00000000000E+00 0. -1.
         -3   -1    0    0    0  501 -0.00000000000E+00 -0.00000000000E+00 -0.18256299084E+03  0.18256299084E+03  0.00000000000E+00 0.  1.
         23    2    1    2    0    0 -0.21715801270E+02 -0.15427583431E+02  0.34392585553E+02  0.11049188637E+03  0.10156781310E+03 0.  0.
          5    1    1    2  502    0  0.56878294976E+02 -0.25352833473E+02 -0.25890316213E+02  0.67569871082E+02  0.41800000000E+01 0. -1.
         -5    1    1    2    0  502 -0.35162493706E+02  0.40780416903E+02 -0.90325640644E+02  0.10524085292E+03  0.41800000000E+01 0. -1.
        -11    1    3    3    0    0  0.31736218975E+02  0.22690246569E+02  0.17134472363E+02  0.42610151694E+02  0.00000000000E+00 0. -1.
         11    1    3    3    0    0 -0.53452020245E+02 -0.38117830000E+02  0.17258113190E+02  0.67881734679E+02  0.00000000000E+00 0.  1.
</event>
<event>
 7    1  0.4687179E-006  0.1331970E+03  0.7561462E-02  0.1222788E+00
          1   -1    0    0  501    0  0.00000000000E+00  0.00000000000E+00  0.19312885856E+03  0.19312885856E+03  0.00000000000E+00 0. -1.
         -1   -1    0    0    0  501 -0.00000000000E+00 -0.00000000000E+00 -0.16740334116E+03  0.16740334116E+03  0.00000000000E+00 0.  1.
         23    2    1    2    0    0 -0.31039385565E+02 -0.14506531098E+02  0.98754493992E+02  0.14332865209E+03  0.98065129000E+02 0.  0.
          5    1    1    2  502    0 -0.45101825800E+02 -0.51419771875E+02 -0.91914330940E+02  0.11464678043E+03  0.41800000000E+01 0. -1.
         -5    1    1    2    0  502  0.76141211365E+02  0.65926302973E+02  0.18885354349E+02  0.10255676721E+03  0.41800000000E+01 0.  1.
        -11    1    3    3    0    0  0.65733137268E+01 -0.46941842639E+02  0.73888131828E+02  0.87784970631E+02  0.00000000000E+00 0.  1.
         11    1    3    3    0    0 -0.37612699292E+02  0.32435311541E+02  0.24866362164E+02  0.55543681459E+02  0.00000000000E+00 0. -1.
</event>
<event>
 7    1  0.4687179E-006  0.1099049E+03  0.7561462E-02  0.1260746E+00
         -2   -1    0    0    0  501 -0.00000000000E+00  0.00000000000E+00  0.65719396657E+03  0.65719396657E+03  0.00000000000E+00 0.  1.
          2   -1    0    0  501    0  0.00000000000E+00 -0.00000000000E+00 -0.37820008505E+02  0.37820008505E+02  0.00000000000E+00 0. -1.
         23    2    1    2    0    0  0.20766303645E+02 -0.71304146849E+01  0.11456875131E+03  0.14799564703E+03  0.91074862516E+02 0.  0.
          5    1    1    2  502    0 -0.53163621944E+02 -0.47962071644E+02  0.49301204225E+02  0.87033396766E+02  0.41800000000E+01 0. -1.
         -5    1    1    2    0  502  0.32397318298E+02  0.55092486329E+02  0.45550400254E+03  0.45998493128E+03  0.41800000000E+01 0.  1.
        -11    1    3    3    0    0  0.13144120688E+02  0.36994156460E+02  0.21610331577E+02  0.44814528355E+02  0.00000000000E+00 0. -1.
         11    1    3    3    0    0  0.76221829575E+01 -0.44124571144E+02  0.92958419730E+02  0.10318111867E+03  0.00000000000E+00 0.  1.
</event>
<event>
 7    1  0.4687179E-006  0.9464830E+02  0.7561462E-02  0.1291970E+00
          2   -1    0    0  501    0  0.00000000000E+00  0.00000000000E+00  0.34414286893E+03  0.34414286893E+03  0.00000000000E+00 0.  1.
         -2   -1    0    0    0  501 -0.00000000000E+00 -0.00000000000E+00 -0.43256762717E+02  0.43256762717E+02  0.00000000000E+00 0. -1.
         23    2    1    2    0    0  0.31265532158E+02 -0.45791793750E+02  0.15070529578E+03  0.18423122918E+03  0.90303032901E+02 0.  0.
          5    1    1    2  502    0  0.12861335760E+02 -0.34172098954E+02  0.14390432301E+02  0.39467749445E+02  0.41800000000E+01 0.  1.
         -5    1    1    2    0  502 -0.44126867918E+02  0.79963892703E+02  0.13579037813E+03  0.16370065303E+03  0.41800000000E+01 0.  1.
        -11    1    3    3    0    0 -0.11520507675E+01 -0.19077798687E+02 -0.75095655765E+01  0.20534926317E+02  0.00000000000E+00 0. -1.
         11    1    3    3    0    0  0.32417582926E+02 -0.26713995063E+02  0.15821486136E+03  0.16369630286E+03  0.00000000000E+00 0.  1.
</event>
<event>
 7    1  0.4687179E-006  0.1112093E+03  0.7561462E-02  0.1258347E+00
          1   -1    0    0  501    0  0.00000000000E+00  0.00000000000E+00  0.25325631331E+03  0.25325631331E+03  0.00000000000E+00 0. -1.
         -1   -1    0    0    0  501 -0.00000000000E+00 -0.00000000000E+00 -0.76712605492E+02  0.76712605492E+02  0.00000000000E+00 0.  1.
         23    2    1    2    0    0  0.44446392103E+02 -0.74709306718E+02  0.85087937691E+02  0.15229533387E+03  0.91634869433E+02 0.  0.
          5    1    1    2  502    0 -0.47088045208E+02  0.21178624419E+02  0.10936332207E+03  0.12101085384E+03  0.41800000000E+01 0.  1.
         -5    1    1    2    0  502  0.26416531052E+01  0.53530682299E+02 -0.17907551940E+02  0.56662731094E+02  0.41800000000E+01 0.  1.
        -11    1    3    3    0    0 -0.22567662823E+02 -0.22922155036E+02 -0.10566386770E+00  0.32167308896E+02  0.00000000000E+00 0.  1.
         11    1    3    3    0    0  0.67014054926E+02 -0.51787151681E+02  0.85193601559E+02  0.12012802497E+03  0.00000000000E+00 0. -1.
</event>
<event>
 7    1  0.4687179E-006  0.1424362E+03  0.7561462E-02  0.1210088E+00
          2   -1    0    0  501    0  0.00000000000E+00  0.00000000000E+00  0.66588260919E+03  0.66588260919E+03  0.00000000000E+00 0.  1.
         -2   -1    0    0    0  501 -0.00000000000E+00 -0.00000000000E+00 -0.38276647532E+02  0.38276647532E+02  0.00000000000E+00 0. -1.
         23    2    1    2    0    0  0.91736597382E+02  0.67396484283E+02  0.34784975118E+03  0.37724987462E+03  0.91433741649E+02 0.  0.
          5    1    1    2  502    0 -0.28232793906E+02  0.21206981150E+02  0.16415396103E+03  0.16796077525E+03  0.41800000000E+01 0. -1.
         -5    1    1    2    0  502 -0.63503803476E+02 -0.88603465433E+02  0.11560224945E+03  0.15894860685E+03  0.41800000000E+01 0. -1.
        -11    1    3    3    0    0  0.69709282588E+02  0.41098438178E+00  0.12044923631E+03  0.13916742261E+03  0.00000000000E+00 0. -1.
         11    1    3    3    0    0  0.22027314794E+02  0.66985499901E+02  0.22740051487E+03  0.23808245201E+03  0.00000000000E+00 0.  1.
</event>
<event>
 7    1  0.4687179E-006  0.1431695E+03  0.7561462E-02  0.1209127E+00
         -2   -1    0    0    0  501 -0.00000000000E+00  0.00000000000E+00  0.27475129316E+02  0.27475129316E+02  0.00000000000E+00 0.  1.
          2   -1    0    0  501    0  0.00000000000E+00 -0.00000000000E+00 -0.93917919851E+03  0.93917919851E+03  0.00000000000E+00 0. -1.
         23    2    1    2    0    0  0.35806352055E+02  0.10892370199E+03 -0.33705645840E+03  0.36747710238E+03  0.91026902174E+02 0.  0.
          5    1    1    2  502    0 -0.66099562324E+02 -0.36252064687E+02 -0.40662742095E+03  0.41357792035E+03  0.41800000000E+01 0. -1.
         -5    1    1    2    0  502  0.30293210269E+02 -0.72671637307E+02 -0.16802018984E+03  0.18559930510E+03  0.41800000000E+01 0. -1.
        -11    1    3    3    0    0 -0.18959947576E+02  0.37161851788E+02 -0.19311918957E+03  0.19757404743E+03  0.00000000000E+00 0.  1.
         11    1    3    3    0    0  0.54766299631E+02  0.71761850207E+02 -0.14393726884E+03  0.16990305495E+03  0.00000000000E+00 0. -1.
</event>
<event>
 7    1  0.4687179E-006  0.1084107E+03  0.7561462E-02  0.1263542E+00
          1   -1    0    0  501    0  0.00000000000E+00  0.00000000000E+00  0.34334635647E+02  0.34334635647E+02  0.00000000000E+00 0. -1.
         -1   -1    0    0    0  501 -0.00000000000E+00 -0.00000000000E+00 -0.59774268043E+03  0.59774268043E+03  0.00000000000E+00 0.  1.
         23    2    1    2    0    0 -0.81336670222E+02  0.42703103142E+02 -0.24154972069E+03  0.27474164570E+03  0.93260363368E+02 0.  0.
          5    1    1    2  502    0  0.50673021352E+02 -0.27886835391E+02 -0.31749577937E+03  0.32274831216E+03  0.41800000000E+01 0. -1.
         -5    1    1    2    0  502  0.30663648870E+02 -0.14816267751E+02 -0.43625447186E+01  0.34587358218E+02  0.41800000000E+01 0. -1.
        -11    1    3    3    0    0 -0.72509808944E+02  0.66965294582E+02 -0.21994598974E+03  0.24107729357E+03  0.00000000000E+00 0.  1.
         11    1    3    3    0    0 -0.88268612776E+01 -0.24262191440E+02 -0.21603730952E+02  0.33664352133E+02  0.00000000000E+00 0. -1.
</event>
<event>
 7    1  0.4687179E-006  0.8344863E+02  0.7561462E-02  0.1319540E+00
          1   -1    0    0  501    0  0.00000000000E+00  0.00000000000E+00  0.20634128115E+03  0.20634128115E+03  0.00000000000E+00 0. -1.
         -1   -1    0    0    0  501 -0.00000000000E+00 -0.00000000000E+00 -0.80946529636E+02  0.80946529636E+02  0.00000000000E+00 0.  1.
         23    2    1    2    0    0 -0.68720188561E+02  0.15406770133E+02  0.44554916051E+02  0.12254014494E+03  0.89839377202E+02 0.  0.
          5    1    1    2  502    0 -0.30562232415E+01 -0.34234199535E+01 -0.30800149922E+02  0.31419451617E+02  0.41800000000E+01 0.  1.
         -5    1    1    2    0  502  0.71776411802E+02 -0.11983350179E+02  0.11163998538E+03  0.13332821423E+03  0.41800000000E+01 0.  1.
        -11    1    3    3    0    0 -0.13408350108E+02  0.28024699161E+02  0.56578861842E+02  0.64547155034E+02  0.00000000000E+00 0. -1.
         11    1    3    3    0    0 -0.55311838452E+02 -0.12617929028E+02 -0.12023945791E+02  0.57992989906E+02  0.00000000000E+00 0.  1.
</event>
<event>
 7    1  0.4687179E-006  0.1123231E+03  0.7561462E-02  0.1256327E+00
          1   -1    0    0  501    0  0.00000000000E+00  0.00000000000E+00  0.39488368861E+03  0.39488368861E+03  0.00000000000E+00 0. -1.
         -1   -1    0    0    0  501 -0.00000000000E+00 -0.00000000000E+00 -0.36865500411E+02  0.36865500411E+02  0.00000000000E+00 0.  1.
         23    2    1    2    0    0  0.38243978666E+02 -0.40886325019E+02  0.18054837670E+03  0.20752326115E+03  0.85638158041E+02 0.  0.
          5    1    1    2  502    0  0.21981704488E+02 -0.33972070778E+02  0.47335114887E+02  0.62412998858E+02  0.41800000000E+01 0.  1.
         -5    1    1    2    0  502 -0.60225683154E+02  0.74858395796E+02  0.13013469661E+03  0.16181292901E+03  0.41800000000E+01 0.  1.
        -11    1    3    3    0    0  0.41396022148E+02 -0.57520979802E+02  0.85842328863E+02  0.11131576345E+03  0.00000000000E+00 0.  1.
         11    1    3    3    0    0 -0.31520434821E+01  0.16634654784E+02  0.94706047838E+02  0.96207497706E+02  0.00000000000E+00 0. -1.
</event>
<event>
 7    1  0.4687179E-006  0.1001488E+03  0.7561462E-02  0.1279983E+00
         -3   -1    0    0    0  501 -0.00000000000E+00  0.00000000000E+00  0.34070451025E+03  0.34070451025E+03  0.00000000000E+00 0.  1.
          3   -1    0    0  501    0  0.00000000000E+00 -0.00000000000E+00 -0.36722829968E+02  0.36722829968E+02  0.00000000000E+00 0. -1.
         23    2    1    2    0    0  0.93277568950E+01 -0.25807031455E+02  0.14162918443E+03  0.17064665138E+03  0.91150665515E+02 0.  0.
          5    1    1    2  502    0  0.29886452843E+02 -0.31072314527E+02  0.11508730740E+03  0.12296848994E+03  0.41800000000E+01 0.  1.
         -5    1    1    2    0  502 -0.39214209738E+02  0.56879345982E+02  0.47265188453E+02  0.83812198899E+02  0.41800000000E+01 0.  1.
        -11    1    3    3    0    0  0.46288991116E+02 -0.19702468494E+02  0.46897541422E+02  0.68776721023E+02  0.00000000000E+00 0.  1.
         11    1    3    3    0    0 -0.36961234221E+02 -0.61045629608E+01  0.94731643007E+02  0.10186993036E+03  0.00000000000E+00 0. -1.
</event>
<event>
 7    1  0.4687179E-006  0.1166080E+03  0.7561462E-02  0.1248800E+00
         -3   -1    0    0    0  501 -0.00000000000E+00  0.00000000000E+00  0.35595853155E+02  0.35595853155E+02  0.00000000000E+00 0.  1.
          3   -1    0    0  501    0  0.00000000000E+00 -0.00000000000E+00 -0.51424114640E+03  0.51424114640E+03  0.00000000000E+00 0. -1.
         23    2    1    2    0    0  0.55749726855E+02  0.39741561664E+02 -0.27298635746E+03  0.29957635624E+03  0.10264997853E+03 0.  0.
          5    1    1    2  502    0  0.29512960917E+02 -0.43465162860E+02 -0.11014240957E+03  0.12210265366E+03  0.41800000000E+01 0. -1.
         -5    1    1    2    0  502 -0.85262687772E+02  0.37236011968E+01 -0.95516526219E+02  0.12815798966E+03  0.41800000000E+01 0. -1.
        -11    1    3    3    0    0  0.22827200390E+02  0.54424173214E+02 -0.62251954980E+02  0.85780986276E+02  0.00000000000E+00 0.  1.
         11    1    3    3    0    0  0.32922526465E+02 -0.14682611551E+02 -0.21073440248E+03  0.21379536996E+03  0.00000000000E+00 0. -1.
</event>
<event>
 7    1  0.4687179E-006  0.9461698E+02  0.7561462E-02  0.1292041E+00
         -1   -1    0    0    0  501 -0.00000000000E+00  0.00000000000E+00  0.17069914640E+03  0.17069914640E+03  0.00000000000E+00 0.  1.
          1   -1    0    0  501    0  0.00000000000E+00 -0.00000000000E+00 -0.97156771438E+02  0.97156771438E+02  0.00000000000E+00 0. -1.
         23    2    1    2    0    0  0.59765838800E+02 -0.40105975489E+01 -0.41881197402E+01  0.10886829919E+03  0.90811485188E+02 0.  0.
          5    1    1    2  502    0  0.26822106438E+02  0.39019674006E+01  0.66047572159E+02  0.71515067863E+02  0.41800000000E+01 0. -1.
         -5    1    1    2    0  502 -0.86587945238E+02  0.10863014826E+00  0.11682922542E+02  0.87472550781E+02  0.41800000000E+01 0. -1.
        -11    1    3    3    0    0  0.34973920309E+02  0.20266245442E+02 -0.41488482806E+02  0.57924002034E+02  0.00000000000E+00 0. -1.
         11    1    3    3    0    0  0.24791918491E+02 -0.24276842991E+02  0.37300363066E+02  0.50944297159E+02  0.00000000000E+00 0.  1.
</event>
<event>
 7    1  0.4687179E-006  0.1054111E+03  0.7561462E-02  0.1269312E+00
         -3   -1    0    0    0  501 -0.00000000000E+00  0.00000000000E+00  0.20518981988E+03  0.20518981988E+03  0.00000000000E+00 0.  1.
          3   -1    0    0  501    0  0.00000000000E+00 -0.00000000000E+00 -0.82873081599E+02  0.82873081599E+02  0.00000000000E+00 0. -1.
         23    2    1    2    0    0 -0.31050474982E+02 -0.14659118354E+01  0.29303908985E+02  0.12023359363E+03  0.11238824254E+03 0.  0.
          5    1    1    2  502    0 -0.28423729934E+02 -0.15243986909E+02 -0.20558297358E+02  0.38476012664E+02  0.41800000000E+01 0. -1.
         -5    1    1    2    0  502  0.59474204917E+02  0.16709898745E+02  0.11357112665E+03  0.12935329518E+03  0.41800000000E+01 0.  1.
        -11    1    3    3    0    0  0.42312571966E+02 -0.66623429073E+01  0.71821947925E+01  0.43431837187E+02  0.00000000000E+00 0.  1.
         11    1    3    3    0    0 -0.73363046949E+02  0.51964310719E+01  0.22121714193E+02  0.76801756440E+02  0.00000000000E+00 0. -1.
</event>
<event>
 7    1  0.4687179E-006  0.1410600E+03  0.7561462E-02  0.1211910E+00
         -2   -1    0    0    0  501 -0.00000000000E+00  0.00000000000E+00  0.34033662973E+02  0.34033662973E+02  0.00000000000E+00 0. -1.
          2   -1    0    0  501    0  0.00000000000E+00 -0.00000000000E+00 -0.76777463575E+03  0.76777463575E+03  0.00000000000E+00 0.  1.
         23    2    1    2    0    0 -0.41249561694E+02 -0.11208261208E+03 -0.32819887827E+03  0.36092785340E+03  0.91051487578E+02 0.  0.
          5    1    1    2  502    0  0.43820174656E+02  0.31787328339E+01 -0.23035120345E+03  0.23454095886E+03  0.41800000000E+01 0. -1.
         -5    1    1    2    0  502 -0.25706129617E+01  0.10890387925E+03 -0.17519089105E+03  0.20633948646E+03  0.41800000000E+01 0. -1.
        -11    1    3    3    0    0 -0.37963979291E+02 -0.34434060618E+02 -0.23028074032E+03  0.23591563666E+03  0.00000000000E+00 0.  1.
         11    1    3    3    0    0 -0.32855824031E+01 -0.77648551467E+02 -0.97918137950E+02  0.12501221675E+03  0.00000000000E+00 0. -1.
</event>
<event>
 7    1  0.4687179E-006  0.1078880E+03  0.7561462E-02  0.1264532E+00
         -3   -1    0    0    0  501 -0.00000000000E+00  0.00000000000E+00  0.31924416524E+03  0.31924416524E+03  0.00000000000E+00 0.  1.
          3   -1    0    0  501    0  0.00000000000E+00 -0.00000000000E+00 -0.59265744699E+02  0.59265744699E+02  0.00000000000E+00 0. -1.
         23    2    1    2    0    0  0.83646246239E+02  0.84918973719E+01  0.12694375499E+03  0.17747577076E+03  0.91181826294E+02 0.  0.
          5    1    1    2  502    0 -0.81233640898E+02  0.12435142549E+02  0.18286582119E+02  0.84293586169E+02  0.41800000000E+01 0.  1.
         -5    1    1    2    0  502 -0.24126053417E+01 -0.20927039921E+02  0.11474808344E+03  0.11674055301E+03  0.41800000000E+01 0.  1.
        -11    1    3    3    0    0  0.40872983120E+02 -0.32917051338E+02  0.22172428339E+02  0.56971480553E+02  0.00000000000E+00 0. -1.
         11    1    3    3    0    0  0.42773263120E+02  0.41408948710E+02  0.10477132665E+03  0.12050429021E+03  0.00000000000E+00 0.  1.
</event>
<event>
 7    1  0.4687179E-006  0.1035301E+03  0.7561462E-02  0.1273043E+00
         -1   -1    0    0    0  501 -0.00000000000E+00  0.00000000000E+00  0.19068510511E+03  0.19068510511E+03  0.00000000000E+00 0.  1.
          1   -1    0    0  501    0  0.00000000000E+00 -0.00000000000E+00 -0.65474290492E+02  0.65474290492E+02  0.00000000000E+00 0. -1.
         23    2    1    2    0    0 -0.55521921298E+01 -0.52348216860E+02  0.41063703197E+02  0.96467125425E+02  0.69631285510E+02 0.  0.
          5    1    1    2  502    0 -0.51538987607E+02  0.53917778566E+02  0.65822270380E+02  0.99566248131E+02  0.41800000000E+01 0.  1.
         -5    1    1    2    0  502  0.57091179737E+02 -0.15695617058E+01  0.18324841039E+02  0.60126022044E+02  0.41800000000E+01 0.  1.
        -11    1    3    3    0    0  0.13979407885E+02  0.47331417242E+01 -0.96662815476E+01  0.17642660637E+02  0.00000000000E+00 0. -1.
         11    1    3    3    0    0 -0.19531600015E+02 -0.57081358584E+02  0.50729984744E+02  0.78824464788E+02  0.00000000000E+00 0.  1.
</event>
<event>
 7    1  0.4687179E-006  0.1153866E+03  0.7561462E-02  0.1250908E+00
          1   -1    0    0  501    0  0.00000000000E+00  0.00000000000E+00  0.25129714937E+03  0.25129714937E+03  0.00000000000E+00 0. -1.
         -1   -1    0    0    0  501 -0.00000000000E+00 -0.00000000000E+00 -0.79297931230E+02  0.79297931230E+02  0.00000000000E+00 0.  1.
         23    2    1    2    0    0 -0.60695938847E+01  0.65708998001E+02  0.16470683302E+03  0.20007160006E+03  0.92443452535E+02 0.  0.
          5    1    1    2  502    0  0.37671111383E+02  0.11179874859E+02 -0.18152032907E+02  0.43486445397E+02  0.41800000000E+01 0. -1.
         -5    1    1    2    0  502 -0.31601517498E+02 -0.76888872860E+02  0.25444418019E+02  0.87037035141E+02  0.41800000000E+01 0.  1.
        -11    1    3    3    0    0  0.39404902669E+02  0.22946964367E+02  0.10132165511E+03  0.11110979850E+03  0.00000000000E+00 0. -1.
         11    1    3    3    0    0 -0.45474496554E+02  0.42762033634E+02  0.63385177909E+02  0.88961801555E+02  0.00000000000E+00 0.  1.
</event>
<event>
 7    1  0.4687179E-006  0.8497657E+02  0.7561462E-02  0.1315494E+00
         -1   -1    0    0    0  501 -0.00000000000E+00  0.00000000000E+00  0.19810641476E+03  0.19810641476E+03  0.00000000000E+00 0.  1.
          1   -1    0    0  501    0  0.00000000000E+00 -0.00000000000E+00 -0.68815481079E+02  0.68815481079E+02  0.00000000000E+00 0. -1.
         23    2    1    2    0    0  0.29959484631E+02 -0.15245706053E+01  0.21765547527E+02  0.99257006724E+02  0.92077789340E+02 0.  0.
          5    1    1    2  502    0 -0.70502637135E+02  0.68987352175E+01  0.10466672987E+03  0.12645477900E+03  0.41800000000E+01 0.  1.
         -5    1    1    2    0  502  0.40543152504E+02 -0.53741646121E+01  0.28586562898E+01  0.41210110119E+02  0.41800000000E+01 0.  1.
        -11    1    3    3    0    0  0.23602342702E+02 -0.24512837288E+02  0.51135021157E+02  0.61422635580E+02  0.00000000000E+00 0.  1.
         11    1    3    3    0    0  0.63571419294E+01  0.22988266682E+02 -0.29369473630E+02  0.37834371144E+02  0.00000000000E+00 0. -1.
</event>
<event>
 7    1  0.4687179E-006  0.1136274E+03  0.7561462E-02  0.1253996E+00
          1   -1    0    0  501    0  0.00000000000E+00  0.00000000000E+00  0.40783124318E+02  0.40783124318E+02  0.00000000000E+00 0. -1.
         -1   -1    0    0    0  501 -0.00000000000E+00 -0.00000000000E+00 -0.38802528516E+03  0.38802528516E+03  0.00000000000E+00 0.  1.
         23    2    1    2    0    0 -0.22903672564E+02  0.48047419482E+02 -0.98591902716E+02  0.14542728579E+03  0.92712455657E+02 0.  0.
          5    1    1    2  502    0  0.58650001318E+02 -0.71763578584E+02 -0.17354177591E+03  0.19678428355E+03  0.41800000000E+01 0. -1.
         -5    1    1    2    0  502 -0.35746328754E+02  0.23716159102E+02 -0.75108482215E+02  0.86596840142E+02  0.41800000000E+01 0. -1.
        -11    1    3    3    0    0  0.78257493717E+00 -0.19645207495E+02  0.41857366400E+01  0.20101417668E+02  0.00000000000E+00 0. -1.
         11    1    3    3    0    0 -0.23686247501E+02  0.67692626977E+02 -0.10277763936E+03  0.12532586812E+03  0.00000000000E+00 0.  1.
</event>
<event>
 7    1  0.4687179E-006  0.1438728E+03  0.7561462E-02  0.1208211E+00
         -2   -1    0    0    0  501 -0.00000000000E+00  0.00000000000E+00  0.11308640242E+03  0.11308640242E+03  0.00000000000E+00 0.  1.
          2   -1    0    0  501    0  0.00000000000E+00 -0.00000000000E+00 -0.37123620454E+03  0.37123620454E+03  0.00000000000E+00 0. -1.
         23    2    1    2    0    0  0.42542649172E+02  0.13219510707E+03 -0.24200117323E+03  0.29671942778E+03  0.10095755367E+03 0.  0.
          5    1    1    2  502    0 -0.96074261912E+01 -0.88425463891E+02 -0.68017037808E+02  0.11204978864E+03  0.41800000000E+01 0.  1.
         -5    1    1    2    0  502 -0.32935222981E+02 -0.43769643182E+02  0.51868408923E+02  0.75553390535E+02  0.41800000000E+01 0.  1.
        -11    1    3    3    0    0 -0.18047950035E+01  0.52748577054E+02 -0.19383860068E+02  0.56226361232E+02  0.00000000000E+00 0.  1.
         11    1    3    3    0    0  0.44347444175E+02  0.79446530019E+02 -0.22261731317E+03  0.24049306655E+03  0.00000000000E+00 0. -1.
</event>
<event>
 7    1  0.4687179E-006  0.1212504E+03  0.7561462E-02  0.1241048E+00
          2   -1    0    0  501    0  0.00000000000E+00  0.00000000000E+00  0.11343244316E+03  0.11343244316E+03  0.00000000000E+00 0. -1.
         -2   -1    0    0    0  501 -0.00000000000E+00 -0.00000000000E+00 -0.14277886158E+03  0.14277886158E+03  0.00000000000E+00 0.  1.
         23    2    1    2    0    0 -0.54249216494E+02 -0.12319835933E+02  0.21145229184E+02  0.11029293112E+03  0.92858247286E+02 0.  0.
          5    1    1    2  502    0  0.49024809191E+01 -0.52525060033E+02 -0.33329325305E+02  0.62539847904E+02  0.41800000000E+01 0.  1.
         -5    1    1    2    0  502  0.49346735575E+02  0.64844895966E+02 -0.17162322290E+02  0.83378525720E+02  0.41800000000E+01 0.  1.
        -11    1    3    3    0    0 -0.53165481506E+02 -0.48397567615E+02  0.17651824167E+02  0.74030263212E+02  0.00000000000E+00 0. -1.
         11    1    3    3    0    0 -0.10837349884E+01  0.36077731682E+02  0.34934050169E+01  0.36262667903E+02  0.00000000000E+00 0.  1.
</event>
<event>
 7    1  0.4687179E-006  0.1028293E+03  0.7561462E-02  0.1274456E+00
         -2   -1    0    0    0  501 -0.00000000000E+00  0.00000000000E+00  0.24510909899E+02  0.24510909899E+02  0.00000000000E+00 0.  1.
          2   -1    0    0  501    0  0.00000000000E+00 -0.00000000000E+00 -0.60205523398E+03  0.60205523398E+03  0.00000000000E+00 0. -1.
         23    2    1    2    0    0 -0.47025857956E+02 -0.27973604487E+02 -0.30144444497E+03  0.31855084760E+03  0.87246405322E+02 0.  0.
          5    1    1    2  502    0 -0.13193282518E+02  0.41776686156E+02 -0.22032550395E+03  0.22467789011E+03  0.41800000000E+01 0.  1.
         -5    1    1    2    0  502  0.60219140474E+02 -0.13803081669E+02 -0.55774375159E+02  0.83337406172E+02  0.41800000000E+01 0.  1.
        -11    1    3    3    0    0 -0.71227834709E+02 -0.17437372340E+02 -0.18186434461E+03  0.19609208610E+03  0.00000000000E+00 0.  1.
         11    1    3    3    0    0  0.24201976752E+02 -0.10536232147E+02 -0.11958010036E+03  0.12245876150E+03  0.00000000000E+00 0. -1.
</event>
<event>
 7    1  0.4687179E-006  0.1232897E+03  0.7561462E-02  0.1237767E+00
          2   -1    0    0  501    0  0.00000000000E+00  0.00000000000E+00  0.27187580082E+03  0.27187580082E+03  0.00000000000E+00 0. -1.
         -2   -1    0    0    0  501 -0.00000000000E+00 -0.00000000000E+00 -0.85143414706E+02  0.85143414706E+02  0.00000000000E+00 0.  1.
         23    2    1    2    0    0  0.43493079687E+02 -0.76420271828E+02  0.15570569356E+03  0.20099873320E+03  0.91785193871E+02 0.  0.
          5    1    1    2  502    0 -0.75823282426E+02  0.63066088430E+02 -0.13077201406E+02  0.99574029065E+02  0.41800000000E+01 0.  1.
         -5    1    1    2    0  502  0.32330202739E+02  0.13354183398E+02  0.44103893966E+02  0.56446453266E+02  0.41800000000E+01 0.  1.
        -11    1    3    3    0    0  0.58775295175E+02 -0.34807050244E+02  0.45137354881E+02  0.81874580154E+02  0.00000000000E+00 0.  1.
         11    1    3    3    0    0 -0.15282215488E+02 -0.41613221585E+02  0.11056833868E+03  0.11912415305E+03  0.00000000000E+00 0. -1.
</event>
<event>
 6    1  0.4687179E-006  0.1125810E+03  0.7561462E-02  0.1255864E+00
          1   -1    0    0  501    0  0.00000000000E+00  0.00000000000E+00  0.17396663903E+03  0.17396663903E+03  0.00000000000E+00 0. -1.
         -1   -1    0    0    0  501 -0.00000000000E+00 -0.00000000000E+00 -0.12608976107E+03  0.12608976107E+03  0.00000000000E+00 0.  1.
          5    1    1    2  502    0  0.23102625047E+02  0.42450250336E+02 -0.11427039987E+01  0.48523532540E+02  0.41800000000E+01 0. -1.
         -5    1    1    2    0  502  0.10585773470E+02 -0.88118979822E+02 -0.28279353162E+01  0.88895910046E+02  0.41800000000E+01 0. -1.
        -11    1    1    2    0    0  0.43329191639E+01 -0.15325712345E+02  0.82845851893E+02  0.84362828445E+02  0.00000000000E+00 0. -1.
         11    1    1    2    0    0 -0.38021317681E+02  0.60994441831E+02 -0.30998334616E+02  0.78274129068E+02  0.00000000000E+00 0.  1.
</event>
<event>
 7    1  0.4687179E-006  0.9817491E+02  0.7561462E-02  0.1284181E+00
         -1   -1    0    0    0  501 -0.00000000000E+00  0.00000000000E+00  0.91542170541E+02  0.91542170541E+02  0.00000000000E+00 0.  1.
          1   -1    0    0  501    0  0.00000000000E+00 -0.00000000000E+00 -0.15820315781E+03  0.15820315781E+03  0.00000000000E+00 0. -1.
         23    2    1    2    0    0  0.43827205238E+02  0.25118879453E+02 -0.52426175210E+02  0.11409111730E+03  0.87843594965E+02 0.  0.
          5    1    1    2  502    0  0.18066219238E+02  0.24936410829E+02  0.31090561100E+02  0.43958028301E+02  0.41800000000E+01 0.  1.
         -5    1    1    2    0  502 -0.61893424476E+02 -0.50055290282E+02 -0.45325373164E+02  0.91696182751E+02  0.41800000000E+01 0.  1.
        -11    1    3    3    0    0  0.59769825713E+01  0.43203458320E+02 -0.57134360539E+02  0.71879053177E+02  0.00000000000E+00 0. -1.
         11    1    3    3    0    0  0.37850222667E+02 -0.18084578866E+02  0.47081853292E+01  0.42212064127E+02  0.00000000000E+00 0.  1.
</event>
<event>
 7    1  0.4687179E-006  0.9740613E+02  0.7561462E-02  0.1285847E+00
         -2   -1    0    0    0  501 -0.00000000000E+00  0.00000000000E+00  0.20642473470E+02  0.20642473470E+02  0.00000000000E+00 0.  1.
          2   -1    0    0  501    0  0.00000000000E+00 -0.00000000000E+00 -0.89556700775E+03  0.89556700775E+03  0.00000000000E+00 0. -1.
         23    2    1    2    0    0  0.25512074246E+02  0.67033942768E+02 -0.51444309311E+03  0.52795816395E+03  0.94571197615E+02 0.  0.
          5    1    1    2  502    0 -0.40792147855E+01 -0.44027158173E+02 -0.24395679628E+02  0.50672006419E+02  0.41800000000E+01 0.  1.
         -5    1    1    2    0  502 -0.21432859461E+02 -0.23006784595E+02 -0.33608576155E+03  0.33757931085E+03  0.41800000000E+01 0.  1.
        -11    1    3    3    0    0 -0.20315586265E+02  0.69870565956E+02 -0.31933629173E+03  0.32752142868E+03  0.00000000000E+00 0. -1.
         11    1    3    3    0    0  0.45827660511E+02 -0.28366231887E+01 -0.19510680138E+03  0.20043673526E+03  0.00000000000E+00 0.  1.
</event>
<event>
 7    1  0.4687179E-006  0.1158322E+03  0.7561462E-02  0.1250135E+00
          4   -1    0    0  501    0  0.00000000000E+00  0.00000000000E+00  0.23102041588E+03  0.23102041588E+03  0.00000000000E+00 0.  1.
         -4   -1    0    0    0  501 -0.00000000000E+00 -0.00000000000E+00 -0.81494595892E+02  0.81494595892E+02  0.00000000000E+00 0. -1.
         23    2    1    2    0    0 -0.67113162891E+02 -0.12184551517E+02  0.14419157199E+03  0.18237536307E+03  0.88413368293E+02 0.  0.
          5    1    1    2  502    0  0.25625591996E+02  0.54697373757E+02 -0.22258658562E+02  0.64508867158E+02  0.41800000000E+01 0. -1.
         -5    1    1    2    0  502  0.41487570895E+02 -0.42512822240E+02  0.27592906560E+02  0.65630781544E+02  0.41800000000E+01 0.  1.
        -11    1    3    3    0    0 -0.88834556738E+02 -0.62643317898E+01  0.11194686361E+03  0.14304866513E+03  0.00000000000E+00 0.  1.
         11    1    3    3    0    0  0.21721393847E+02 -0.59202197271E+01  0.32244708383E+02  0.39326697941E+02  0.00000000000E+00 0. -1.
</event>
<event>
 7    1  0.4687179E-006  0.1019425E+03  0.7561462E-02  0.1276263E+00
         -1   -1    0    0    0  501 -0.00000000000E+00  0.00000000000E+00  0.74611124071E+02  0.74611124071E+02  0.00000000000E+00 0.  1.
          1   -1    0    0  501    0  0.00000000000E+00 -0.00000000000E+00 -0.20276405869E+03  0.20276405869E+03  0.00000000000E+00 0. -1.
         23    2    1    2    0    0  0.48820824095E+02  0.25082854274E+02 -0.80945288893E+02  0.13284934192E+03  0.89912098240E+02 0.  0.
          5    1    1    2  502    0 -0.29013900941E+02 -0.64087339324E+02 -0.66165653847E+02  0.96666228117E+02  0.41800000000E+01 0. -1.
         -5    1    1    2    0  502 -0.19806923153E+02  0.39004485050E+02  0.18958008118E+02  0.47859612730E+02  0.41800000000E+01 0. -1.
        -11    1    3    3    0    0 -0.43673419049E+01  0.35077306586E+02  0.15678375101E+00  0.35348489271E+02  0.00000000000E+00 0.  1.
         11    1    3    3    0    0  0.53188165999E+02 -0.99944523116E+01 -0.81102072644E+02  0.97500852645E+02  0.00000000000E+00 0. -1.
</event>
<event>
 7    1  0.4687179E-006  0.1044010E+03  0.7561462E-02  0.1271304E+00
         -1   -1    0    0    0  501 -0.00000000000E+00  0.00000000000E+00  0.32845920632E+02  0.32845920632E+02  0.00000000000E+00 0.  1.
          1   -1    0    0  501    0  0.00000000000E+00 -0.00000000000E+00 -0.52242529533E+03  0.52242529533E+03  0.00000000000E+00 0. -1.
         23    2    1    2    0    0  0.20834134417E+02  0.68666136796E+02 -0.24923739652E+03  0.27498212385E+03  0.91360763547E+02 0.  0.
          5    1    1    2  502    0 -0.11695802459E+02 -0.78132006571E+02 -0.59675957518E+02  0.99096390205E+02  0.41800000000E+01 0.  1.
         -5    1    1    2    0  502 -0.91383319572E+01  0.94658697749E+01 -0.18066602066E+03  0.18119270190E+03  0.41800000000E+01 0.  1.
        -11    1    3    3    0    0  0.51509297078E+02  0.67863822865E+02 -0.17440400128E+03  0.19410167903E+03  0.00000000000E+00 0. -1.
         11    1    3    3    0    0 -0.30675162662E+02  0.80231393047E+00 -0.74833395236E+02  0.80880444821E+02  0.00000000000E+00 0.  1.
</event>
<event>
 7    1  0.4687179E-006  0.1484031E+03  0.7561462E-02  0.1202449E+00
          2   -1    0    0  501    0  0.00000000000E+00  0.00000000000E+00  0.54805136111E+02  0.54805136111E+02  0.00000000000E+00 0. -1.
         -2   -1    0    0    0  501 -0.00000000000E+00 -0.00000000000E+00 -0.45153055014E+03  0.45153055014E+03  0.00000000000E+00 0.  1.
         23    2    1    2    0    0 -0.10032662716E+03 -0.45627320193E+02 -0.13569655151E+03  0.19660764480E+03  0.89965145695E+02 0.  0.
          5    1    1    2  502    0 -0.24322921443E+02 -0.13997145507E+02 -0.40372289353E+02  0.49344895760E+02  0.41800000000E+01 0. -1.
         -5    1    1    2    0  502  0.12464954860E+03  0.59624465700E+02 -0.22065657317E+03  0.26038314569E+03  0.41800000000E+01 0. -1.
        -11    1    3    3    0    0 -0.10252901842E+02 -0.38497207905E+02 -0.82854347561E+02  0.91934759055E+02  0.00000000000E+00 0.  1.
         11    1    3    3    0    0 -0.90073725313E+02 -0.71301122877E+01 -0.52842203945E+02  0.10467288575E+03  0.00000000000E+00 0. -1.
</event>
<event>
 7    1  0.4687179E-006  0.6480819E+02  0.7561462E-02  0.1378694E+00
         -1   -1    0    0    0  501 -0.00000000000E+00  0.00000000000E+00  0.21179236763E+03  0.21179236763E+03  0.00000000000E+00 0.  1.
          1   -1    0    0  501    0  0.00000000000E+00 -0.00000000000E+00 -0.13081935837E+03  0.13081935837E+03  0.00000000000E+00 0. -1.
         23    2    1    2    0    0 -0.26581855933E+02  0.27332408908E+02 -0.73991524264E+02  0.12386809361E+03  0.91732782085E+02 0.  0.
          5    1    1    2  502    0  0.15771923126E+02 -0.98037973524E+01 -0.28394374888E+02  0.34184512969E+02  0.41800000000E+01 0. -1.
         -5    1    1    2    0  502  0.10809932806E+02 -0.17528611555E+02  0.18335890841E+03  0.18455911943E+03  0.41800000000E+01 0.  1.
        -11    1    3    3    0    0 -0.55170799129E+02  0.25886136548E+02 -0.22515400221E+02  0.64968087466E+02  0.00000000000E+00 0. -1.
         11    1    3    3    0    0  0.28588943196E+02  0.14462723599E+01 -0.51476124043E+02  0.58900006140E+02  0.00000000000E+00 0.  1.
</event>
<event>
 7    1  0.4687179E-006  0.1485010E+03  0.7561462E-02  0.1202327E+00
          1   -1    0    0  501    0  0.00000000000E+00  0.00000000000E+00  0.41325142676E+03  0.41325142676E+03  0.00000000000E+00 0. -1.
         -1   -1    0    0    0  501 -0.00000000000E+00 -0.00000000000E+00 -0.84914972977E+02  0.84914972977E+02  0.00000000000E+00 0.  1.
         23    2    1    2    0    0 -0.57149645578E+02  0.93315526967E+02  0.29073784938E+03  0.32396713931E+03  0.91936612555E+02 0.  0.
          5    1    1    2  502    0 -0.30431727107E+02  0.91690908173E+01 -0.56703812828E+01  0.32554383192E+02  0.41800000000E+01 0. -1.
         -5    1    1    2    0  502  0.87581372685E+02 -0.10248461778E+03  0.43268985681E+02  0.14164487723E+03  0.41800000000E+01 0.  1.
        -11    1    3    3    0    0 -0.68907956529E+02  0.49865683710E+02  0.24687585653E+03  0.26111794542E+03  0.00000000000E+00 0. -1.
         11    1    3    3    0    0  0.11758310951E+02  0.43449843257E+02  0.43861992854E+02  0.62849193890E+02  0.00000000000E+00 0.  1.
</event>
<event>
 7    1  0.4687179E-006  0.1372542E+03  0.7561462E-02  0.1217072E+00
          1   -1    0    0  501    0  0.00000000000E+00  0.00000000000E+00  0.59535236827E+03  0.59535236827E+03  0.00000000000E+00 0. -1.
         -1   -1    0    0    0  501 -0.00000000000E+00 -0.00000000000E+00 -0.36692287443E+02  0.36692287443E+02  0.00000000000E+00 0.  1.
         23    2    1    2    0    0 -0.58604164587E+02  0.71150964779E+02  0.33141872899E+03  0.35675636487E+03  0.94550632208E+02 0.  0.
          5    1    1    2  502    0 -0.20955393677E+02  0.23314309833E+02  0.41039230038E+02  0.51810967654E+02  0.41800000000E+01 0. -1.
         -5    1    1    2    0  502  0.79559558264E+02 -0.94465274612E+02  0.18620212180E+03  0.22347732319E+03  0.41800000000E+01 0. -1.
        -11    1    3    3    0    0 -0.72979889068E+02  0.36094167105E+02  0.14289064458E+03  0.16445847322E+03  0.00000000000E+00 0.  1.
         11    1    3    3    0    0  0.14375724481E+02  0.35056797674E+02  0.18852808442E+03  0.19229789165E+03  0.00000000000E+00 0. -1.
</event>
<event>
 7    1  0.4687179E-006  0.1601911E+03  0.7561462E-02  0.1188481E+00
          1   -1    0    0  501    0  0.00000000000E+00  0.00000000000E+00  0.88997599975E+02  0.88997599975E+02  0.00000000000E+00 0. -1.
         -1   -1    0    0    0  501 -0.00000000000E+00 -0.00000000000E+00 -0.38984771012E+03  0.38984771012E+03  0.00000000000E+00 0.  1.
         23    2    1    2    0    0  0.11465881339E+03  0.95648108254E+02 -0.11693900855E+03  0.21095160799E+03  0.92361491389E+02 0.  0.
          5    1    1    2  502    0 -0.54572497480E+02 -0.67371025954E+01 -0.25771493279E+00  0.55146032038E+02  0.41800000000E+01 0.  1.
         -5    1    1    2    0  502 -0.60086315911E+02 -0.88911005658E+02 -0.18365338666E+03  0.21274767007E+03  0.41800000000E+01 0.  1.
        -11    1    3    3    0    0  0.98720831024E+02  0.52425952794E+02 -0.12097322788E+03  0.16470824165E+03  0.00000000000E+00 0.  1.
         11    1    3    3    0    0  0.15937982367E+02  0.43222155460E+02  0.40342193294E+01  0.46243366337E+02  0.00000000000E+00 0. -1.
</event>
<event>
 7    1  0.4687179E-006  0.8753728E+02  0.7561462E-02  0.1308928E+00
          1   -1    0    0  501    0  0.00000000000E+00  0.00000000000E+00  0.10311031885E+03  0.10311031885E+03  0.00000000000E+00 0. -1.
         -1   -1    0    0    0  501 -0.00000000000E+00 -0.00000000000E+00 -0.11965821414E+03  0.11965821414E+03  0.00000000000E+00 0.  1.
         23    2    1    2    0    0 -0.20026268984E+02  0.51783845424E+01 -0.24021905551E+02  0.95758040626E+02  0.90358637010E+02 0.  0.
          5    1    1    2  502    0  0.54670551467E+02 -0.75858316660E+01 -0.39819636164E+02  0.68187167884E+02  0.41800000000E+01 0. -1.
         -5    1    1    2    0  502 -0.34644282483E+02  0.24074471236E+01  0.47293646425E+02  0.58823324478E+02  0.41800000000E+01 0. -1.
        -11    1    3    3    0    0  0.26061069801E+02  0.23554187078E+02 -0.29458796495E+02  0.45845389943E+02  0.00000000000E+00 0.  1.
         11    1    3    3    0    0 -0.46087338785E+02 -0.18375802535E+02  0.54368909436E+01  0.49912650683E+02  0.00000000000E+00 0. -1.
</event>
<event>
 7    1  0.4687179E-006  0.1444107E+03  0.7561462E-02  0.1207514E+00
         -2   -1    0    0    0  501 -0.00000000000E+00  0.00000000000E+00  0.10510467926E+03  0.10510467926E+03  0.00000000000E+00 0.  1.
          2   -1    0    0  501    0  0.00000000000E+00 -0.00000000000E+00 -0.27996222188E+03  0.27996222188E+03  0.00000000000E+00 0. -1.
         23    2    1    2    0    0  0.59897054885E+02 -0.11710565258E+03 -0.63184051365E+02  0.17195107663E+03  0.90959097159E+02 0.  0.
          5    1    1    2  502    0 -0.31501707974E+02  0.10030938541E+03 -0.13597119966E+03  0.17193013099E+03  0.41800000000E+01 0.  1.
         -5    1    1    2    0  502 -0.28395346911E+02  0.16796267170E+02  0.24297708397E+02  0.41185693516E+02  0.41800000000E+01 0.  1.
        -11    1    3    3    0    0  0.48987426625E+02 -0.20466587419E+02 -0.51557640398E+02  0.74005671751E+02  0.00000000000E+00 0.  1.
         11    1    3    3    0    0  0.10909628259E+02 -0.96639065164E+02 -0.11626410967E+02  0.97945404877E+02  0.00000000000E+00 0. -1.
</event>
<event>
 7    1  0.4687179E-006  0.1192080E+03  0.7561462E-02  0.1244409E+00
         -3   -1    0    0    0  501 -0.00000000000E+00  0.00000000000E+00  0.37240813112E+03  0.37240813112E+03  0.00000000000E+00 0.  1.
          3   -1    0    0  501    0  0.00000000000E+00 -0.00000000000E+00 -0.38520091756E+02  0.38520091756E+02  0.00000000000E+00 0. -1.
         23    2    1    2    0    0 -0.33100033054E+02  0.36537297720E+02  0.12748510723E+03  0.16459432931E+03  0.91696534079E+02 0.  0.
          5    1    1    2  502    0  0.40954765882E+02  0.39930078304E+02  0.93306360920E+02  0.10952284415E+03  0.41800000000E+01 0.  1.
         -5    1    1    2    0  502 -0.78547328274E+01 -0.76467376024E+02  0.11309657122E+03  0.13681104943E+03  0.41800000000E+01 0.  1.
        -11    1    3    3    0    0  0.31173931511E+02  0.23033689034E+01  0.40064796047E+02  0.50816408732E+02  0.00000000000E+00 0.  1.
         11    1    3    3    0    0 -0.64273964566E+02  0.34233928816E+02  0.87420311183E+02  0.11377792058E+03  0.00000000000E+00 0. -1.
</event>
<event>
 7    1  0.4687179E-006  0.1248085E+03  0.7561462E-02  0.1235369E+00
         -2   -1    0    0    0  501 -0.00000000000E+00  0.00000000000E+00  0.44599757560E+03  0.44599757560E+03  0.00000000000E+00 0.  1.
          2   -1    0    0  501    0  0.00000000000E+00 -0.00000000000E+00 -0.67768032714E+02  0.67768032714E+02  0.00000000000E+00 0. -1.
         23    2    1    2    0    0  0.10273965427E+03  0.22187638931E+02  0.52182989022E+02  0.14907236505E+03  0.91933550984E+02 0.  0.
          5    1    1    2  502    0 -0.21903686881E+02 -0.53138321338E+02  0.22163182012E+03  0.22900128555E+03  0.41800000000E+01 0. -1.
         -5    1    1    2    0  502 -0.80835967393E+02  0.30950682407E+02  0.10441473375E+03  0.13569195772E+03  0.41800000000E+01 0. -1.
        -11    1    3    3    0    0  0.36420168170E+02  0.11223802514E+02 -0.25871820487E+02  0.46062495457E+02  0.00000000000E+00 0. -1.
         11    1    3    3    0    0  0.66319486104E+02  0.10963836416E+02  0.78054809509E+02  0.10300986959E+03  0.00000000000E+00 0.  1.
</event>
<event>
 7    1  0.4687179E-006  0.1159665E+03  0.7561462E-02  0.1249903E+00
         -4   -1    0    0    0  501 -0.00000000000E+00  0.00000000000E+00  0.32993321534E+03  0.32993321534E+03  0.00000000000E+00 0.  1.
          4   -1    0    0  501    0  0.00000000000E+00 -0.00000000000E+00 -0.59110153617E+02  0.59110153617E+02  0.00000000000E+00 0. -1.
         23    2    1    2    0    0 -0.47985001222E+02 -0.51499808596E+01  0.20897389011E+02  0.10542533728E+03  0.91371320605E+02 0.  0.
          5    1    1    2  502    0  0.86608299510E+02 -0.18342277892E+02  0.16884636558E+03  0.19069348251E+03  0.41800000000E+01 0.  1.
         -5    1    1    2    0  502 -0.38623298288E+02  0.23492258752E+02  0.81079307133E+02  0.92924549163E+02  0.41800000000E+01 0.  1.
        -11    1    3    3    0    0 -0.57294931968E+02  0.27787379634E+02  0.29430525842E+02  0.70149864914E+02  0.00000000000E+00 0.  1.
         11    1    3    3    0    0  0.93099307460E+01 -0.32937360494E+02 -0.85331368317E+01  0.35275472371E+02  0.00000000000E+00 0. -1.
</event>
<event>
 7    1  0.4687179E-006  0.1041083E+03  0.7561462E-02  0.1271886E+00
          2   -1    0    0  501    0  0.00000000000E+00  0.00000000000E+00  0.78978548190E+01  0.78978548190E+01  0.00000000000E+00 0. -1.
         -2   -1    0    0    0  501 -0.00000000000E+00 -0.00000000000E+00 -0.16069387939E+04  0.16069387939E+04  0.00000000000E+00 0.  1.
         23    2    1    2    0    0 -0.14137633658E+02  0.23471870462E+02 -0.43125327532E+03  0.44004909716E+03  0.83144567192E+02 0.  0.
          5    1    1    2  502    0  0.51429251493E+02 -0.52338693753E+02 -0.88669200252E+03  0.88973281748E+03  0.41800000000E+01 0.  1.
         -5    1    1    2    0  502 -0.37291617835E+02  0.28866823291E+02 -0.28109566127E+03  0.28505473410E+03  0.41800000000E+01 0.  1.
        -11    1    3    3    0    0  0.41252897389E+01 -0.30304085618E+02 -0.16416243019E+03  0.16698700281E+03  0.00000000000E+00 0.  1.
         11    1    3    3    0    0 -0.18262923397E+02  0.53775956080E+02 -0.26709084513E+03  0.27306209436E+03  0.00000000000E+00 0. -1.
</event>
<event>
 7    1  0.4687179E-006  0.1566915E+03  0.7561462E-02  0.1192483E+00
          1   -1    0    0  501    0  0.00000000000E+00  0.00000000000E+00  0.58154764208E+02  0.58154764208E+02  0.00000000000E+00 0. -1.
         -1   -1    0    0    0  501 -0.00000000000E+00 -0.00000000000E+00 -0.53172970976E+03  0.53172970976E+03  0.00000000000E+00 0.  1.
         23    2    1    2    0    0 -0.13751538199E+03  0.61344400814E+01 -0.20239480717E+03  0.26104614077E+03  0.90737632772E+02 0.  0.
          5    1    1    2  502    0  0.13802618155E+03  0.27403880197E+02 -0.16239519290E+03  0.21492294088E+03  0.41800000000E+01 0. -1.
         -5    1    1    2    0  502 -0.51079955650E+00 -0.33538320279E+02 -0.10878494548E+03  0.11391539232E+03  0.41800000000E+01 0. -1.
        -11    1    3    3    0    0 -0.29394379486E+02 -0.59958896119E+01 -0.12234958947E+03  0.12597381585E+03  0.00000000000E+00 0.  1.
         11    1    3    3    0    0 -0.10812100250E+03  0.12130329693E+02 -0.80045217705E+02  0.13507232492E+03  0.00000000000E+00 0. -1.
</event>
<event>
 7    1  0.4687179E-006  0.1273867E+03  0.7561462E-02  0.1231386E+00
          2   -1    0    0  501    0  0.00000000000E+00  0.00000000000E+00  0.21737652936E+03  0.21737652936E+03  0.00000000000E+00 0. -1.
         -2   -1    0    0    0  501 -0.00000000000E+00 -0.00000000000E+00 -0.79466677152E+02  0.79466677152E+02  0.00000000000E+00 0.  1.
         23    2    1    2    0    0 -0.71624615496E+02  0.15938612097E+01  0.85112396816E+02  0.14333102361E+03  0.90371656506E+02 0.  0.
          5    1    1    2  502    0  0.96204149558E+02  0.32306475268E+02  0.31461602408E+02  0.10633085894E+03  0.41800000000E+01 0. -1.
         -5    1    1    2    0  502 -0.24579534062E+02 -0.33900336478E+02  0.21335852980E+02  0.47181323957E+02  0.41800000000E+01 0. -1.
        -11    1    3    3    0    0 -0.87192533969E+02 -0.14883181803E+02  0.50202656827E+02  0.10170719656E+03  0.00000000000E+00 0.  1.
         11    1    3    3    0    0  0.15567918473E+02  0.16477043013E+02  0.34909739989E+02  0.41623827048E+02  0.00000000000E+00 0. -1.
</event>
<event>
 7    1  0.4687179E-006  0.1578432E+03  0.7561462E-02  0.1191153E+00
          3   -1    0    0  501    0  0.00000000000E+00  0.00000000000E+00  0.82591058579E+02  0.82591058579E+02  0.00000000000E+00 0. -1.
         -3   -1    0    0    0  501 -0.00000000000E+00 -0.00000000000E+00 -0.30460754796E+03  0.30460754796E+03  0.00000000000E+00 0.  1.
         23    2    1    2    0    0 -0.20182127197E+02 -0.11194455837E+03 -0.10997830414E+03  0.18436995757E+03  0.94647511684E+02 0.  0.
          5    1    1    2  502    0 -0.41648331834E+02  0.96511511288E+02 -0.71009176074E+02  0.12692056903E+03  0.41800000000E+01 0. -1.
         -5    1    1    2    0  502  0.61830459030E+02  0.15433047082E+02 -0.41029009164E+02  0.75908079933E+02  0.41800000000E+01 0. -1.
        -11    1    3    3    0    0  0.35843248171E+02 -0.61768836055E+02 -0.41163234694E+02  0.82428996339E+02  0.00000000000E+00 0. -1.
         11    1    3    3    0    0 -0.56025375368E+02 -0.50175722315E+02 -0.68815069445E+02  0.10194096124E+03  0.00000000000E+00 0.  1.
</event>
<event>
 7    1  0.4687179E-006  0.7419489E+02  0.7561462E-02  0.1346382E+00
          1   -1    0    0  501    0  0.00000000000E+00  0.00000000000E+00  0.21142089775E+02  0.21142089775E+02  0.00000000000E+00 0. -1.
         -1   -1    0    0    0  501 -0.00000000000E+00 -0.00000000000E+00 -0.69110385143E+03  0.69110385143E+03  0.00000000000E+00 0.  1.
         23    2    1    2    0    0  0.21925260308E+02 -0.20453768803E+02 -0.77511751432E+02  0.10599179883E+03  0.65780818721E+02 0.  0.
          5    1    1    2  502    0 -0.59928082456E+01 -0.29090760563E+02 -0.33880611637E+02  0.45249909897E+02  0.41800000000E+01 0. -1.
         -5    1    1    2    0  502 -0.15932452063E+02  0.49544529366E+02 -0.55856939859E+03  0.56100423248E+03  0.41800000000E+01 0. -1.
        -11    1    3    3    0    0 -0.20301123594E+02 -0.31223971756E+01 -0.46427106549E+02  0.50767718147E+02  0.00000000000E+00 0.  1.
         11    1    3    3    0    0  0.42226383902E+02 -0.17331371628E+02 -0.31084644883E+02  0.55224080685E+02  0.00000000000E+00 0. -1.
</event>
<event>
 7    1  0.4687179E-006  0.7009298E+02  0.7561462E-02  0.1359777E+00
         -2   -1    0    0    0  501 -0.00000000000E+00  0.00000000000E+00  0.11593061643E+04  0.11593061643E+04  0.00000000000E+00 0.  1.
          2   -1    0    0  501    0  0.00000000000E+00 -0.00000000000E+00 -0.13422115549E+02  0.13422115549E+02  0.00000000000E+00 0. -1.
         23    2    1    2    0    0 -0.28992049093E+02  0.19043861843E+02  0.26768940672E+03  0.28499178836E+03  0.91430265113E+02 0.  0.
          5    1    1    2  502    0  0.56919283254E+01 -0.17315141964E+02  0.85269453687E+03  0.85289955903E+03  0.41800000000E+01 0. -1.
         -5    1    1    2    0  502  0.23300120767E+02 -0.17287198794E+01  0.25500105187E+02  0.34836932482E+02  0.41800000000E+01 0. -1.
        -11    1    3    3    0    0 -0.38172590345E+02  0.51452892987E+02  0.17919338503E+03  0.19030190774E+03  0.00000000000E+00 0. -1.
         11    1    3    3    0    0  0.91805412527E+01 -0.32409031144E+02  0.88496021688E+02  0.94689880621E+02  0.00000000000E+00 0.  1.
</event>
<event>
 7    1  0.4687179E-006  0.1309665E+03  0.7561462E-02  0.1226029E+00
          1   -1    0    0  501    0  0.00000000000E+00  0.00000000000E+00  0.24757830182E+03  0.24757830182E+03  0.00000000000E+00 0. -1.
         -1   -1    0    0    0  501 -0.00000000000E+00 -0.00000000000E+00 -0.14593686295E+03  0.14593686295E+03  0.00000000000E+00 0.  1.
         23    2    1    2    0    0 -0.70305885522E+01 -0.11539657885E+03  0.15659919778E+03  0.21454145517E+03  0.90216005541E+02 0.  0.
          5    1    1    2  502    0  0.36342681666E+02  0.10723005169E+03  0.30465022950E+01  0.11333943741E+03  0.41800000000E+01 0. -1.
         -5    1    1    2    0  502 -0.29312093114E+02  0.81665271577E+01 -0.58004261199E+02  0.65634272189E+02  0.41800000000E+01 0. -1.
        -11    1    3    3    0    0  0.79796845902E+01 -0.59918020843E+02  0.15820817551E+02  0.62483140573E+02  0.00000000000E+00 0.  1.
         11    1    3    3    0    0 -0.15010273142E+02 -0.55478558007E+02  0.14077838023E+03  0.15205831460E+03  0.00000000000E+00 0. -1.
</event>
<event>
 7    1  0.4687179E-006  0.1213734E+03  0.7561462E-02  0.1240848E+00
         -1   -1    0    0    0  501 -0.00000000000E+00  0.00000000000E+00  0.13394576880E+03  0.13394576880E+03  0.00000000000E+00 0.  1.
          1   -1    0    0  501    0  0.00000000000E+00 -0.00000000000E+00 -0.14012910777E+03  0.14012910777E+03  0.00000000000E+00 0. -1.
         23    2    1    2    0    0 -0.14940047865E+02  0.81518587309E+02 -0.23244520514E+02  0.12305515664E+03  0.87941905450E+02 0.  0.
          5    1    1    2  502    0  0.19561930607E+02 -0.11051485727E+03 -0.74302347211E+01  0.11255613530E+03  0.41800000000E+01 0. -1.
         -5    1    1    2    0  502 -0.46218827426E+01  0.28996269959E+02  0.24491416268E+02  0.38463584628E+02  0.41800000000E+01 0. -1.
        -11    1    3    3    0    0  0.21833697822E+02  0.37770666494E+02 -0.44275009672E+02  0.62157944701E+02  0.00000000000E+00 0. -1.
         11    1    3    3    0    0 -0.36773745687E+02  0.43747920815E+02  0.21030489158E+02  0.60897211937E+02  0.00000000000E+00 0.  1.
</event>
<event>
 7    1  0.4687179E-006  0.1150979E+03  0.7561462E-02  0.1251410E+00
         -1   -1    0    0    0  501 -0.00000000000E+00  0.00000000000E+00  0.58113170590E+02  0.58113170590E+02  0.00000000000E+00 0.  1.
          1   -1    0    0  501    0  0.00000000000E+00 -0.00000000000E+00 -0.35251612661E+03  0.35251612661E+03  0.00000000000E+00 0. -1.
         23    2    1    2    0    0  0.42187058934E+02 -0.32299573473E+02 -0.24273752327E+03  0.26523208478E+03  0.92755286646E+02 0.  0.
          5    1    1    2  502    0  0.31341162049E+02  0.50924332811E+02 -0.22535402274E+02  0.64038057954E+02  0.41800000000E+01 0. -1.
         -5    1    1    2    0  502 -0.73528220983E+02 -0.18624759338E+02 -0.29130030476E+02  0.81359154474E+02  0.41800000000E+01 0. -1.
        -11    1    3    3    0    0 -0.76726921074E+01  0.20366961441E+02 -0.15547408590E+02  0.26747060331E+02  0.00000000000E+00 0.  1.
         11    1    3    3    0    0  0.49859751041E+02 -0.52666534914E+02 -0.22719011468E+03  0.23848502444E+03  0.00000000000E+00 0. -1.
</event>
<event>
 7    1  0.4687179E-006  0.6694598E+02  0.7561462E-02  0.1370797E+00
          2   -1    0    0  501    0  0.00000000000E+00  0.00000000000E+00  0.17495052499E+03  0.17495052499E+03  0.00000000000E+00 0. -1.
         -2   -1    0    0    0  501 -0.00000000000E+00 -0.00000000000E+00 -0.70455521945E+02  0.70455521945E+02  0.00000000000E+00 0.  1.
         23    2    1    2    0    0  0.10308386305E+01  0.19304117041E+02  0.64448642560E+02  0.11264130005E+03  0.90336722244E+02 0.  0.
          5    1    1    2  502    0 -0.35377966424E+02 -0.20426821595E+02  0.73773646535E+02  0.84432688408E+02  0.41800000000E+01 0.  1.
         -5    1    1    2    0  502  0.34347127793E+02  0.11227045535E+01 -0.33727286046E+02  0.48332058483E+02  0.41800000000E+01 0.  1.
        -11    1    3    3    0    0  0.54152573159E+00 -0.19446765782E+02 -0.14786967905E+02  0.24436128362E+02  0.00000000000E+00 0.  1.
         11    1    3    3    0    0  0.48931289895E+00  0.38750882823E+02  0.79235610464E+02  0.88205171687E+02  0.00000000000E+00 0. -1.
</event>
<event>
 7    1  0.4687179E-006  0.2412795E+03  0.7561462E-02  0.1118943E+00
         -3   -1    0    0    0  501 -0.00000000000E+00  0.00000000000E+00  0.37844026025E+03  0.37844026025E+03  0.00000000000E+00 0.  1.
          3   -1    0    0  501    0  0.00000000000E+00 -0.00000000000E+00 -0.21019184210E+03  0.21019184210E+03  0.00000000000E+00 0. -1.
         23    2    1    2    0    0 -0.76115430541E+02 -0.21076632211E+03 -0.53441707796E+02  0.24950405993E+03  0.95813665441E+02 0.  0.
          5    1    1    2  502    0 -0.24633497077E+02  0.11227618647E+03  0.11174180323E+03  0.16036350649E+03  0.41800000000E+01 0. -1.
         -5    1    1    2    0  502  0.10074892762E+03  0.98490135645E+02  0.10994832272E+03  0.17876453593E+03  0.41800000000E+01 0. -1.
        -11    1    3    3    0    0 -0.51773474699E+02 -0.94093220533E+02 -0.71411845605E+02  0.12897161907E+03  0.00000000000E+00 0. -1.
         11    1    3    3    0    0 -0.24341955843E+02 -0.11667310158E+03  0.17970137809E+02  0.12053244086E+03  0.00000000000E+00 0.  1.
</event>
<event>
 7    1  0.4687179E-006  0.9201806E+02  0.7561462E-02  0.1298037E+00
         -2   -1    0    0    0  501 -0.00000000000E+00  0.00000000000E+00  0.27168220391E+02  0.27168220391E+02  0.00000000000E+00 0. -1.
          2   -1    0    0  501    0  0.00000000000E+00 -0.00000000000E+00 -0.58435850669E+03  0.58435850669E+03  0.00000000000E+00 0.  1.
         23    2    1    2    0    0 -0.39648998540E+02 -0.32178555254E+02 -0.33991208136E+03  0.35566511090E+03  0.91378036494E+02 0.  0.
          5    1    1    2  502    0  0.62079685876E+02  0.69003508892E+01 -0.37686830422E+02  0.73070321117E+02  0.41800000000E+01 0. -1.
         -5    1    1    2    0  502 -0.22430687336E+02  0.25278204364E+02 -0.17959137452E+03  0.18279129506E+03  0.41800000000E+01 0. -1.
        -11    1    3    3    0    0  0.15616874317E+02 -0.27871014968E+02 -0.42706357342E+02  0.53333977877E+02  0.00000000000E+00 0. -1.
         11    1    3    3    0    0 -0.55265872857E+02 -0.43075402855E+01 -0.29720572401E+03  0.30233113302E+03  0.00000000000E+00 0.  1.
</event>
<event>
 7    1  0.4687179E-006  0.3811905E+03  0.7561462E-02  0.1050495E+00
         -2   -1    0    0    0  501 -0.00000000000E+00  0.00000000000E+00  0.76836042475E+02  0.76836042475E+02  0.00000000000E+00 0.  1.
          2   -1    0    0  501    0  0.00000000000E+00 -0.00000000000E+00 -0.22595742129E+04  0.22595742129E+04  0.00000000000E+00 0. -1.
         23    2    1    2    0    0  0.31446992252E+03 -0.20914102698E+03 -0.14693725806E+04  0.15196048134E+04  0.86670103661E+02 0.  0.
          5    1    1    2  502    0 -0.19125371162E+03  0.15522467110E+03 -0.33952176675E+03  0.41948204160E+03  0.41800000000E+01 0. -1.
         -5    1    1    2    0  502 -0.12321621090E+03  0.53916355882E+02 -0.37384382310E+03  0.39732340044E+03  0.41800000000E+01 0. -1.
        -11    1    3    3    0    0  0.20369171442E+03 -0.16531245684E+03 -0.87805004337E+03  0.91640078654E+03  0.00000000000E+00 0.  1.
         11    1    3    3    0    0  0.11077820810E+03 -0.43828570146E+02 -0.59132253723E+03  0.60320402683E+03  0.00000000000E+00 0. -1.
</event>
<event>
 7    1  0.4687179E-006  0.2511386E+03  0.7561462E-02  0.1112587E+00
          1   -1    0    0  501    0  0.00000000000E+00  0.00000000000E+00  0.27048125157E+04  0.27048125157E+04  0.00000000000E+00 0. -1.
         -1   -1    0    0    0  501 -0.00000000000E+00 -0.00000000000E+00 -0.27382447638E+02  0.27382447638E+02  0.00000000000E+00 0.  1.
         23    2    1    2    0    0  0.21397546960E+03  0.11795298896E+03  0.10558726057E+04  0.10875693419E+04  0.90783836112E+02 0.  0.
          5    1    1    2  502    0 -0.20331022414E+03 -0.10603650775E+03  0.11429042816E+04  0.11656871182E+04  0.41800000000E+01 0.  1.
         -5    1    1    2    0  502 -0.10665245466E+02 -0.11916481207E+02  0.47865318082E+03  0.47893850325E+03  0.41800000000E+01 0.  1.
        -11    1    3    3    0    0  0.15878504139E+03  0.12319264540E+03  0.73682253601E+03  0.76373854612E+03  0.00000000000E+00 0.  1.
         11    1    3    3    0    0  0.55190428212E+02 -0.52396564426E+01  0.31905006966E+03  0.32383079581E+03  0.00000000000E+00 0. -1.
</event>
<event>
 7    1  0.4687179E-006  0.1170174E+03  0.7561462E-02  0.1248100E+00
         -1   -1    0    0    0  501 -0.00000000000E+00  0.00000000000E+00  0.47810468395E+03  0.47810468395E+03  0.00000000000E+00 0.  1.
          1   -1    0    0  501    0  0.00000000000E+00 -0.00000000000E+00 -0.40447497524E+02  0.40447497524E+02  0.00000000000E+00 0. -1.
         23    2    1    2    0    0 -0.79323029476E+02  0.33366569302E+02  0.18076231943E+03  0.22014337673E+03  0.91556644995E+02 0.  0.
          5    1    1    2  502    0  0.58272516412E+02 -0.72736978410E+02  0.10704807220E+03  0.14199688855E+03  0.41800000000E+01 0.  1.
         -5    1    1    2    0  502  0.21050513065E+02  0.39370409108E+02  0.14984679480E+03  0.15641191619E+03  0.41800000000E+01 0.  1.
        -11    1    3    3    0    0 -0.17821807814E+02 -0.10197703652E+02 -0.37130501773E+01  0.20866162445E+02  0.00000000000E+00 0. -1.
         11    1    3    3    0    0 -0.61501221662E+02  0.43564272955E+02  0.18447536960E+03  0.19927721429E+03  0.00000000000E+00 0.  1.
</event>
<event>
 7    1  0.4687179E-006  0.1076210E+03  0.7561462E-02  0.1265040E+00
         -2   -1    0    0    0  501 -0.00000000000E+00  0.00000000000E+00  0.24780742021E+02  0.24780742021E+02  0.00000000000E+00 0.  1.
          2   -1    0    0  501    0  0.00000000000E+00 -0.00000000000E+00 -0.59114938131E+03  0.59114938131E+03  0.00000000000E+00 0. -1.
         23    2    1    2    0    0  0.93233350128E+01 -0.35268396502E+02 -0.34809405723E+03  0.36171759242E+03  0.91320094278E+02 0.  0.
          5    1    1    2  502    0  0.18746293842E+02  0.74655127494E+02 -0.16510879818E+03  0.18221745040E+03  0.41800000000E+01 0.  1.
         -5    1    1    2    0  502 -0.28069628854E+02 -0.39386730992E+02 -0.53165783871E+02  0.71995080504E+02  0.41800000000E+01 0.  1.
        -11    1    3    3    0    0 -0.35162082914E+02 -0.43383090739E+01 -0.70683974970E+02  0.79065904902E+02  0.00000000000E+00 0.  1.
         11    1    3    3    0    0  0.44485417927E+02 -0.30930087428E+02 -0.27741008226E+03  0.28265168752E+03  0.00000000000E+00 0. -1.
</event>
<event>
 7    1  0.4687179E-006  0.1078630E+03  0.7561462E-02  0.1264579E+00
          1   -1    0    0  501    0  0.00000000000E+00  0.00000000000E+00  0.26125184455E+03  0.26125184455E+03  0.00000000000E+00 0. -1.
         -1   -1    0    0    0  501 -0.00000000000E+00 -0.00000000000E+00 -0.83017636264E+02  0.83017636264E+02  0.00000000000E+00 0.  1.
         23    2    1    2    0    0 -0.62322063717E+02  0.41877212403E+02  0.15770025362E+03  0.19693340879E+03  0.90970637905E+02 0.  0.
          5    1    1    2  502    0  0.94995187115E+02 -0.45139256767E+02  0.35399593431E+02  0.11105062671E+03  0.41800000000E+01 0.  1.
         -5    1    1    2    0  502 -0.32673123398E+02  0.32620443644E+01 -0.14865638767E+02  0.36285445319E+02  0.41800000000E+01 0.  1.
        -11    1    3    3    0    0 -0.19474085236E+02  0.33780289227E+01 -0.81388484934E+01  0.21375030526E+02  0.00000000000E+00 0.  1.
         11    1    3    3    0    0 -0.42847978481E+02  0.38499183480E+02  0.16583910212E+03  0.17555837827E+03  0.00000000000E+00 0. -1.
</event>
<event>
 7    1  0.4687179E-006  0.1141760E+03  0.7561462E-02  0.1253026E+00
         -1   -1    0    0    0  501 -0.00000000000E+00  0.00000000000E+00  0.21743552479E+02  0.21743552479E+02  0.00000000000E+00 0.  1.
          1   -1    0    0  501    0  0.00000000000E+00 -0.00000000000E+00 -0.90421222760E+03  0.90421222760E+03  0.00000000000E+00 0. -1.
         23    2    1    2    0    0 -0.82393319092E+02  0.20468801000E+02 -0.47683129501E+03  0.49306239628E+03  0.92384045560E+02 0.  0.
          5    1    1    2  502    0  0.83595055552E+02 -0.16553185530E+01 -0.40501205197E+03  0.41357358236E+03  0.41800000000E+01 0.  1.
         -5    1    1    2    0  502 -0.12017364607E+01 -0.18813482447E+02 -0.62532814336E+00  0.19319801438E+02  0.41800000000E+01 0.  1.
        -11    1    3    3    0    0 -0.84926010518E+02 -0.17968354375E+02 -0.31922792171E+03  0.33081982259E+03  0.00000000000E+00 0. -1.
         11    1    3    3    0    0  0.25326914265E+01  0.38437155375E+02 -0.15760337330E+03  0.16224257369E+03  0.00000000000E+00 0.  1.
</event>
<event>
 7    1  0.4687179E-006  0.1345194E+03  0.7561462E-02  0.1220900E+00
          2   -1    0    0  501    0  0.00000000000E+00  0.00000000000E+00  0.30909623648E+03  0.30909623648E+03  0.00000000000E+00 0. -1.
         -2   -1    0    0    0  501 -0.00000000000E+00 -0.00000000000E+00 -0.83384461192E+02  0.83384461192E+02  0.00000000000E+00 0.  1.
         23    2    1    2    0    0 -0.32698157776E+02  0.11228669543E+03  0.12287531780E+03  0.19272903117E+03  0.91480403588E+02 0.  0.
          5    1    1    2  502    0  0.28275658248E+02 -0.46996452791E+02 -0.21600103306E+02  0.59094976835E+02  0.41800000000E+01 0.  1.
         -5    1    1    2    0  502  0.44224995274E+01 -0.65290242635E+02  0.12443656079E+03  0.14065668966E+03  0.41800000000E+01 0.  1.
        -11    1    3    3    0    0 -0.48113987994E+02  0.15641369335E+02  0.43369063035E+02  0.66636955992E+02  0.00000000000E+00 0.  1.
         11    1    3    3    0    0  0.15415830219E+02  0.96645326090E+02  0.79506254768E+02  0.12609207518E+03  0.00000000000E+00 0. -1.
</event>
<event>
 7    1  0.1447102E-005  0.5293364E+03  0.7561462E-02  0.1006393E+00
          2   -1    0    0  501    0  0.00000000000E+00  0.00000000000E+00  0.84546241823E+03  0.84546241823E+03  0.00000000000E+00 0. -1.
         -2   -1    0    0    0  501 -0.00000000000E+00 -0.00000000000E+00 -0.33576622103E+03  0.33576622103E+03  0.00000000000E+00 0.  1.
         23    2    1    2    0    0  0.24326705273E+03 -0.46088975132E+03  0.26682063660E+03  0.59281202993E+03  0.92922703936E+02 0.  0.
          5    1    1    2  502    0 -0.10692210463E+03  0.32582498132E+03  0.17319232484E+03  0.38419696602E+03  0.41800000000E+01 0. -1.
         -5    1    1    2    0  502 -0.13634494810E+03  0.13506476999E+03  0.69683235767E+02  0.20421964331E+03  0.41800000000E+01 0. -1.
        -11    1    3    3    0    0  0.61149099432E+02 -0.72846552616E+02  0.16832079750E+02  0.96587532830E+02  0.00000000000E+00 0.  1.
         11    1    3    3    0    0  0.18211795330E+03 -0.38804319870E+03  0.24998855685E+03  0.49622449710E+03  0.00000000000E+00 0. -1.
</event>
<event>
 7    1  0.4687179E-006  0.1030930E+03  0.7561462E-02  0.1273923E+00
         -2   -1    0    0    0  501 -0.00000000000E+00  0.00000000000E+00  0.16262003858E+02  0.16262003858E+02  0.00000000000E+00 0.  1.
          2   -1    0    0  501    0  0.00000000000E+00 -0.00000000000E+00 -0.79154263330E+03  0.79154263330E+03  0.00000000000E+00 0. -1.
         23    2    1    2    0    0 -0.21351087094E+02 -0.20301103600E+02 -0.38946016540E+03  0.40114597688E+03  0.91492461991E+02 0.  0.
          5    1    1    2  502    0 -0.48054045685E+02  0.53310722062E+01 -0.88321245490E+02  0.10077562425E+03  0.41800000000E+01 0.  1.
         -5    1    1    2    0  502  0.69405132780E+02  0.14970031394E+02 -0.29749921855E+03  0.30588303603E+03  0.41800000000E+01 0.  1.
        -11    1    3    3    0    0 -0.52673848930E+02 -0.14965932596E+02 -0.32143625177E+03  0.32606713642E+03  0.00000000000E+00 0. -1.
         11    1    3    3    0    0  0.31322761836E+02 -0.53351710036E+01 -0.68023913630E+02  0.75078840456E+02  0.00000000000E+00 0.  1.
</event>
<event>
 7    1  0.4687179E-006  0.1635623E+03  0.7561462E-02  0.1184733E+00
         -4   -1    0    0    0  501 -0.00000000000E+00  0.00000000000E+00  0.99637634136E+02  0.99637634136E+02  0.00000000000E+00 0.  1.
          4   -1    0    0  501    0  0.00000000000E+00 -0.00000000000E+00 -0.32773344927E+03  0.32773344927E+03  0.00000000000E+00 0. -1.
         23    2    1    2    0    0 -0.29917754620E+02  0.13563679330E+03 -0.64868392639E+02  0.17921185159E+03  0.92825468749E+02 0.  0.
          5    1    1    2  502    0 -0.35554104509E+02 -0.73859869271E+02 -0.30147212861E+02  0.87439701963E+02  0.41800000000E+01 0.  1.
         -5    1    1    2    0  502  0.65471859129E+02 -0.61776924028E+02 -0.13308020964E+03  0.16071952986E+03  0.41800000000E+01 0.  1.
        -11    1    3    3    0    0 -0.49042103322E+02  0.63097851459E+02 -0.66818392191E+02  0.10416892191E+03  0.00000000000E+00 0.  1.
         11    1    3    3    0    0  0.19124348702E+02  0.72538941840E+02  0.19499995519E+01  0.75042929679E+02  0.00000000000E+00 0. -1.
</event>
<event>
 7    1  0.4687179E-006  0.1381053E+03  0.7561462E-02  0.1215901E+00
         -2   -1    0    0    0  501 -0.00000000000E+00  0.00000000000E+00  0.42466040666E+02  0.42466040666E+02  0.00000000000E+00 0.  1.
          2   -1    0    0  501    0  0.00000000000E+00 -0.00000000000E+00 -0.66354439015E+03  0.66354439015E+03  0.00000000000E+00 0. -1.
         23    2    1    2    0    0  0.65188252004E+02 -0.10700004213E+03 -0.34105935985E+03  0.37471613267E+03  0.91608820110E+02 0.  0.
          5    1    1    2  502    0  0.49386340058E+01  0.29122394231E+02  0.24984351696E+01  0.29936909157E+02  0.41800000000E+01 0.  1.
         -5    1    1    2    0  502 -0.70126886010E+02  0.77877647901E+02 -0.28251742480E+03  0.30135738899E+03  0.41800000000E+01 0.  1.
        -11    1    3    3    0    0  0.50300582681E+02 -0.21488274201E+02 -0.21371838056E+03  0.22060698252E+03  0.00000000000E+00 0. -1.
         11    1    3    3    0    0  0.14887669323E+02 -0.85511767930E+02 -0.12734097929E+03  0.15410915015E+03  0.00000000000E+00 0.  1.
</event>
<event>
 7    1  0.6000795E-006  0.1031810E+03  0.7561462E-02  0.1273745E+00
         -1   -1    0    0    0  501 -0.00000000000E+00  0.00000000000E+00  0.29752787491E+02  0.29752787491E+02  0.00000000000E+00 0.  1.
          1   -1    0    0  501    0  0.00000000000E+00 -0.00000000000E+00 -0.68348261873E+03  0.68348261873E+03  0.00000000000E+00 0. -1.
         23    2    1    2    0    0  0.85186141611E+02 -0.32678025499E+02 -0.33190721272E+03  0.35610549077E+03  0.91237002493E+02 0.  0.
          5    1    1    2  502    0 -0.66080902293E+02  0.15063665422E+02 -0.50728618786E+02  0.84761222430E+02  0.41800000000E+01 0. -1.
         -5    1    1    2    0  502 -0.19105239318E+02  0.17614360077E+02 -0.27109399973E+03  0.27236869302E+03  0.41800000000E+01 0. -1.
        -11    1    3    3    0    0  0.29051523467E+01 -0.29658750622E+02 -0.26783519775E+02  0.40067921461E+02  0.00000000000E+00 0.  1.
         11    1    3    3    0    0  0.82280989264E+02 -0.30192748771E+01 -0.30512369295E+03  0.31603756931E+03  0.00000000000E+00 0. -1.
</event>
<event>
 7    1  0.4687179E-006  0.1167251E+03  0.7561462E-02  0.1248600E+00
          1   -1    0    0  501    0  0.00000000000E+00  0.00000000000E+00  0.52265385179E+03  0.52265385179E+03  0.00000000000E+00 0. -1.
         -1   -1    0    0    0  501 -0.00000000000E+00 -0.00000000000E+00 -0.65965645390E+02  0.65965645390E+02  0.00000000000E+00 0.  1.
         23    2    1    2    0    0 -0.60640273275E+02 -0.73984161678E+02  0.39731586776E+03  0.42032399813E+03  0.98292755135E+02 0.  0.
          5    1    1    2  502    0  0.30778605790E+02 -0.94687713810E+00 -0.33176687624E+02  0.45457498308E+02  0.41800000000E+01 0. -1.
         -5    1    1    2    0  502  0.29861667485E+02  0.74931038816E+02  0.92549026268E+02  0.12283800074E+03  0.41800000000E+01 0. -1.
        -11    1    3    3    0    0 -0.29841286719E+01 -0.62803037781E+02  0.10681484348E+03  0.12394570329E+03  0.00000000000E+00 0.  1.
         11    1    3    3    0    0 -0.57656144603E+02 -0.11181123897E+02  0.29050102428E+03  0.29637829484E+03  0.00000000000E+00 0. -1.
</event>
<event>
 7    1  0.4687179E-006  0.9278508E+02  0.7561462E-02  0.1296244E+00
          2   -1    0    0  501    0  0.00000000000E+00  0.00000000000E+00  0.16059481463E+03  0.16059481463E+03  0.00000000000E+00 0. -1.
         -2   -1    0    0    0  501 -0.00000000000E+00 -0.00000000000E+00 -0.96292019548E+02  0.96292019548E+02  0.00000000000E+00 0.  1.
         23    2    1    2    0    0  0.21609546600E+02  0.35114370096E+02  0.71445221633E+02  0.12498287725E+03  0.93895199134E+02 0.  0.
          5    1    1    2  502    0 -0.51080163202E+02 -0.62814503589E+02  0.19384825414E+02  0.83355196540E+02  0.41800000000E+01 0.  1.
         -5    1    1    2    0  502  0.29470616601E+02  0.27700133493E+02 -0.26527251963E+02  0.48548760387E+02  0.41800000000E+01 0.  1.
        -11    1    3    3    0    0  0.21234697137E+01  0.42829332702E+02 -0.72978749472E+01  0.43498503906E+02  0.00000000000E+00 0.  1.
         11    1    3    3    0    0  0.19486076887E+02 -0.77149626062E+01  0.78743096580E+02  0.81484373346E+02  0.00000000000E+00 0. -1.
</event>
<event>
 7    1  0.4687179E-006  0.1064072E+03  0.7561462E-02  0.1267372E+00
         -1   -1    0    0    0  501 -0.00000000000E+00  0.00000000000E+00  0.27034734229E+03  0.27034734229E+03  0.00000000000E+00 0.  1.
          1   -1    0    0  501    0  0.00000000000E+00 -0.00000000000E+00 -0.51952294321E+02  0.51952294321E+02  0.00000000000E+00 0. -1.
         23    2    1    2    0    0  0.43618812604E+02 -0.13634276502E+02  0.11254371887E+03  0.15218143191E+03  0.91676634164E+02 0.  0.
          5    1    1    2  502    0 -0.75420515458E+02  0.24458786435E+02  0.11037433929E+03  0.13596489826E+03  0.41800000000E+01 0.  1.
         -5    1    1    2    0  502  0.31801702853E+02 -0.10824509933E+02 -0.45230101933E+01  0.34153306441E+02  0.41800000000E+01 0.  1.
        -11    1    3    3    0    0 -0.21893706099E+02 -0.24828150168E+02  0.55374432100E+02  0.64514332810E+02  0.00000000000E+00 0.  1.
         11    1    3    3    0    0  0.65512518703E+02  0.11193873666E+02  0.57169286774E+02  0.87667099101E+02  0.00000000000E+00 0. -1.
</event>
<event>
 7    1  0.4687179E-006  0.1215563E+03  0.7561462E-02  0.1240552E+00
         -2   -1    0    0    0  501 -0.00000000000E+00  0.00000000000E+00  0.14038376291E+03  0.14038376291E+03  0.00000000000E+00 0. -1.
          2   -1    0    0  501    0  0.00000000000E+00 -0.00000000000E+00 -0.10954887805E+03  0.10954887805E+03  0.00000000000E+00 0.  1.
         23    2    1    2    0    0  0.10768708796E+02 -0.57076660139E+02  0.45948557314E+01  0.10953278067E+03  0.92750240539E+02 0.  0.
          5    1    1    2  502    0 -0.51878775299E+02 -0.12213212254E+02  0.26623366970E+02  0.59723077189E+02  0.41800000000E+01 0. -1.
         -5    1    1    2    0  502  0.41110066503E+02  0.69289872393E+02 -0.38333784236E+00  0.80676783104E+02  0.41800000000E+01 0. -1.
        -11    1    3    3    0    0 -0.36784199498E+02 -0.29123772671E+01 -0.31897658155E+01  0.37036925898E+02  0.00000000000E+00 0.  1.
         11    1    3    3    0    0  0.47552908294E+02 -0.54164282872E+02  0.77846215468E+01  0.72495854770E+02  0.00000000000E+00 0. -1.
</event>
<event>
 7    1  0.4687179E-006  0.1149251E+03  0.7561462E-02  0.1251712E+00
         -3   -1    0    0    0  501 -0.00000000000E+00  0.00000000000E+00  0.22269769814E+03  0.22269769814E+03  0.00000000000E+00 0.  1.
          3   -1    0    0  501    0  0.00000000000E+00 -0.00000000000E+00 -0.87182055340E+02  0.87182055340E+02  0.00000000000E+00 0. -1.
         23    2    1    2    0    0 -0.56436706275E+02 -0.25820294483E+02 -0.69553173919E+01  0.11038951586E+03  0.91025707075E+02 0.  0.
          5    1    1    2  502    0  0.88281281132E+02  0.47643623898E+02  0.95767944357E+02  0.13875327406E+03  0.41800000000E+01 0. -1.
         -5    1    1    2    0  502 -0.31844574857E+02 -0.21823329415E+02  0.46703015837E+02  0.60736963563E+02  0.41800000000E+01 0. -1.
        -11    1    3    3    0    0  0.14957713713E+02 -0.82865580631E+01 -0.28976925715E+02  0.33646136003E+02  0.00000000000E+00 0. -1.
         11    1    3    3    0    0 -0.71394419988E+02 -0.17533736420E+02  0.22021608323E+02  0.76743379853E+02  0.00000000000E+00 0.  1.
</event>
<event>
 7    1  0.4687179E-006  0.2306460E+03  0.7561462E-02  0.1126186E+00
          1   -1    0    0  501    0  0.00000000000E+00  0.00000000000E+00  0.28611622083E+03  0.28611622083E+03  0.00000000000E+00 0. -1.
         -1   -1    0    0    0  501 -0.00000000000E+00 -0.00000000000E+00 -0.34674515229E+03  0.34674515229E+03  0.00000000000E+00 0.  1.
         23    2    1    2    0    0  0.79160418888E+02 -0.22294839483E+02  0.16882648400E+03  0.21025784635E+03  0.94565048855E+02 0.  0.
          5    1    1    2  502    0 -0.68449773751E+01 -0.15117984557E+03 -0.41971610093E+02  0.15710279398E+03  0.41800000000E+01 0. -1.
         -5    1    1    2    0  502 -0.72315441513E+02  0.17347468506E+03 -0.18748380537E+03  0.26550073279E+03  0.41800000000E+01 0.  1.
        -11    1    3    3    0    0 -0.12528113417E+02 -0.27348288527E+02  0.22746886882E+02  0.37713437578E+02  0.00000000000E+00 0.  1.
         11    1    3    3    0    0  0.91688532305E+02  0.50534490436E+01  0.14607959712E+03  0.17254440877E+03  0.00000000000E+00 0. -1.
</event>
<event>
 7    1  0.4687179E-006  0.1116623E+03  0.7561462E-02  0.1257522E+00
         -1   -1    0    0    0  501 -0.00000000000E+00  0.00000000000E+00  0.10841681672E+04  0.10841681672E+04  0.00000000000E+00 0.  1.
          1   -1    0    0  501    0  0.00000000000E+00 -0.00000000000E+00 -0.16527306860E+02  0.16527306860E+02  0.00000000000E+00 0. -1.
         23    2    1    2    0    0  0.43741432597E+01  0.18276448667E+02  0.19869547502E+03  0.22259204607E+03  0.98560466096E+02 0.  0.
          5    1    1    2  502    0  0.56466510640E+02 -0.29885631029E+02  0.40686490796E+03  0.41187151333E+03  0.41800000000E+01 0.  1.
         -5    1    1    2    0  502 -0.60840653900E+02  0.11609182361E+02  0.46208047736E+03  0.46623191465E+03  0.41800000000E+01 0.  1.
        -11    1    3    3    0    0 -0.15015051870E+02 -0.36310801147E+02  0.10850548744E+03  0.11540089630E+03  0.00000000000E+00 0.  1.
         11    1    3    3    0    0  0.19389195130E+02  0.54587249814E+02  0.90189987579E+02  0.10719114977E+03  0.00000000000E+00 0. -1.
</event>
<event>
 7    1  0.4687179E-006  0.1206379E+03  0.7561462E-02  0.1242048E+00
         -2   -1    0    0    0  501 -0.00000000000E+00  0.00000000000E+00  0.57515268553E+02  0.57515268553E+02  0.00000000000E+00 0. -1.
          2   -1    0    0  501    0  0.00000000000E+00 -0.00000000000E+00 -0.28733563019E+03  0.28733563019E+03  0.00000000000E+00 0.  1.
         23    2    1    2    0    0 -0.15091519466E+02  0.63794282712E+02 -0.13584418201E+03  0.17521344568E+03  0.89155175368E+02 0.  0.
          5    1    1    2  502    0  0.16275183497E+02 -0.96414679593E+02 -0.95435046953E+02  0.13669671769E+03  0.41800000000E+01 0. -1.
         -5    1    1    2    0  502 -0.11836640309E+01  0.32620396881E+02  0.14588673276E+01  0.32940735376E+02  0.41800000000E+01 0. -1.
        -11    1    3    3    0    0 -0.12087771652E+02  0.86628796226E+02 -0.11127634273E+03  0.14153828814E+03  0.00000000000E+00 0.  1.
         11    1    3    3    0    0 -0.30037478144E+01 -0.22834513514E+02 -0.24567839283E+02  0.33675157541E+02  0.00000000000E+00 0. -1.
</event>
<event>
 6    1  0.4687179E-006  0.5851343E+03  0.7561462E-02  0.9936737E-01
          1   -1    0    0  501    0  0.00000000000E+00  0.00000000000E+00  0.71161630729E+03  0.71161630729E+03  0.00000000000E+00 0. -1.
         -1   -1    0    0    0  501 -0.00000000000E+00 -0.00000000000E+00 -0.72884797530E+03  0.72884797530E+03  0.00000000000E+00 0.  1.
          5    1    1    2  502    0 -0.35371915042E+03 -0.37699953612E+02  0.84447368807E+02  0.36563281359E+03  0.41800000000E+01 0. -1.
         -5    1    1    2    0  502  0.39842818611E+03  0.22183669304E+03 -0.24410598997E+03  0.51726370896E+03  0.41800000000E+01 0.  1.
        -11    1    1    2    0    0 -0.17233771611E+03 -0.65924031189E+02  0.28030925836E+03  0.33558835886E+03  0.00000000000E+00 0. -1.
         11    1    1    2    0    0  0.12762868042E+03 -0.11821270824E+03 -0.13788230521E+03  0.22197940117E+03  0.00000000000E+00 0.  1.
</event>
<event>
 7    1  0.4687179E-006  0.1458706E+03  0.7561462E-02  0.1205641E+00
         -1   -1    0    0    0  501 -0.00000000000E+00  0.00000000000E+00  0.29971990524E+03  0.29971990524E+03  0.00000000000E+00 0.  1.
          1   -1    0    0  501    0  0.00000000000E+00 -0.00000000000E+00 -0.13191176156E+03  0.13191176156E+03  0.00000000000E+00 0. -1.
         23    2    1    2    0    0 -0.94292784414E+02 -0.23913218067E+02 -0.61933105664E+02  0.14617467450E+03  0.89824020713E+02 0.  0.
          5    1    1    2  502    0  0.55092285586E+00  0.65329205421E+02  0.10772897281E+03  0.12606035292E+03  0.41800000000E+01 0. -1.
         -5    1    1    2    0  502  0.93741861558E+02 -0.41415987354E+02  0.12201227654E+03  0.15939663937E+03  0.41800000000E+01 0.  1.
        -11    1    3    3    0    0 -0.34521826652E+01  0.21759531251E+02 -0.34376426042E+02  0.40830545341E+02  0.00000000000E+00 0.  1.
         11    1    3    3    0    0 -0.90840601749E+02 -0.45672749318E+02 -0.27556679622E+02  0.10534412916E+03  0.00000000000E+00 0. -1.
</event>
<event>
 7    1  0.4687179E-006  0.3863263E+03  0.7561462E-02  0.1048620E+00
         -2   -1    0    0    0  501 -0.00000000000E+00  0.00000000000E+00  0.17175296000E+03  0.17175296000E+03  0.00000000000E+00 0.  1.
          2   -1    0    0  501    0  0.00000000000E+00 -0.00000000000E+00 -0.16787392733E+04  0.16787392733E+04  0.00000000000E+00 0. -1.
         23    2    1    2    0    0  0.20828652783E+03 -0.90263418325E+02 -0.35650977029E+03  0.43317912888E+03  0.94943030412E+02 0.  0.
          5    1    1    2  502    0 -0.26820597186E+03 -0.13959426038E+03 -0.11400902359E+04  0.11795101608E+04  0.41800000000E+01 0. -1.
         -5    1    1    2    0  502  0.59919444035E+02  0.22985767870E+03 -0.10386307075E+02  0.23780294365E+03  0.41800000000E+01 0.  1.
        -11    1    3    3    0    0  0.83753890823E+02 -0.64023098908E+02 -0.93142839805E+02  0.14067430479E+03  0.00000000000E+00 0.  1.
         11    1    3    3    0    0  0.12453263700E+03 -0.26240319417E+02 -0.26336693048E+03  0.29250482409E+03  0.00000000000E+00 0. -1.
</event>
<event>
 7    1  0.4687179E-006  0.1164194E+03  0.7561462E-02  0.1249124E+00
         -2   -1    0    0    0  501 -0.00000000000E+00  0.00000000000E+00  0.13118888044E+03  0.13118888044E+03  0.00000000000E+00 0. -1.
          2   -1    0    0  501    0  0.00000000000E+00 -0.00000000000E+00 -0.12082280025E+03  0.12082280025E+03  0.00000000000E+00 0.  1.
         23    2    1    2    0    0  0.65304773328E+02 -0.22040991442E+01  0.18875424012E+01  0.11062925583E+03  0.89250758853E+02 0.  0.
          5    1    1    2  502    0 -0.20081528874E+02 -0.57177283943E+02 -0.15825714451E+02  0.62772886176E+02  0.41800000000E+01 0.  1.
         -5    1    1    2    0  502 -0.45223244453E+02  0.59381383087E+02  0.24304252236E+02  0.78609538689E+02  0.41800000000E+01 0.  1.
        -11    1    3    3    0    0  0.41398002628E+01  0.28567783174E+02  0.25181181293E+02  0.38305979599E+02  0.00000000000E+00 0. -1.
         11    1    3    3    0    0  0.61164973065E+02 -0.30771882319E+02 -0.23293638891E+02  0.72323276227E+02  0.00000000000E+00 0.  1.
</event>
<event>
 7    1  0.4687179E-006  0.2882293E+03  0.7561462E-02  0.1091277E+00
          1   -1    0    0  501    0  0.00000000000E+00  0.00000000000E+00  0.13448576689E+03  0.13448576689E+03  0.00000000000E+00 0. -1.
         -1   -1    0    0    0  501 -0.00000000000E+00 -0.00000000000E+00 -0.69966245181E+03  0.69966245181E+03  0.00000000000E+00 0.  1.
         23    2    1    2    0    0  0.23779397765E+03  0.13914024218E+03 -0.17694735326E+03  0.34193412074E+03  0.98501747700E+02 0.  0.
          5    1    1    2  502    0 -0.13819362881E+03 -0.12656644854E+03 -0.17472237011E+03  0.25624582720E+03  0.41800000000E+01 0. -1.
         -5    1    1    2    0  502 -0.99600348835E+02 -0.12573793640E+02 -0.21350696156E+03  0.23596827077E+03  0.41800000000E+01 0. -1.
        -11    1    3    3    0    0  0.19189955212E+03  0.67431343835E+02 -0.14966656789E+03  0.25253218761E+03  0.00000000000E+00 0.  1.
         11    1    3    3    0    0  0.45894425524E+02  0.71708898345E+02 -0.27280785367E+02  0.89401933124E+02  0.00000000000E+00 0. -1.
</event>
<event>
 7    1  0.4687179E-006  0.1306414E+03  0.7561462E-02  0.1226507E+00
          1   -1    0    0  501    0  0.00000000000E+00  0.00000000000E+00  0.21260991088E+03  0.21260991088E+03  0.00000000000E+00 0. -1.
         -1   -1    0    0    0  501 -0.00000000000E+00 -0.00000000000E+00 -0.99274240276E+02  0.99274240276E+02  0.00000000000E+00 0.  1.
         23    2    1    2    0    0 -0.96633289540E+02  0.54011544473E+01  0.50221967605E+02  0.14165331986E+03  0.90422629250E+02 0.  0.
          5    1    1    2  502    0 -0.52840845755E+01 -0.45426858414E+02  0.49892288004E+01  0.46194001983E+02  0.41800000000E+01 0.  1.
         -5    1    1    2    0  502  0.10191737412E+03  0.40025703967E+02  0.58124474197E+02  0.12403682931E+03  0.41800000000E+01 0.  1.
        -11    1    3    3    0    0 -0.78874008771E+02  0.21566286071E+02 -0.45008463578E+01  0.81893049597E+02  0.00000000000E+00 0.  1.
         11    1    3    3    0    0 -0.17759280770E+02 -0.16165131624E+02  0.54722813963E+02  0.59760270263E+02  0.00000000000E+00 0. -1.
</event>
<event>
 7    1  0.4687179E-006  0.1391514E+03  0.7561462E-02  0.1214475E+00
         -1   -1    0    0    0  501 -0.00000000000E+00  0.00000000000E+00  0.67692692450E+02  0.67692692450E+02  0.00000000000E+00 0.  1.
          1   -1    0    0  501    0  0.00000000000E+00 -0.00000000000E+00 -0.35854736610E+03  0.35854736610E+03  0.00000000000E+00 0. -1.
         23    2    1    2    0    0 -0.11138839823E+03  0.61632403440E+01 -0.14933031734E+03  0.20686609521E+03  0.89714418457E+02 0.  0.
          5    1    1    2  502    0 -0.90628044600E+01  0.13850215352E+02 -0.81467219948E+02  0.83236669900E+02  0.41800000000E+01 0.  1.
         -5    1    1    2    0  502  0.12045120269E+03 -0.20013455696E+02 -0.60057136370E+02  0.13613729345E+03  0.41800000000E+01 0.  1.
        -11    1    3    3    0    0 -0.10352420101E+03 -0.25345695081E+02 -0.91180872339E+02  0.14026266765E+03  0.00000000000E+00 0.  1.
         11    1    3    3    0    0 -0.78641972150E+01  0.31508935425E+02 -0.58149444997E+02  0.66603427561E+02  0.00000000000E+00 0. -1.
</event>
<event>
 7    1  0.4687179E-006  0.9481772E+02  0.7561462E-02  0.1291587E+00
          2   -1    0    0  501    0  0.00000000000E+00  0.00000000000E+00  0.14322390821E+03  0.14322390821E+03  0.00000000000E+00 0. -1.
         -2   -1    0    0    0  501 -0.00000000000E+00 -0.00000000000E+00 -0.88668598534E+02  0.88668598534E+02  0.00000000000E+00 0.  1.
         23    2    1    2    0    0  0.36866210851E+02  0.26782415123E+02  0.31989986101E+02  0.10747747613E+03  0.91932765665E+02 0.  0.
          5    1    1    2  502    0 -0.21241623932E+02  0.30325617867E+02  0.47214565044E+02  0.60145966104E+02  0.41800000000E+01 0. -1.
         -5    1    1    2    0  502 -0.15624586919E+02 -0.57108032991E+02 -0.24649241465E+02  0.64269064512E+02  0.41800000000E+01 0.  1.
        -11    1    3    3    0    0  0.82944236329E+01  0.53358917669E+02  0.40548239108E+02  0.67528743901E+02  0.00000000000E+00 0. -1.
         11    1    3    3    0    0  0.28571787218E+02 -0.26576502545E+02 -0.85582530063E+01  0.39948732232E+02  0.00000000000E+00 0.  1.
</event>
<event>
 7    1  0.4687179E-006  0.6462125E+02  0.7561462E-02  0.1379402E+00
         -1   -1    0    0    0  501 -0.00000000000E+00  0.00000000000E+00  0.25337708733E+02  0.25337708733E+02  0.00000000000E+00 0.  1.
          1   -1    0    0  501    0  0.00000000000E+00 -0.00000000000E+00 -0.48595467365E+03  0.48595467365E+03  0.00000000000E+00 0. -1.
         23    2    1    2    0    0  0.13205441572E+01 -0.15992513347E+02 -0.22912250540E+03  0.24767353933E+03  0.92669063245E+02 0.  0.
          5    1    1    2  502    0 -0.27069479083E+00 -0.24214550233E+02  0.38076117836E+01  0.24867408915E+02  0.41800000000E+01 0.  1.
         -5    1    1    2    0  502 -0.10498493664E+01  0.40207063581E+02 -0.23530207129E+03  0.23875143413E+03  0.41800000000E+01 0.  1.
        -11    1    3    3    0    0 -0.11669252304E+01 -0.40039062422E+02 -0.21693167491E+03  0.22059882097E+03  0.00000000000E+00 0. -1.
         11    1    3    3    0    0  0.24874693877E+01  0.24046549074E+02 -0.12190830497E+02  0.27074718365E+02  0.00000000000E+00 0.  1.
</event>
<event>
 7    1  0.4687179E-006  0.1461323E+03  0.7561462E-02  0.1205308E+00
         -2   -1    0    0    0  501 -0.00000000000E+00  0.00000000000E+00  0.82045088351E+02  0.82045088351E+02  0.00000000000E+00 0.  1.
          2   -1    0    0  501    0  0.00000000000E+00 -0.00000000000E+00 -0.46636506578E+03  0.46636506578E+03  0.00000000000E+00 0. -1.
         23    2    1    2    0    0 -0.97231747946E+02  0.83293319177E+02 -0.32265673693E+03  0.35909263297E+03  0.91914957099E+02 0.  0.
          5    1    1    2  502    0  0.20931408660E+02  0.24247784312E+02 -0.46363772235E+02  0.56507970131E+02  0.41800000000E+01 0.  1.
         -5    1    1    2    0  502  0.76300339285E+02 -0.10754110349E+03 -0.15299468260E+02  0.13280955103E+03  0.41800000000E+01 0.  1.
        -11    1    3    3    0    0 -0.71346527749E+02  0.61757044653E+02 -0.30842264007E+03  0.32253493531E+03  0.00000000000E+00 0. -1.
         11    1    3    3    0    0 -0.25885220196E+02  0.21536274525E+02 -0.14234096862E+02  0.36557697664E+02  0.00000000000E+00 0.  1.
</event>
<event>
 7    1  0.4687179E-006  0.1092255E+03  0.7561462E-02  0.1262011E+00
         -2   -1    0    0    0  501 -0.00000000000E+00  0.00000000000E+00  0.23809769894E+03  0.23809769894E+03  0.00000000000E+00 0.  1.
          2   -1    0    0  501    0  0.00000000000E+00 -0.00000000000E+00 -0.77287254641E+02  0.77287254641E+02  0.00000000000E+00 0. -1.
         23    2    1    2    0    0  0.71656351267E+02 -0.31542067209E+02  0.44610322212E+02  0.12755858186E+03  0.90286080203E+02 0.  0.
          5    1    1    2  502    0 -0.74163301104E+02  0.21726051928E+01  0.70011463277E+01  0.74641837423E+02  0.41800000000E+01 0.  1.
         -5    1    1    2    0  502  0.25069498368E+01  0.29369462016E+02  0.10919897576E+03  0.11318453430E+03  0.41800000000E+01 0.  1.
        -11    1    3    3    0    0 -0.16088554681E+02  0.81812960933E+01  0.22302817116E+02  0.28691302668E+02  0.00000000000E+00 0. -1.
         11    1    3    3    0    0  0.87744905948E+02 -0.39723363302E+02  0.22307505096E+02  0.98867279195E+02  0.00000000000E+00 0.  1.
</event>
<event>
 7    1  0.4687179E-006  0.9549587E+02  0.7561462E-02  0.1290063E+00
         -1   -1    0    0    0  501 -0.00000000000E+00  0.00000000000E+00  0.42692182592E+03  0.42692182592E+03  0.00000000000E+00 0.  1.
          1   -1    0    0  501    0  0.00000000000E+00 -0.00000000000E+00 -0.44257391740E+02  0.44257391740E+02  0.00000000000E+00 0. -1.
         23    2    1    2    0    0  0.83420064285E+02 -0.71315580884E+01  0.15220279965E+03  0.19591538538E+03  0.90594590142E+02 0.  0.
          5    1    1    2  502    0 -0.39187449564E+02 -0.23995885879E+02  0.86874100748E+01  0.46951062142E+02  0.41800000000E+01 0.  1.
         -5    1    1    2    0  502 -0.44232614720E+02  0.31127443968E+02  0.22177422446E+03  0.22831277014E+03  0.41800000000E+01 0.  1.
        -11    1    3    3    0    0  0.27444742921E+02  0.13953129624E+02 -0.16621814212E+01  0.30832881594E+02  0.00000000000E+00 0. -1.
         11    1    3    3    0    0  0.55975321364E+02 -0.21084687712E+02  0.15386498107E+03  0.16508250379E+03  0.00000000000E+00 0.  1.
</event>
<event>
 7    1  0.4687179E-006  0.8505560E+02  0.7561462E-02  0.1315287E+00
         -1   -1    0    0    0  501 -0.00000000000E+00  0.00000000000E+00  0.75510199697E+03  0.75510199697E+03  0.00000000000E+00 0.  1.
          1   -1    0    0  501    0  0.00000000000E+00 -0.00000000000E+00 -0.16072502867E+02  0.16072502867E+02  0.00000000000E+00 0. -1.
         23    2    1    2    0    0 -0.10082831494E+02  0.43092452932E+01  0.27146715443E+03  0.28704466266E+03  0.92628231882E+02 0.  0.
          5    1    1    2  502    0  0.43416543913E+02  0.78303015643E+01  0.43006294704E+03  0.43234005218E+03  0.41800000000E+01 0.  1.
         -5    1    1    2    0  502 -0.33333712420E+02 -0.12139546858E+02  0.37499392638E+02  0.51789784995E+02  0.41800000000E+01 0.  1.
        -11    1    3    3    0    0  0.37014418162E+02  0.17817580899E+02  0.87476655679E+02  0.96642116231E+02  0.00000000000E+00 0.  1.
         11    1    3    3    0    0 -0.47097249655E+02 -0.13508335605E+02  0.18399049875E+03  0.19040254643E+03  0.00000000000E+00 0. -1.
</event>
<event>
 7    1  0.4687179E-006  0.1158442E+03  0.7561462E-02  0.1250115E+00
          2   -1    0    0  501    0  0.00000000000E+00  0.00000000000E+00  0.77513290700E+02  0.77513290700E+02  0.00000000000E+00 0. -1.
         -2   -1    0    0    0  501 -0.00000000000E+00 -0.00000000000E+00 -0.20266066671E+03  0.20266066671E+03  0.00000000000E+00 0.  1.
         23    2    1    2    0    0  0.41063179795E+01  0.60774345162E+02 -0.35052424406E+02  0.11441554949E+03  0.90287665994E+02 0.  0.
          5    1    1    2  502    0 -0.59331300124E+02 -0.46627348695E+02 -0.26110352515E+02  0.79959588101E+02  0.41800000000E+01 0. -1.
         -5    1    1    2    0  502  0.55224982145E+02 -0.14146996467E+02 -0.63984599086E+02  0.85798819818E+02  0.41800000000E+01 0. -1.
        -11    1    3    3    0    0  0.13712046986E+02  0.78017121112E+02 -0.46246093475E+02  0.91724547319E+02  0.00000000000E+00 0.  1.
         11    1    3    3    0    0 -0.96057290062E+01 -0.17242775950E+02  0.11193669069E+02  0.22691002169E+02  0.00000000000E+00 0. -1.
</event>
<event>
 7    1  0.4687179E-006  0.1361679E+03  0.7561462E-02  0.1218580E+00
          1   -1    0    0  501    0  0.00000000000E+00  0.00000000000E+00  0.30001263324E+03  0.30001263324E+03  0.00000000000E+00 0. -1.
         -1   -1    0    0    0  501 -0.00000000000E+00 -0.00000000000E+00 -0.65429224857E+02  0.65429224857E+02  0.00000000000E+00 0.  1.
         23    2    1    2    0    0 -0.67492927808E+02  0.67972676177E+02  0.10194389530E+03  0.15948824964E+03  0.76605247681E+02 0.  0.
          5    1    1    2  502    0  0.89323769293E+02 -0.89089102196E+02  0.11391891489E+03  0.17003116026E+03  0.41800000000E+01 0.  1.
         -5    1    1    2    0  502 -0.21830841485E+02  0.21116426019E+02  0.18720598188E+02  0.35922448194E+02  0.41800000000E+01 0.  1.
        -11    1    3    3    0    0 -0.46812175983E+02  0.79139252904E+02  0.55402520608E+02  0.10734915212E+03  0.00000000000E+00 0.  1.
         11    1    3    3    0    0 -0.20680751825E+02 -0.11166576727E+02  0.46541374696E+02  0.52139097522E+02  0.00000000000E+00 0. -1.
</event>
<event>
 7    1  0.4687179E-006  0.1063022E+03  0.7561462E-02  0.1267575E+00
         -1   -1    0    0    0  501 -0.00000000000E+00  0.00000000000E+00  0.49082887813E+02  0.49082887813E+02  0.00000000000E+00 0.  1.
          1   -1    0    0  501    0  0.00000000000E+00 -0.00000000000E+00 -0.46718235003E+03  0.46718235003E+03  0.00000000000E+00 0. -1.
         23    2    1    2    0    0  0.75782493590E+02 -0.29697249910E+02 -0.30678179143E+03  0.33007909807E+03  0.90621357516E+02 0.  0.
          5    1    1    2  502    0 -0.49381678229E+02 -0.29215502703E+02 -0.10847598442E+00  0.57528948451E+02  0.41800000000E+01 0. -1.
         -5    1    1    2    0  502 -0.26400815361E+02  0.58912752612E+02 -0.11120919480E+03  0.12865719133E+03  0.41800000000E+01 0. -1.
        -11    1    3    3    0    0  0.24221827857E+02 -0.30333694034E+02 -0.31446998967E+02  0.49957418694E+02  0.00000000000E+00 0.  1.
         11    1    3    3    0    0  0.51560665733E+02  0.63644412445E+00 -0.27533479247E+03  0.28012167937E+03  0.00000000000E+00 0. -1.
</event>
<event>
 6    1  0.4687179E-006  0.9835949E+02  0.7561462E-02  0.1283784E+00
          4   -1    0    0  501    0  0.00000000000E+00  0.00000000000E+00  0.15619948334E+03  0.15619948334E+03  0.00000000000E+00 0. -1.
         -4   -1    0    0    0  501 -0.00000000000E+00 -0.00000000000E+00 -0.13905210730E+03  0.13905210730E+03  0.00000000000E+00 0.  1.
          5    1    1    2  502    0  0.86192964215E+01  0.24558506170E+02 -0.73106560096E+02  0.77713924268E+02  0.41800000000E+01 0.  1.
         -5    1    1    2    0  502 -0.52656728214E+02 -0.46693004276E+01  0.32892563582E+02  0.62401334374E+02  0.41800000000E+01 0.  1.
        -11    1    1    2    0    0  0.72969106602E+02  0.12356129207E+02 -0.10374422181E+02  0.74731473174E+02  0.00000000000E+00 0.  1.
         11    1    1    2    0    0 -0.28931674809E+02 -0.32245334949E+02  0.67735794732E+02  0.80404858816E+02  0.00000000000E+00 0. -1.
</event>
<event>
 7    1  0.4687179E-006  0.8446848E+02  0.7561462E-02  0.1316828E+00
         -2   -1    0    0    0  501 -0.00000000000E+00  0.00000000000E+00  0.11244012337E+03  0.11244012337E+03  0.00000000000E+00 0.  1.
          2   -1    0    0  501    0  0.00000000000E+00 -0.00000000000E+00 -0.14130021160E+03  0.14130021160E+03  0.00000000000E+00 0. -1.
         23    2    1    2    0    0  0.39301085284E+02  0.25313691289E+02 -0.66061410504E+02  0.11515232807E+03  0.81918193525E+02 0.  0.
          5    1    1    2  502    0  0.20488846228E+02 -0.52282817626E+02 -0.10626842635E+02  0.57303473045E+02  0.41800000000E+01 0.  1.
         -5    1    1    2    0  502 -0.59789931513E+02  0.26969126337E+02  0.47828164909E+02  0.81284533857E+02  0.41800000000E+01 0.  1.
        -11    1    3    3    0    0  0.10859040115E+02  0.50167073904E+01  0.19418216000E+02  0.22806867779E+02  0.00000000000E+00 0.  1.
         11    1    3    3    0    0  0.28442045169E+02  0.20296983899E+02 -0.85479626504E+02  0.92345460290E+02  0.00000000000E+00 0. -1.
</event>
<event>
 7    1  0.4687179E-006  0.1025526E+03  0.7561462E-02  0.1275018E+00
         -2   -1    0    0    0  501 -0.00000000000E+00  0.00000000000E+00  0.49921484241E+02  0.49921484241E+02  0.00000000000E+00 0.  1.
          2   -1    0    0  501    0  0.00000000000E+00 -0.00000000000E+00 -0.72817396628E+03  0.72817396628E+03  0.00000000000E+00 0. -1.
         23    2    1    2    0    0 -0.17424029905E+01 -0.12285688000E+02 -0.16746843198E+03  0.19078817223E+03  0.90556484347E+02 0.  0.
          5    1    1    2  502    0  0.13117795478E+02  0.75979456880E+02 -0.51648075500E+03  0.52222102324E+03  0.41800000000E+01 0. -1.
         -5    1    1    2    0  502 -0.11375392487E+02 -0.63693768881E+02  0.56967049455E+01  0.65086255044E+02  0.41800000000E+01 0.  1.
        -11    1    3    3    0    0 -0.73873737303E+01  0.24626532748E+02 -0.78827367924E+01  0.26891949449E+02  0.00000000000E+00 0.  1.
         11    1    3    3    0    0  0.56449707398E+01 -0.36912220748E+02 -0.15958569519E+03  0.16389622279E+03  0.00000000000E+00 0. -1.
</event>
<event>
 7    1  0.4687179E-006  0.1229920E+03  0.7561462E-02  0.1238241E+00
          1   -1    0    0  501    0  0.00000000000E+00  0.00000000000E+00  0.26333053558E+03  0.26333053558E+03  0.00000000000E+00 0. -1.
         -1   -1    0    0    0  501 -0.00000000000E+00 -0.00000000000E+00 -0.87259632481E+02  0.87259632481E+02  0.00000000000E+00 0.  1.
         23    2    1    2    0    0  0.66659371876E+02  0.60407226315E+02  0.14494647390E+03  0.19322161648E+03  0.90733719908E+02 0.  0.
          5    1    1    2  502    0 -0.47264324621E+02  0.33625348453E+02  0.11382671393E+02  0.59258906913E+02  0.41800000000E+01 0. -1.
         -5    1    1    2    0  502 -0.19395047255E+02 -0.94032574768E+02  0.19741757804E+02  0.98109644667E+02  0.41800000000E+01 0.  1.
        -11    1    3    3    0    0  0.27473366266E+02  0.13520588425E+02 -0.52535442397E+01  0.31067537598E+02  0.00000000000E+00 0.  1.
         11    1    3    3    0    0  0.39186005610E+02  0.46886637890E+02  0.15020001814E+03  0.16215407888E+03  0.00000000000E+00 0. -1.
</event>
<event>
 6    1  0.4687179E-006  0.9221749E+02  0.7561462E-02  0.1297569E+00
          2   -1    0    0  501    0  0.00000000000E+00  0.00000000000E+00  0.32202255334E+03  0.32202255334E+03  0.00000000000E+00 0. -1.
         -2   -1    0    0    0  501 -0.00000000000E+00 -0.00000000000E+00 -0.37484986647E+02  0.37484986647E+02  0.00000000000E+00 0.  1.
          5    1    1    2  502    0  0.55182436994E+02  0.54481081768E+02  0.18302382919E+03  0.19881771570E+03  0.41800000000E+01 0. -1.
         -5    1    1    2    0  502 -0.63973226076E+02 -0.52347850016E+02  0.37028493400E+02  0.90672227166E+02  0.41800000000E+01 0.  1.
        -11    1    1    2    0    0  0.19354152111E+01  0.99398637265E+01  0.11876086581E+02  0.15607310961E+02  0.00000000000E+00 0.  1.
         11    1    1    2    0    0  0.68553738703E+01 -0.12073095478E+02  0.52609157523E+02  0.54410286166E+02  0.00000000000E+00 0. -1.
</event>
<event>
 7    1  0.4687179E-006  0.1676348E+03  0.7561462E-02  0.1180337E+00
          2   -1    0    0  501    0  0.00000000000E+00  0.00000000000E+00  0.71912899947E+03  0.71912899947E+03  0.00000000000E+00 0. -1.
         -2   -1    0    0    0  501 -0.00000000000E+00 -0.00000000000E+00 -0.10817522362E+03  0.10817522362E+03  0.00000000000E+00 0.  1.
         23    2    1    2    0    0  0.11887467592E+03 -0.83190191065E+02  0.61221630997E+03  0.63572803524E+03  0.91046845827E+02 0.  0.
          5    1    1    2  502    0  0.61354910875E+01  0.37380343402E+02 -0.37566087963E+02  0.53512780610E+02  0.41800000000E+01 0. -1.
         -5    1    1    2    0  502 -0.12501016700E+03  0.45809847663E+02  0.36303553849E+02  0.13806340724E+03  0.41800000000E+01 0. -1.
        -11    1    3    3    0    0  0.33163824729E+01 -0.40695225870E+02  0.24607243252E+03  0.24943684942E+03  0.00000000000E+00 0. -1.
         11    1    3    3    0    0  0.11555829344E+03 -0.42494965195E+02  0.36614387744E+03  0.38629118582E+03  0.00000000000E+00 0.  1.
</event>
<event>
 7    1  0.4687179E-006  0.1011110E+03  0.7561462E-02  0.1277977E+00
          3   -1    0    0  501    0  0.00000000000E+00  0.00000000000E+00  0.11033032911E+03  0.11033032911E+03  0.00000000000E+00 0.  1.
         -3   -1    0    0    0  501 -0.00000000000E+00 -0.00000000000E+00 -0.11994881729E+03  0.11994881729E+03  0.00000000000E+00 0. -1.
         23    2    1    2    0    0 -0.63247578719E+01 -0.26236529345E+02  0.48271485732E+01  0.10149747847E+03  0.97724504285E+02 0.  0.
          5    1    1    2  502    0 -0.43467284493E+02 -0.17666081339E+02  0.23032455322E+02  0.52435309185E+02  0.41800000000E+01 0. -1.
         -5    1    1    2    0  502  0.49792042365E+02  0.43902610684E+02 -0.37478092078E+02  0.76346358745E+02  0.41800000000E+01 0. -1.
        -11    1    3    3    0    0  0.38518317845E+02 -0.45377363467E+01  0.26703698045E+02  0.47088632917E+02  0.00000000000E+00 0.  1.
         11    1    3    3    0    0 -0.44843075716E+02 -0.21698792998E+02 -0.21876549472E+02  0.54408845550E+02  0.00000000000E+00 0. -1.
</event>
<event>
 7    1  0.4687179E-006  0.9208855E+02  0.7561462E-02  0.1297871E+00
          2   -1    0    0  501    0  0.00000000000E+00  0.00000000000E+00  0.79169047633E+03  0.79169047633E+03  0.00000000000E+00 0. -1.
         -2   -1    0    0    0  501 -0.00000000000E+00 -0.00000000000E+00 -0.16206880422E+02  0.16206880422E+02  0.00000000000E+00 0.  1.
         23    2    1    2    0    0  0.68187495373E+01 -0.32420748892E+02  0.30617478308E+03  0.32057310573E+03  0.89030994701E+02 0.  0.
          5    1    1    2  502    0  0.35727827702E+02 -0.41855904673E+01  0.38025676349E+03  0.38197732317E+03  0.41800000000E+01 0. -1.
         -5    1    1    2    0  502 -0.42546577239E+02  0.36606339360E+02  0.89052049333E+02  0.10534692785E+03  0.41800000000E+01 0.  1.
        -11    1    3    3    0    0 -0.28596862386E+02 -0.45656039668E+02  0.13670396389E+03  0.14693613660E+03  0.00000000000E+00 0. -1.
         11    1    3    3    0    0  0.35415611923E+02  0.13235290776E+02  0.16947081920E+03  0.17363696913E+03  0.00000000000E+00 0.  1.
</event>
<event>
 7    1  0.4687179E-006  0.1525168E+03  0.7561462E-02  0.1197414E+00
          2   -1    0    0  501    0  0.00000000000E+00  0.00000000000E+00  0.27883092394E+03  0.27883092394E+03  0.00000000000E+00 0.  1.
         -2   -1    0    0    0  501 -0.00000000000E+00 -0.00000000000E+00 -0.97937518702E+02  0.97937518702E+02  0.00000000000E+00 0. -1.
         23    2    1    2    0    0 -0.92251476684E+02  0.47769197253E+02  0.14619513349E+03  0.21050119751E+03  0.11020665107E+03 0.  0.
          5    1    1    2  502    0  0.56224141557E+02 -0.86996957449E+02  0.42941215102E+02  0.11220982601E+03  0.41800000000E+01 0.  1.
         -5    1    1    2    0  502  0.36027335128E+02  0.39227760196E+02 -0.82429433564E+01  0.54057419117E+02  0.41800000000E+01 0.  1.
        -11    1    3    3    0    0  0.22504886836E+02  0.19440396422E+02  0.13100911620E+02  0.32496658749E+02  0.00000000000E+00 0. -1.
         11    1    3    3    0    0 -0.11475636352E+03  0.28328800832E+02  0.13309422187E+03  0.17800453876E+03  0.00000000000E+00 0.  1.
</event>
<event>
 7    1  0.4687179E-006  0.1894771E+03  0.7561462E-02  0.1158934E+00
         -3   -1    0    0    0  501 -0.00000000000E+00  0.00000000000E+00  0.10283600051E+03  0.10283600051E+03  0.00000000000E+00 0.  1.
          3   -1    0    0  501    0  0.00000000000E+00 -0.00000000000E+00 -0.45530205644E+03  0.45530205644E+03  0.00000000000E+00 0. -1.
         23    2    1    2    0    0 -0.14742943261E+03 -0.11285013457E+03 -0.15058837028E+03  0.25668849537E+03  0.93496181297E+02 0.  0.
          5    1    1    2  502    0  0.13328925452E+02  0.53449557377E+01  0.17312197798E+02  0.22878229786E+02  0.41800000000E+01 0.  1.
         -5    1    1    2    0  502  0.13410050716E+03  0.10750517883E+03 -0.21918988344E+03  0.27857133179E+03  0.41800000000E+01 0.  1.
        -11    1    3    3    0    0 -0.58817970677E+02 -0.76008754159E+02 -0.12442469717E+03  0.15722083084E+03  0.00000000000E+00 0. -1.
         11    1    3    3    0    0 -0.88611461934E+02 -0.36841380413E+02 -0.26163673117E+02  0.99467664534E+02  0.00000000000E+00 0.  1.
</event>
<event>
 7    1  0.4687179E-006  0.7960043E+02  0.7561462E-02  0.1330189E+00
         -1   -1    0    0    0  501 -0.00000000000E+00  0.00000000000E+00  0.58112993389E+02  0.58112993389E+02  0.00000000000E+00 0.  1.
          1   -1    0    0  501    0  0.00000000000E+00 -0.00000000000E+00 -0.22171232925E+03  0.22171232925E+03  0.00000000000E+00 0. -1.
         23    2    1    2    0    0  0.33146626884E+01  0.13666583698E+02 -0.10669753170E+03  0.14168221722E+03  0.92150555651E+02 0.  0.
          5    1    1    2  502    0  0.82093804161E+00  0.26967283241E+02 -0.84414741289E+02  0.88719948442E+02  0.41800000000E+01 0.  1.
         -5    1    1    2    0  502 -0.41356007300E+01 -0.40633866939E+02  0.27512937130E+02  0.49423156975E+02  0.41800000000E+01 0.  1.
        -11    1    3    3    0    0  0.14424687466E+02  0.50421748691E+02 -0.45474226194E+02  0.69414188733E+02  0.00000000000E+00 0.  1.
         11    1    3    3    0    0 -0.11110024777E+02 -0.36755164993E+02 -0.61223305505E+02  0.72268028486E+02  0.00000000000E+00 0. -1.
</event>
<event>
 7    1  0.4687179E-006  0.8306148E+02  0.7561462E-02  0.1320581E+00
         -4   -1    0    0    0  501 -0.00000000000E+00  0.00000000000E+00  0.42671567943E+03  0.42671567943E+03  0.00000000000E+00 0.  1.
          4   -1    0    0  501    0  0.00000000000E+00 -0.00000000000E+00 -0.31023753908E+02  0.31023753908E+02  0.00000000000E+00 0. -1.
         23    2    1    2    0    0  0.16201191362E+02 -0.21068688257E+02  0.16450625505E+03  0.18973312015E+03  0.90719241093E+02 0.  0.
          5    1    1    2  502    0  0.59658980989E+01 -0.23058887728E+02 -0.66357079998E+01  0.25076069549E+02  0.41800000000E+01 0. -1.
         -5    1    1    2    0  502 -0.22167089461E+02  0.44127575984E+02  0.23782137847E+03  0.24293024364E+03  0.41800000000E+01 0.  1.
        -11    1    3    3    0    0  0.27810688183E+02 -0.52205500429E+02  0.84944977099E+02  0.10351085830E+03  0.00000000000E+00 0. -1.
         11    1    3    3    0    0 -0.11609496821E+02  0.31136812172E+02  0.79561277953E+02  0.86222261848E+02  0.00000000000E+00 0.  1.
</event>
<event>
 7    1  0.4687179E-006  0.1773350E+03  0.7561462E-02  0.1170407E+00
         -2   -1    0    0    0  501 -0.00000000000E+00  0.00000000000E+00  0.43582730130E+02  0.43582730130E+02  0.00000000000E+00 0.  1.
          2   -1    0    0  501    0  0.00000000000E+00 -0.00000000000E+00 -0.10071113788E+04  0.10071113788E+04  0.00000000000E+00 0. -1.
         23    2    1    2    0    0 -0.78450209462E+02 -0.10510094971E+03 -0.42010966713E+03  0.45058525249E+03  0.96614141579E+02 0.  0.
          5    1    1    2  502    0 -0.44275691716E+02  0.38983594756E+02 -0.38301048186E+03  0.38754942801E+03  0.41800000000E+01 0. -1.
         -5    1    1    2    0  502  0.12272590118E+03  0.66117354951E+02 -0.16040849970E+03  0.21255942845E+03  0.41800000000E+01 0.  1.
        -11    1    3    3    0    0 -0.96909161610E+02 -0.88116393839E+02 -0.38993735446E+03  0.41134781495E+03  0.00000000000E+00 0.  1.
         11    1    3    3    0    0  0.18458952148E+02 -0.16984555868E+02 -0.30172312672E+02  0.39237437536E+02  0.00000000000E+00 0. -1.
</event>
<event>
 7    1  0.4687179E-006  0.1549443E+03  0.7561462E-02  0.1194526E+00
          2   -1    0    0  501    0  0.00000000000E+00  0.00000000000E+00  0.23283087924E+03  0.23283087924E+03  0.00000000000E+00 0. -1.
         -2   -1    0    0    0  501 -0.00000000000E+00 -0.00000000000E+00 -0.12749613129E+03  0.12749613129E+03  0.00000000000E+00 0.  1.
         23    2    1    2    0    0  0.51599171341E+02  0.12625172471E+03  0.69143828861E+02  0.17174401223E+03  0.78186726441E+02 0.  0.
          5    1    1    2  502    0 -0.74115231955E+02 -0.11603678924E+03 -0.77745125941E+01  0.13796927017E+03  0.41800000000E+01 0. -1.
         -5    1    1    2    0  502  0.22516060615E+02 -0.10214935472E+02  0.43965431686E+02  0.50613728134E+02  0.41800000000E+01 0. -1.
        -11    1    3    3    0    0  0.59218215004E+02  0.76556266160E+02  0.15146590226E+02  0.97964677676E+02  0.00000000000E+00 0.  1.
         11    1    3    3    0    0 -0.76190436636E+01  0.49695458551E+02  0.53997238635E+02  0.73779334553E+02  0.00000000000E+00 0. -1.
</event>
<event>
 7    1  0.4687179E-006  0.1485116E+03  0.7561462E-02  0.1202314E+00
         -2   -1    0    0    0  501 -0.00000000000E+00  0.00000000000E+00  0.53085364064E+02  0.53085364064E+02  0.00000000000E+00 0.  1.
          2   -1    0    0  501    0  0.00000000000E+00 -0.00000000000E+00 -0.11325135075E+04  0.11325135075E+04  0.00000000000E+00 0. -1.
         23    2    1    2    0    0 -0.83761346718E+02 -0.98156319936E+02 -0.52361076692E+03  0.54696675824E+03  0.91398977239E+02 0.  0.
          5    1    1    2  502    0  0.21207415517E+02  0.70315124731E+02 -0.56469174857E+03  0.56946309322E+03  0.41800000000E+01 0. -1.
         -5    1    1    2    0  502  0.62553931201E+02  0.27841195205E+02  0.88743720731E+01  0.69169020080E+02  0.41800000000E+01 0.  1.
        -11    1    3    3    0    0 -0.15262067105E+02 -0.83409985328E+02 -0.23064077790E+03  0.24573425641E+03  0.00000000000E+00 0.  1.
         11    1    3    3    0    0 -0.68499279613E+02 -0.14746334608E+02 -0.29296998902E+03  0.30123250183E+03  0.00000000000E+00 0. -1.
</event>
<event>
 7    1  0.4687179E-006  0.1132477E+03  0.7561462E-02  0.1254671E+00
          2   -1    0    0  501    0  0.00000000000E+00  0.00000000000E+00  0.52469126382E+02  0.52469126382E+02  0.00000000000E+00 0. -1.
         -2   -1    0    0    0  501 -0.00000000000E+00 -0.00000000000E+00 -0.43844840903E+03  0.43844840903E+03  0.00000000000E+00 0.  1.
         23    2    1    2    0    0 -0.79925812044E+02 -0.72935542519E+02 -0.15696337758E+03  0.20841736184E+03  0.84217373623E+02 0.  0.
          5    1    1    2  502    0  0.33564085376E+02  0.61763997248E+02 -0.27865456894E+02  0.75731732260E+02  0.41800000000E+01 0.  1.
         -5    1    1    2    0  502  0.46361726668E+02  0.11171545271E+02 -0.20115044817E+03  0.20676844131E+03  0.41800000000E+01 0.  1.
        -11    1    3    3    0    0 -0.21540721197E+02 -0.20118550055E+02 -0.11596433549E+03  0.11965151830E+03  0.00000000000E+00 0.  1.
         11    1    3    3    0    0 -0.58385090847E+02 -0.52816992464E+02 -0.40999042091E+02  0.88765843535E+02  0.00000000000E+00 0. -1.
</event>
<event>
 7    1  0.4687179E-006  0.4698329E+02  0.7561462E-02  0.1462327E+00
         -3   -1    0    0    0  501 -0.00000000000E+00  0.00000000000E+00  0.32793941412E+03  0.32793941412E+03  0.00000000000E+00 0.  1.
          3   -1    0    0  501    0  0.00000000000E+00 -0.00000000000E+00 -0.37519150977E+02  0.37519150977E+02  0.00000000000E+00 0. -1.
         23    2    1    2    0    0  0.18480628047E+02  0.39067865247E+01  0.10020175208E+03  0.13701178029E+03  0.91515245866E+02 0.  0.
          5    1    1    2  502    0 -0.22370696970E+02 -0.23208319924E+01  0.20823134348E+03  0.20948412625E+03  0.41800000000E+01 0. -1.
         -5    1    1    2    0  502  0.38900689235E+01 -0.15859545323E+01 -0.18012832410E+02  0.18962658554E+02  0.41800000000E+01 0. -1.
        -11    1    3    3    0    0 -0.14968599368E+02 -0.19321195832E+02  0.92361434678E+02  0.95540578768E+02  0.00000000000E+00 0.  1.
         11    1    3    3    0    0  0.33449227415E+02  0.23227982357E+02  0.78403173983E+01  0.41471201525E+02  0.00000000000E+00 0. -1.
</event>
<event>
 7    1  0.4687179E-006  0.1128006E+03  0.7561462E-02  0.1255470E+00
         -1   -1    0    0    0  501 -0.00000000000E+00  0.00000000000E+00  0.44432960770E+02  0.44432960770E+02  0.00000000000E+00 0.  1.
          1   -1    0    0  501    0  0.00000000000E+00 -0.00000000000E+00 -0.34861452118E+03  0.34861452118E+03  0.00000000000E+00 0. -1.
         23    2    1    2    0    0  0.47501472039E+02 -0.40393221238E+02 -0.14764423572E+03  0.18319241643E+03  0.88727892606E+02 0.  0.
          5    1    1    2  502    0 -0.18513100953E+01  0.70824191827E+02 -0.13144509851E+03  0.14938132353E+03  0.41800000000E+01 0.  1.
         -5    1    1    2    0  502 -0.45650161944E+02 -0.30430970589E+02 -0.25092226181E+02  0.60473741998E+02  0.41800000000E+01 0.  1.
        -11    1    3    3    0    0 -0.19726185894E+02 -0.22733617927E+02 -0.15437265531E+02  0.33826749195E+02  0.00000000000E+00 0.  1.
         11    1    3    3    0    0  0.67227657933E+02 -0.17659603310E+02 -0.13220697019E+03  0.14936566723E+03  0.00000000000E+00 0. -1.
</event>
<event>
 7    1  0.4687179E-006  0.1080788E+03  0.7561462E-02  0.1264170E+00
         -2   -1    0    0    0  501 -0.00000000000E+00  0.00000000000E+00  0.26055227020E+02  0.26055227020E+02  0.00000000000E+00 0.  1.
          2   -1    0    0  501    0  0.00000000000E+00 -0.00000000000E+00 -0.50255598344E+03  0.50255598344E+03  0.00000000000E+00 0. -1.
         23    2    1    2    0    0 -0.24996409414E+02 -0.17446355125E+02 -0.26690085416E+03  0.28262612756E+03  0.87819509437E+02 0.  0.
          5    1    1    2  502    0  0.51689869074E+02  0.58646319265E+02 -0.14448624670E+03  0.16433192391E+03  0.41800000000E+01 0.  1.
         -5    1    1    2    0  502 -0.26693459660E+02 -0.41199964140E+02 -0.65113655556E+02  0.81653158993E+02  0.41800000000E+01 0.  1.
        -11    1    3    3    0    0  0.26539440511E+02  0.12132830860E+02 -0.51643039995E+02  0.59317375761E+02  0.00000000000E+00 0.  1.
         11    1    3    3    0    0 -0.51535849925E+02 -0.29579185985E+02 -0.21525781417E+03  0.22330875180E+03  0.00000000000E+00 0. -1.
</event>
<event>
 7    1  0.4687179E-006  0.1434320E+03  0.7561462E-02  0.1208784E+00
         -2   -1    0    0    0  501 -0.00000000000E+00  0.00000000000E+00  0.11068059875E+03  0.11068059875E+03  0.00000000000E+00 0.  1.
          2   -1    0    0  501    0  0.00000000000E+00 -0.00000000000E+00 -0.24865537342E+03  0.24865537342E+03  0.00000000000E+00 0. -1.
         23    2    1    2    0    0  0.91910898777E+02  0.72288213427E+02 -0.10913022978E+03  0.18569034483E+03  0.94330790289E+02 0.  0.
          5    1    1    2  502    0 -0.90969117528E+02 -0.10166720935E+03 -0.39520275989E+02  0.14209477969E+03  0.41800000000E+01 0. -1.
         -5    1    1    2    0  502 -0.94178124878E+00  0.29378995923E+02  0.10675731101E+02  0.31550847658E+02  0.41800000000E+01 0. -1.
        -11    1    3    3    0    0  0.59930928644E+02  0.28236105881E+02 -0.11313709911E+03  0.13110681553E+03  0.00000000000E+00 0. -1.
         11    1    3    3    0    0  0.31979970132E+02  0.44052107546E+02  0.40068693311E+01  0.54583529299E+02  0.00000000000E+00 0.  1.
</event>
<event>
 7    1  0.4687179E-006  0.1188395E+03  0.7561462E-02  0.1245024E+00
          3   -1    0    0  501    0  0.00000000000E+00  0.00000000000E+00  0.77000172251E+02  0.77000172251E+02  0.00000000000E+00 0. -1.
         -3   -1    0    0    0  501 -0.00000000000E+00 -0.00000000000E+00 -0.22256952661E+03  0.22256952661E+03  0.00000000000E+00 0.  1.
         23    2    1    2    0    0  0.25127167427E+02 -0.70095872341E+02 -0.46953635229E+02  0.12372137194E+03  0.86934044840E+02 0.  0.
          5    1    1    2  502    0 -0.64400166106E+02  0.79304143054E+02 -0.85329582034E+02  0.13317333994E+03  0.41800000000E+01 0.  1.
         -5    1    1    2    0  502  0.39272998679E+02 -0.92082707126E+01 -0.13286137096E+02  0.42674986980E+02  0.41800000000E+01 0.  1.
        -11    1    3    3    0    0  0.43496325637E+02 -0.37341076366E+02  0.72464957592E+01  0.57782333190E+02  0.00000000000E+00 0. -1.
         11    1    3    3    0    0 -0.18369158210E+02 -0.32754795975E+02 -0.54200130988E+02  0.65939038754E+02  0.00000000000E+00 0.  1.
</event>
<event>
 7    1  0.4687179E-006  0.8663731E+02  0.7561462E-02  0.1311205E+00
         -2   -1    0    0    0  501 -0.00000000000E+00  0.00000000000E+00  0.62500399211E+02  0.62500399211E+02  0.00000000000E+00 0.  1.
          2   -1    0    0  501    0  0.00000000000E+00 -0.00000000000E+00 -0.26853090940E+03  0.26853090940E+03  0.00000000000E+00 0. -1.
         23    2    1    2    0    0  0.60225792590E+02 -0.34165327240E+02 -0.10186771287E+03  0.15413464157E+03  0.92660893187E+02 0.  0.
          5    1    1    2  502    0 -0.50397476394E+02 -0.26914262808E+01  0.14096543026E+02  0.52567426488E+02  0.41800000000E+01 0. -1.
         -5    1    1    2    0  502 -0.98283161962E+01  0.36856753521E+02 -0.11825934034E+03  0.12432924056E+03  0.41800000000E+01 0. -1.
        -11    1    3    3    0    0  0.67326098770E+02 -0.23229572406E+02 -0.23959682783E+02  0.75143083573E+02  0.00000000000E+00 0.  1.
         11    1    3    3    0    0 -0.71003061801E+01 -0.10935754833E+02 -0.77908030090E+02  0.78991557993E+02  0.00000000000E+00 0. -1.
</event>
<event>
 7    1  0.4687179E-006  0.1003031E+03  0.7561462E-02  0.1279660E+00
          1   -1    0    0  501    0  0.00000000000E+00  0.00000000000E+00  0.11554655059E+03  0.11554655059E+03  0.00000000000E+00 0.  1.
         -1   -1    0    0    0  501 -0.00000000000E+00 -0.00000000000E+00 -0.11170759114E+03  0.11170759114E+03  0.00000000000E+00 0. -1.
         23    2    1    2    0    0 -0.82300314656E+01  0.16035507758E+02  0.32925356581E+02  0.97567688316E+02  0.90058335374E+02 0.  0.
          5    1    1    2  502    0  0.65027248377E+01  0.51356302792E+02  0.81318953928E+01  0.52567626820E+02  0.41800000000E+01 0. -1.
         -5    1    1    2    0  502  0.17273066279E+01 -0.67391810551E+02 -0.37218292528E+02  0.77118826600E+02  0.41800000000E+01 0. -1.
        -11    1    3    3    0    0 -0.37098950844E+02  0.31239750021E+02  0.41499988276E+02  0.63831835020E+02  0.00000000000E+00 0.  1.
         11    1    3    3    0    0  0.28868919378E+02 -0.15204242263E+02 -0.85746316951E+01  0.33735853295E+02  0.00000000000E+00 0. -1.
</event>
<event>
 7    1  0.4687179E-006  0.1495385E+03  0.7561462E-02  0.1201041E+00
          2   -1    0    0  501    0  0.00000000000E+00  0.00000000000E+00  0.60815326557E+03  0.60815326557E+03  0.00000000000E+00 0. -1.
         -2   -1    0    0    0  501 -0.00000000000E+00 -0.00000000000E+00 -0.45872091299E+02  0.45872091299E+02  0.00000000000E+00 0.  1.
         23    2    1    2    0    0 -0.12531145393E+03  0.15312925213E+02  0.26466239387E+03  0.30738081624E+03  0.92191850481E+02 0.  0.
          5    1    1    2  502    0 -0.14059068824E+02  0.23736000357E+02  0.22878050348E+02  0.36082304761E+02  0.41800000000E+01 0. -1.
         -5    1    1    2    0  502  0.13937052276E+03 -0.39048925570E+02  0.27474073005E+03  0.31056223587E+03  0.41800000000E+01 0. -1.
        -11    1    3    3    0    0 -0.47787797715E+02  0.30030334081E+01  0.20008902454E+03  0.20573844940E+03  0.00000000000E+00 0. -1.
         11    1    3    3    0    0 -0.77523656216E+02  0.12309891805E+02  0.64573369334E+02  0.10164236684E+03  0.00000000000E+00 0.  1.
</event>
<event>
 7    1  0.4687179E-006  0.1740235E+03  0.7561462E-02  0.1173716E+00
          3   -1    0    0  501    0  0.00000000000E+00  0.00000000000E+00  0.19951302561E+03  0.19951302561E+03  0.00000000000E+00 0. -1.
         -3   -1    0    0    0  501 -0.00000000000E+00 -0.00000000000E+00 -0.24679339820E+03  0.24679339820E+03  0.00000000000E+00 0.  1.
         23    2    1    2    0    0 -0.33597570620E+02 -0.15474565525E+03  0.87818730546E+02  0.20346165213E+03  0.92787390747E+02 0.  0.
          5    1    1    2  502    0  0.27684063810E+02  0.15802249397E+03 -0.66384201463E+02  0.17367167470E+03  0.41800000000E+01 0. -1.
         -5    1    1    2    0  502  0.59135068096E+01 -0.32768387190E+01 -0.68714901666E+02  0.69173096979E+02  0.41800000000E+01 0. -1.
        -11    1    3    3    0    0  0.28344307910E+02 -0.37434055576E+02  0.42332081018E+02  0.63219564939E+02  0.00000000000E+00 0.  1.
         11    1    3    3    0    0 -0.61941878529E+02 -0.11731159968E+03  0.45486649527E+02  0.14024208719E+03  0.00000000000E+00 0. -1.
</event>
<event>
 7    1  0.4687179E-006  0.1144469E+03  0.7561462E-02  0.1252550E+00
         -2   -1    0    0    0  501 -0.00000000000E+00  0.00000000000E+00  0.49794054841E+02  0.49794054841E+02  0.00000000000E+00 0. -1.
          2   -1    0    0  501    0  0.00000000000E+00 -0.00000000000E+00 -0.27970284897E+03  0.27970284897E+03  0.00000000000E+00 0.  1.
         23    2    1    2    0    0  0.12988798833E+02  0.51787721087E+02 -0.11593546689E+03  0.15204697275E+03  0.82623074790E+02 0.  0.
          5    1    1    2  502    0  0.55106669872E+02 -0.29623676826E+02 -0.66667590157E+02  0.91522386717E+02  0.41800000000E+01 0.  1.
         -5    1    1    2    0  502 -0.68095468706E+02 -0.22164044261E+02 -0.47305737078E+02  0.85927544343E+02  0.41800000000E+01 0.  1.
        -11    1    3    3    0    0 -0.31393409541E+02  0.86483417292E+01 -0.21099945905E+02  0.38801387790E+02  0.00000000000E+00 0.  1.
         11    1    3    3    0    0  0.44382208374E+02  0.43139379358E+02 -0.94835520985E+02  0.11324558496E+03  0.00000000000E+00 0. -1.
</event>
<event>
 7    1  0.4687179E-006  0.1586473E+03  0.7561462E-02  0.1190232E+00
          2   -1    0    0  501    0  0.00000000000E+00  0.00000000000E+00  0.31740006047E+03  0.31740006047E+03  0.00000000000E+00 0. -1.
         -2   -1    0    0    0  501 -0.00000000000E+00 -0.00000000000E+00 -0.95138315693E+02  0.95138315693E+02  0.00000000000E+00 0.  1.
         23    2    1    2    0    0 -0.12233055585E+03 -0.57313068540E+02  0.11814026028E+03  0.20102591406E+03  0.90580043628E+02 0.  0.
          5    1    1    2  502    0  0.78768646851E+01 -0.16288448606E+02  0.68241575132E+02  0.70723005675E+02  0.41800000000E+01 0.  1.
         -5    1    1    2    0  502  0.11445369116E+03  0.73601517146E+02  0.35879909367E+02  0.14078945643E+03  0.41800000000E+01 0.  1.
        -11    1    3    3    0    0 -0.53916898522E+02  0.21654708585E+02  0.44924703634E+02  0.73445131539E+02  0.00000000000E+00 0.  1.
         11    1    3    3    0    0 -0.68413657325E+02 -0.78967777126E+02  0.73215556648E+02  0.12758078252E+03  0.00000000000E+00 0. -1.
</event>
<event>
 6    1  0.4687179E-006  0.7875528E+02  0.7561462E-02  0.1332621E+00
         -2   -1    0    0    0  501 -0.00000000000E+00  0.00000000000E+00  0.64206386722E+02  0.64206386722E+02  0.00000000000E+00 0.  1.
          2   -1    0    0  501    0  0.00000000000E+00 -0.00000000000E+00 -0.15371840155E+03  0.15371840155E+03  0.00000000000E+00 0. -1.
          5    1    1    2  502    0  0.34857466724E+02 -0.32781870302E+02 -0.89471233317E+02  0.10154933775E+03  0.41800000000E+01 0. -1.
         -5    1    1    2    0  502 -0.59718684286E+02  0.29028413283E+02  0.19287058623E+02  0.69270722971E+02  0.41800000000E+01 0.  1.
        -11    1    1    2    0    0  0.69795493682E+01  0.18497053391E+02 -0.83722364017E+01  0.21469733019E+02  0.00000000000E+00 0.  1.
         11    1    1    2    0    0  0.17881668194E+02 -0.14743596373E+02 -0.10955603733E+02  0.25634994530E+02  0.00000000000E+00 0. -1.
</event>
<event>
 7    1  0.4687179E-006  0.8060607E+02  0.7561462E-02  0.1327340E+00
         -2   -1    0    0    0  501 -0.00000000000E+00  0.00000000000E+00  0.58322811290E+02  0.58322811290E+02  0.00000000000E+00 0.  1.
          2   -1    0    0  501    0  0.00000000000E+00 -0.00000000000E+00 -0.29889110366E+03  0.29889110366E+03  0.00000000000E+00 0. -1.
         23    2    1    2    0    0 -0.20087217729E+02 -0.30011393136E+02 -0.19648088348E+03  0.21971439989E+03  0.91463106844E+02 0.  0.
          5    1    1    2  502    0  0.23293554047E+02 -0.27984750125E+02 -0.65824721060E+02  0.75339911085E+02  0.41800000000E+01 0. -1.
         -5    1    1    2    0  502 -0.32063363176E+01  0.57996143261E+02  0.21737312168E+02  0.62159603973E+02  0.41800000000E+01 0. -1.
        -11    1    3    3    0    0  0.88997122377E+01 -0.35695681648E+02 -0.22242212291E+02  0.42989563545E+02  0.00000000000E+00 0.  1.
         11    1    3    3    0    0 -0.28986929967E+02  0.56842885121E+01 -0.17423867119E+03  0.17672483635E+03  0.00000000000E+00 0. -1.
</event>
<event>
 7    1  0.4687179E-006  0.1420213E+03  0.7561462E-02  0.1210635E+00
         -1   -1    0    0    0  501 -0.00000000000E+00  0.00000000000E+00  0.21304334676E+03  0.21304334676E+03  0.00000000000E+00 0.  1.
          1   -1    0    0  501    0  0.00000000000E+00 -0.00000000000E+00 -0.14480918567E+03  0.14480918567E+03  0.00000000000E+00 0. -1.
         23    2    1    2    0    0 -0.10833178534E+03 -0.85026258623E+02  0.33956118543E+02  0.16867858581E+03  0.91291877801E+02 0.  0.
          5    1    1    2  502    0  0.43163708662E+02  0.75447663985E+01 -0.43156625008E+02  0.61644106998E+02  0.41800000000E+01 0.  1.
         -5    1    1    2    0  502  0.65168076678E+02  0.77481492224E+02  0.77434667561E+02  0.12752983963E+03  0.41800000000E+01 0.  1.
        -11    1    3    3    0    0 -0.71437598181E+02 -0.65654419802E+02  0.64939306288E+02  0.11675164570E+03  0.00000000000E+00 0.  1.
         11    1    3    3    0    0 -0.36894187160E+02 -0.19371838821E+02 -0.30983187745E+02  0.51926940102E+02  0.00000000000E+00 0. -1.
</event>
<event>
 7    1  0.4687179E-006  0.6888713E+02  0.7561462E-02  0.1363919E+00
          1   -1    0    0  501    0  0.00000000000E+00  0.00000000000E+00  0.56670842163E+02  0.56670842163E+02  0.00000000000E+00 0. -1.
         -1   -1    0    0    0  501 -0.00000000000E+00 -0.00000000000E+00 -0.21883387549E+03  0.21883387549E+03  0.00000000000E+00 0.  1.
         23    2    1    2    0    0  0.75067584173E+01 -0.69382774266E+01 -0.40028342833E+02  0.10038547664E+03  0.91490352363E+02 0.  0.
          5    1    1    2  502    0  0.20066805179E+02  0.29316237269E+02 -0.13301718640E+03  0.13774310406E+03  0.41800000000E+01 0. -1.
         -5    1    1    2    0  502 -0.27573563596E+02 -0.22377959842E+02  0.10882495908E+02  0.37376136949E+02  0.41800000000E+01 0. -1.
        -11    1    3    3    0    0  0.34965803365E+02 -0.14363226537E+02  0.13195003248E+02  0.40037704632E+02  0.00000000000E+00 0. -1.
         11    1    3    3    0    0 -0.27459044948E+02  0.74249491102E+01 -0.53223346081E+02  0.60347772012E+02  0.00000000000E+00 0.  1.
</event>
<event>
 7    1  0.4687179E-006  0.1429790E+03  0.7561462E-02  0.1209376E+00
          2   -1    0    0  501    0  0.00000000000E+00  0.00000000000E+00  0.50451680973E+03  0.50451680973E+03  0.00000000000E+00 0.  1.
         -2   -1    0    0    0  501 -0.00000000000E+00 -0.00000000000E+00 -0.50567731446E+02  0.50567731446E+02  0.00000000000E+00 0. -1.
         23    2    1    2    0    0  0.74817889600E+02 -0.67811463427E+02  0.30882549767E+03  0.33850984828E+03  0.94971670471E+02 0.  0.
          5    1    1    2  502    0  0.24308147158E+02  0.35464022000E+02  0.74731526091E+01  0.43839517385E+02  0.41800000000E+01 0. -1.
         -5    1    1    2    0  502 -0.99126036758E+02  0.32347441428E+02  0.13765042800E+03  0.17273517551E+03  0.41800000000E+01 0. -1.
        -11    1    3    3    0    0  0.97590035867E+02 -0.51094759294E+02  0.23790888715E+03  0.26217385093E+03  0.00000000000E+00 0. -1.
         11    1    3    3    0    0 -0.22772146267E+02 -0.16716704134E+02  0.70916610522E+02  0.76335997345E+02  0.00000000000E+00 0.  1.
</event>
<event>
 7    1  0.4687179E-006  0.1902868E+03  0.7561462E-02  0.1158203E+00
          1   -1    0    0  501    0  0.00000000000E+00  0.00000000000E+00  0.62460496982E+03  0.62460496982E+03  0.00000000000E+00 0. -1.
         -1   -1    0    0    0  501 -0.00000000000E+00 -0.00000000000E+00 -0.83445074860E+02  0.83445074860E+02  0.00000000000E+00 0.  1.
         23    2    1    2    0    0  0.15007740781E+03  0.97021271910E+02  0.38989591459E+03  0.43836094461E+03  0.90582216856E+02 0.  0.
          5    1    1    2  502    0 -0.34951598860E+02 -0.62395529760E+01  0.11241014739E+03  0.11795787350E+03  0.41800000000E+01 0. -1.
         -5    1    1    2    0  502 -0.11512580895E+03 -0.90781718934E+02  0.38853832990E+02  0.15173122657E+03  0.41800000000E+01 0.  1.
        -11    1    3    3    0    0  0.82696330086E+02  0.10114082601E+03  0.22495670112E+03  0.26014162888E+03  0.00000000000E+00 0. -1.
         11    1    3    3    0    0  0.67381077728E+02 -0.41195541033E+01  0.16493921347E+03  0.17821931573E+03  0.00000000000E+00 0.  1.
</event>
<event>
 7    1  0.4687179E-006  0.2889852E+03  0.7561462E-02  0.1090880E+00
         -1   -1    0    0    0  501 -0.00000000000E+00  0.00000000000E+00  0.80017163221E+02  0.80017163221E+02  0.00000000000E+00 0.  1.
          1   -1    0    0  501    0  0.00000000000E+00 -0.00000000000E+00 -0.11326813911E+04  0.11326813911E+04  0.00000000000E+00 0. -1.
         23    2    1    2    0    0 -0.27925432515E+02 -0.27405844952E+03 -0.62274609071E+03  0.68699302035E+03  0.90878231635E+02 0.  0.
          5    1    1    2  502    0 -0.78542867701E+01  0.26396701493E+03 -0.36118156693E+03  0.44744817743E+03  0.41800000000E+01 0.  1.
         -5    1    1    2    0  502  0.35779719285E+02  0.10091434586E+02 -0.68736570196E+02  0.78257356500E+02  0.41800000000E+01 0.  1.
        -11    1    3    3    0    0 -0.11578207226E+02 -0.21044979590E+03 -0.54991958754E+03  0.58892675626E+03  0.00000000000E+00 0. -1.
         11    1    3    3    0    0 -0.16347225289E+02 -0.63608653616E+02 -0.72826503177E+02  0.98066264099E+02  0.00000000000E+00 0.  1.
</event>
<event>
 7    1  0.4687179E-006  0.1202231E+03  0.7561462E-02  0.1242729E+00
          2   -1    0    0  501    0  0.00000000000E+00  0.00000000000E+00  0.72266579670E+03  0.72266579670E+03  0.00000000000E+00 0. -1.
         -2   -1    0    0    0  501 -0.00000000000E+00 -0.00000000000E+00 -0.30510527508E+02  0.30510527508E+02  0.00000000000E+00 0.  1.
         23    2    1    2    0    0  0.10001145558E+03  0.10986055829E+02  0.33261194252E+03  0.35942290670E+03  0.91821222442E+02 0.  0.
          5    1    1    2  502    0 -0.47560136481E+02 -0.42473686660E+02  0.30520239780E+03  0.31182039167E+03  0.41800000000E+01 0.  1.
         -5    1    1    2    0  502 -0.52451319098E+02  0.31487630831E+02  0.54340928880E+02  0.81933025832E+02  0.41800000000E+01 0.  1.
        -11    1    3    3    0    0  0.94989457670E+01 -0.17858202486E+02  0.89703117411E+01  0.22127174683E+02  0.00000000000E+00 0.  1.
         11    1    3    3    0    0  0.90512509812E+02  0.28844258315E+02  0.32364163077E+03  0.33729573202E+03  0.00000000000E+00 0. -1.
</event>
<event>
 7    1  0.4687179E-006  0.3442844E+03  0.7561462E-02  0.1064986E+00
         -2   -1    0    0    0  501 -0.00000000000E+00  0.00000000000E+00  0.17835061878E+03  0.17835061878E+03  0.00000000000E+00 0.  1.
          2   -1    0    0  501    0  0.00000000000E+00 -0.00000000000E+00 -0.68290380654E+03  0.68290380654E+03  0.00000000000E+00 0. -1.
         23    2    1    2    0    0  0.23394544855E+03 -0.23028351295E+03 -0.30751402935E+03  0.45847380223E+03  0.88726432668E+02 0.  0.
          5    1    1    2  502    0 -0.13676018609E+03  0.21002183579E+03 -0.15625245052E+03  0.29537234248E+03  0.41800000000E+01 0.  1.
         -5    1    1    2    0  502 -0.97185262459E+02  0.20261677159E+02 -0.40786707895E+02  0.10740828060E+03  0.41800000000E+01 0.  1.
        -11    1    3    3    0    0  0.19664250116E+03 -0.14154810206E+03 -0.23893361806E+03  0.34028431098E+03  0.00000000000E+00 0. -1.
         11    1    3    3    0    0  0.37302947386E+02 -0.88735410895E+02 -0.68580411288E+02  0.11818949125E+03  0.00000000000E+00 0.  1.
</event>
<event>
 7    1  0.4687179E-006  0.1335979E+03  0.7561462E-02  0.1222213E+00
         -2   -1    0    0    0  501 -0.00000000000E+00  0.00000000000E+00  0.42318916538E+02  0.42318916538E+02  0.00000000000E+00 0.  1.
          2   -1    0    0  501    0  0.00000000000E+00 -0.00000000000E+00 -0.83948118190E+03  0.83948118190E+03  0.00000000000E+00 0. -1.
         23    2    1    2    0    0  0.96029552406E+02  0.85907609735E+02 -0.57110925198E+03  0.59309596333E+03  0.94843300655E+02 0.  0.
          5    1    1    2  502    0 -0.18372199125E+02 -0.46728830027E+02 -0.44205754762E+01  0.50578010478E+02  0.41800000000E+01 0. -1.
         -5    1    1    2    0  502 -0.77657353281E+02 -0.39178779708E+02 -0.22163243791E+03  0.23812612463E+03  0.41800000000E+01 0. -1.
        -11    1    3    3    0    0  0.15434429444E+02  0.21990351324E+02 -0.22846119888E+02  0.35266731597E+02  0.00000000000E+00 0.  1.
         11    1    3    3    0    0  0.80595122962E+02  0.63917258411E+02 -0.54826313209E+03  0.55782923174E+03  0.00000000000E+00 0. -1.
</event>
<event>
 7    1  0.4687179E-006  0.1186100E+03  0.7561462E-02  0.1245408E+00
         -2   -1    0    0    0  501 -0.00000000000E+00  0.00000000000E+00  0.58728896509E+02  0.58728896509E+02  0.00000000000E+00 0.  1.
          2   -1    0    0  501    0  0.00000000000E+00 -0.00000000000E+00 -0.25813650823E+03  0.25813650823E+03  0.00000000000E+00 0. -1.
         23    2    1    2    0    0  0.26081765747E+02 -0.12215208663E+02 -0.12205763487E+03  0.15864700203E+03  0.97166533308E+02 0.  0.
          5    1    1    2  502    0 -0.45298773181E+02 -0.52126773605E+02 -0.51046343598E+02  0.85978956570E+02  0.41800000000E+01 0. -1.
         -5    1    1    2    0  502  0.19217007434E+02  0.64341982267E+02 -0.26303633257E+02  0.72239446145E+02  0.41800000000E+01 0.  1.
        -11    1    3    3    0    0  0.53338082714E+02  0.21405257533E+02 -0.61054715342E+02  0.83849951599E+02  0.00000000000E+00 0.  1.
         11    1    3    3    0    0 -0.27256316967E+02 -0.33620466196E+02 -0.61002919527E+02  0.74797050428E+02  0.00000000000E+00 0. -1.
</event>
<event>
 7    1  0.4687179E-006  0.7354106E+02  0.7561462E-02  0.1348449E+00
         -2   -1    0    0    0  501 -0.00000000000E+00  0.00000000000E+00  0.44089494727E+02  0.44089494727E+02  0.00000000000E+00 0.  1.
          2   -1    0    0  501    0  0.00000000000E+00 -0.00000000000E+00 -0.47784339407E+03  0.47784339407E+03  0.00000000000E+00 0. -1.
         23    2    1    2    0    0  0.13697208938E+02  0.50881696662E+02 -0.32210472360E+03  0.33866632840E+03  0.90370727794E+02 0.  0.
          5    1    1    2  502    0 -0.73329078826E+01  0.70114865222E+01 -0.12324670821E+03  0.12373421502E+03  0.41800000000E+01 0. -1.
         -5    1    1    2    0  502 -0.63643010550E+01 -0.57893183184E+02  0.11597532463E+02  0.59532345379E+02  0.41800000000E+01 0.  1.
        -11    1    3    3    0    0  0.20779179594E+02 -0.50134530913E+01 -0.14230329353E+02  0.25679004848E+02  0.00000000000E+00 0.  1.
         11    1    3    3    0    0 -0.70819706564E+01  0.55895149753E+02 -0.30787439424E+03  0.31298732355E+03  0.00000000000E+00 0. -1.
</event>
<event>
 7    1  0.4687179E-006  0.8205021E+02  0.7561462E-02  0.1323332E+00
          2   -1    0    0  501    0  0.00000000000E+00  0.00000000000E+00  0.43449088294E+02  0.43449088294E+02  0.00000000000E+00 0. -1.
         -2   -1    0    0    0  501 -0.00000000000E+00 -0.00000000000E+00 -0.43630926290E+03  0.43630926290E+03  0.00000000000E+00 0.  1.
         23    2    1    2    0    0  0.58172911656E+02 -0.40246196677E+02 -0.96190811704E+02  0.15011717696E+03  0.90987090102E+02 0.  0.
          5    1    1    2  502    0 -0.21702774774E+02  0.14318256060E+02  0.31049495043E+01  0.26516711729E+02  0.41800000000E+01 0.  1.
         -5    1    1    2    0  502 -0.36470136881E+02  0.25927940617E+02 -0.29977431241E+03  0.30312446250E+03  0.41800000000E+01 0.  1.
        -11    1    3    3    0    0  0.32318647862E+01 -0.37684882328E+02 -0.86312917748E+02  0.94236484847E+02  0.00000000000E+00 0.  1.
         11    1    3    3    0    0  0.54941046869E+02 -0.25613143493E+01 -0.98778939563E+01  0.55880692115E+02  0.00000000000E+00 0. -1.
</event>
<event>
 7    1  0.4687179E-006  0.1164744E+03  0.7561462E-02  0.1249029E+00
         -1   -1    0    0    0  501 -0.00000000000E+00  0.00000000000E+00  0.11771011393E+03  0.11771011393E+03  0.00000000000E+00 0.  1.
          1   -1    0    0  501    0  0.00000000000E+00 -0.00000000000E+00 -0.29669631121E+03  0.29669631121E+03  0.00000000000E+00 0. -1.
         23    2    1    2    0    0  0.62109098753E+02 -0.20520150319E+02 -0.24218915375E+03  0.26677603868E+03  0.90748288698E+02 0.  0.
          5    1    1    2  502    0  0.26718471324E+02  0.28892018494E+02  0.25334040320E+01  0.39654961588E+02  0.41800000000E+01 0. -1.
         -5    1    1    2    0  502 -0.88827570077E+02 -0.83718681743E+01  0.60669552444E+02  0.10797542487E+03  0.41800000000E+01 0.  1.
        -11    1    3    3    0    0 -0.17668439135E+02  0.79173299044E+01 -0.15562297866E+02  0.24840349618E+02  0.00000000000E+00 0.  1.
         11    1    3    3    0    0  0.79777537888E+02 -0.28437480224E+02 -0.22662685588E+03  0.24193568906E+03  0.00000000000E+00 0. -1.
</event>
<event>
 7    1  0.4687179E-006  0.9451482E+02  0.7561462E-02  0.1292273E+00
         -1   -1    0    0    0  501 -0.00000000000E+00  0.00000000000E+00  0.86431486165E+03  0.86431486165E+03  0.00000000000E+00 0.  1.
          1   -1    0    0  501    0  0.00000000000E+00 -0.00000000000E+00 -0.15409540110E+02  0.15409540110E+02  0.00000000000E+00 0. -1.
         23    2    1    2    0    0 -0.14961474092E+02 -0.42190572978E+01  0.33447584357E+03  0.35007530953E+03  0.10216156939E+03 0.  0.
          5    1    1    2  502    0  0.75896772904E+01  0.47366776889E+02  0.82785988715E+02  0.95771640279E+02  0.41800000000E+01 0.  1.
         -5    1    1    2    0  502  0.73717968014E+01 -0.43147719591E+02  0.43164348926E+03  0.43387745196E+03  0.41800000000E+01 0.  1.
        -11    1    3    3    0    0 -0.52407858675E+02  0.15408873381E+02  0.24633312712E+03  0.25231731321E+03  0.00000000000E+00 0.  1.
         11    1    3    3    0    0  0.37446384584E+02 -0.19627930679E+02  0.88142716451E+02  0.97757996320E+02  0.00000000000E+00 0. -1.
</event>
<event>
 7    1  0.4687179E-006  0.7355989E+02  0.7561462E-02  0.1348389E+00
         -1   -1    0    0    0  501 -0.00000000000E+00  0.00000000000E+00  0.18549564488E+03  0.18549564488E+03  0.00000000000E+00 0.  1.
          1   -1    0    0  501    0  0.00000000000E+00 -0.00000000000E+00 -0.68658748163E+02  0.68658748163E+02  0.00000000000E+00 0. -1.
         23    2    1    2    0    0  0.80090350730E+01  0.83998874107E+01  0.14719150652E+02  0.92259022519E+02  0.90334772314E+02 0.  0.
          5    1    1    2  502    0  0.21414538270E+02 -0.14411888367E+02 -0.21972280166E+02  0.34154625913E+02  0.41800000000E+01 0. -1.
         -5    1    1    2    0  502 -0.29423573343E+02  0.60120009562E+01  0.12409002623E+03  0.12774074461E+03  0.41800000000E+01 0. -1.
        -11    1    3    3    0    0  0.49001819676E+02  0.80310950208E+01  0.12498971257E+02  0.51204502745E+02  0.00000000000E+00 0.  1.
         11    1    3    3    0    0 -0.40992784604E+02  0.36879238996E+00  0.22201793958E+01  0.41054519775E+02  0.00000000000E+00 0. -1.
</event>
<event>
 7    1  0.4687179E-006  0.6247179E+02  0.7561462E-02  0.1387742E+00
         -1   -1    0    0    0  501 -0.00000000000E+00  0.00000000000E+00  0.11744858190E+03  0.11744858190E+03  0.00000000000E+00 0.  1.
          1   -1    0    0  501    0  0.00000000000E+00 -0.00000000000E+00 -0.12522950860E+03  0.12522950860E+03  0.00000000000E+00 0. -1.
         23    2    1    2    0    0 -0.12783457510E+01 -0.32538853591E+02 -0.45252812386E+02  0.10809337784E+03  0.92606426033E+02 0.  0.
          5    1    1    2  502    0 -0.31414392802E+02  0.26185920736E+02  0.74201206675E+02  0.84828403215E+02  0.41800000000E+01 0.  1.
         -5    1    1    2    0  502  0.32692738553E+02  0.63529328548E+01 -0.36729320987E+02  0.49756309451E+02  0.41800000000E+01 0.  1.
        -11    1    3    3    0    0 -0.13684034472E+02  0.17578726641E+01 -0.65117505810E+02  0.66562996317E+02  0.00000000000E+00 0. -1.
         11    1    3    3    0    0  0.12405688721E+02 -0.34296726255E+02  0.19864693424E+02  0.41530381521E+02  0.00000000000E+00 0.  1.
</event>
<event>
 7    1  0.4687179E-006  0.1003558E+03  0.7561462E-02  0.1279550E+00
          1   -1    0    0  501    0  0.00000000000E+00  0.00000000000E+00  0.67624404035E+02  0.67624404035E+02  0.00000000000E+00 0. -1.
         -1   -1    0    0    0  501 -0.00000000000E+00 -0.00000000000E+00 -0.24588055325E+03  0.24588055325E+03  0.00000000000E+00 0.  1.
         23    2    1    2    0    0  0.24557699348E+02  0.11891255812E+02  0.10617576007E+02  0.92763018460E+02  0.88021373038E+02 0.  0.
          5    1    1    2  502    0 -0.24805332988E+02  0.46211271590E+02 -0.63277873637E+02  0.82294275977E+02  0.41800000000E+01 0. -1.
         -5    1    1    2    0  502  0.24763364000E+00 -0.58102527402E+02 -0.12559585158E+03  0.13844766285E+03  0.41800000000E+01 0.  1.
        -11    1    3    3    0    0 -0.28891348330E+02  0.20877081235E+02  0.14373644288E+02  0.38433893627E+02  0.00000000000E+00 0.  1.
         11    1    3    3    0    0  0.53449047678E+02 -0.89858254227E+01 -0.37560682815E+01  0.54329124833E+02  0.00000000000E+00 0. -1.
</event>
<event>
 7    1  0.4687179E-006  0.1337335E+03  0.7561462E-02  0.1222019E+00
         -1   -1    0    0    0  501 -0.00000000000E+00  0.00000000000E+00  0.24479579669E+03  0.24479579669E+03  0.00000000000E+00 0.  1.
          1   -1    0    0  501    0  0.00000000000E+00 -0.00000000000E+00 -0.90462111422E+02  0.90462111422E+02  0.00000000000E+00 0. -1.
         23    2    1    2    0    0 -0.47292666238E+02  0.66253109558E+02  0.25861853112E+01  0.12242059935E+03  0.91400459437E+02 0.  0.
          5    1    1    2  502    0  0.86756539387E+02 -0.60027434747E+02  0.12891078312E+03  0.16662968659E+03  0.41800000000E+01 0. -1.
         -5    1    1    2    0  502 -0.39463873149E+02 -0.62256748109E+01  0.22836716842E+02  0.46207622173E+02  0.41800000000E+01 0. -1.
        -11    1    3    3    0    0 -0.59876883451E+02  0.60164079835E+01  0.77110087015E+01  0.60670404581E+02  0.00000000000E+00 0.  1.
         11    1    3    3    0    0  0.12584217213E+02  0.60236701575E+02 -0.51248233903E+01  0.61750194771E+02  0.00000000000E+00 0. -1.
</event>
<event>
 7    1  0.4687179E-006  0.9924876E+02  0.7561462E-02  0.1281884E+00
          2   -1    0    0  501    0  0.00000000000E+00  0.00000000000E+00  0.57810160118E+03  0.57810160118E+03  0.00000000000E+00 0.  1.
         -2   -1    0    0    0  501 -0.00000000000E+00 -0.00000000000E+00 -0.32571949051E+02  0.32571949051E+02  0.00000000000E+00 0. -1.
         23    2    1    2    0    0  0.44347018238E+02 -0.50841349705E+02  0.35549275489E+03  0.37337530155E+03  0.92100576337E+02 0.  0.
          5    1    1    2  502    0  0.32080018298E+01  0.34904421757E+02  0.18312653171E+03  0.18649774516E+03  0.41800000000E+01 0.  1.
         -5    1    1    2    0  502 -0.47555020068E+02  0.15936927948E+02  0.69103655289E+01  0.50800503520E+02  0.41800000000E+01 0.  1.
        -11    1    3    3    0    0  0.29441115698E+02  0.23111712056E+02  0.14570138366E+03  0.15043212332E+03  0.00000000000E+00 0.  1.
         11    1    3    3    0    0  0.14905902541E+02 -0.73953061761E+02  0.20979137123E+03  0.22294317823E+03  0.00000000000E+00 0. -1.
</event>
<event>
 7    1  0.4839712E-006  0.1914714E+03  0.7561462E-02  0.1157141E+00
          4   -1    0    0  501    0  0.00000000000E+00  0.00000000000E+00  0.72084065014E+03  0.72084065014E+03  0.00000000000E+00 0.  1.
         -4   -1    0    0    0  501 -0.00000000000E+00 -0.00000000000E+00 -0.58705595253E+02  0.58705595253E+02  0.00000000000E+00 0. -1.
         23    2    1    2    0    0 -0.12650416172E+03  0.11926735907E+03  0.33118191581E+03  0.38533058698E+03  0.92575342483E+02 0.  0.
          5    1    1    2  502    0  0.63258925882E+02 -0.12845594372E+03  0.17861212591E+03  0.22895935252E+03  0.41800000000E+01 0.  1.
         -5    1    1    2    0  502  0.63245235841E+02  0.91885846565E+01  0.15234101317E+03  0.16525630589E+03  0.41800000000E+01 0.  1.
        -11    1    3    3    0    0 -0.11138702803E+03  0.91987536900E+02  0.32183800709E+03  0.35277256096E+03  0.00000000000E+00 0.  1.
         11    1    3    3    0    0 -0.15117133696E+02  0.27279822166E+02  0.93439087181E+01  0.32558026026E+02  0.00000000000E+00 0. -1.
</event>
<event>
 7    1  0.4687179E-006  0.1034705E+03  0.7561462E-02  0.1273163E+00
         -4   -1    0    0    0  501 -0.00000000000E+00  0.00000000000E+00  0.52581467766E+03  0.52581467766E+03  0.00000000000E+00 0.  1.
          4   -1    0    0  501    0  0.00000000000E+00 -0.00000000000E+00 -0.27476023893E+02  0.27476023893E+02  0.00000000000E+00 0. -1.
         23    2    1    2    0    0  0.31561329203E+02  0.27938612608E+02  0.14370301098E+03  0.17488463032E+03  0.90318298147E+02 0.  0.
          5    1    1    2  502    0 -0.70976374497E+02 -0.21849065027E+02  0.12629223719E+03  0.14656817169E+03  0.41800000000E+01 0. -1.
         -5    1    1    2    0  502  0.39415045295E+02 -0.60895475804E+01  0.22834340560E+03  0.23183789954E+03  0.41800000000E+01 0. -1.
        -11    1    3    3    0    0  0.59074254968E+02  0.10824621619E+02  0.58974396547E+02  0.84171963748E+02  0.00000000000E+00 0. -1.
         11    1    3    3    0    0 -0.27512925765E+02  0.17113990989E+02  0.84728614436E+02  0.90712666568E+02  0.00000000000E+00 0.  1.
</event>
<event>
 7    1  0.4687179E-006  0.1136619E+03  0.7561462E-02  0.1253935E+00
         -1   -1    0    0    0  501 -0.00000000000E+00  0.00000000000E+00  0.25208999769E+03  0.25208999769E+03  0.00000000000E+00 0.  1.
          1   -1    0    0  501    0  0.00000000000E+00 -0.00000000000E+00 -0.63319312197E+02  0.63319312197E+02  0.00000000000E+00 0. -1.
         23    2    1    2    0    0 -0.43110097172E+02 -0.38267525139E+02  0.45976374696E+02  0.11701587749E+03  0.90862558819E+02 0.  0.
          5    1    1    2  502    0 -0.91796695594E+01 -0.40665864183E+02  0.32865029328E+02  0.53249989631E+02  0.41800000000E+01 0. -1.
         -5    1    1    2    0  502  0.52289766732E+02  0.78933389322E+02  0.10992928147E+03  0.14514344277E+03  0.41800000000E+01 0. -1.
        -11    1    3    3    0    0 -0.10571501551E+02  0.20733359212E+02  0.43803689840E+02  0.49602339389E+02  0.00000000000E+00 0.  1.
         11    1    3    3    0    0 -0.32538595622E+02 -0.59000884351E+02  0.21726848556E+01  0.67413538096E+02  0.00000000000E+00 0. -1.
</event>
<event>
 7    1  0.4687179E-006  0.1240719E+03  0.7561462E-02  0.1236527E+00
          1   -1    0    0  501    0  0.00000000000E+00  0.00000000000E+00  0.61244410295E+03  0.61244410295E+03  0.00000000000E+00 0. -1.
         -1   -1    0    0    0  501 -0.00000000000E+00 -0.00000000000E+00 -0.41181875418E+02  0.41181875418E+02  0.00000000000E+00 0.  1.
         23    2    1    2    0    0 -0.93300704228E+02 -0.55076325054E+02  0.34541826067E+03  0.37364111718E+03  0.92495873710E+02 0.  0.
          5    1    1    2  502    0  0.83225649215E+02  0.58442171031E+01  0.21174179685E+03  0.22762408592E+03  0.41800000000E+01 0.  1.
         -5    1    1    2    0  502  0.10075055013E+02  0.49232107951E+02  0.14102170012E+02  0.52360775260E+02  0.41800000000E+01 0.  1.
        -11    1    3    3    0    0 -0.41206225464E+02 -0.42900094107E+01  0.33292343444E+02  0.53148258012E+02  0.00000000000E+00 0.  1.
         11    1    3    3    0    0 -0.52094478764E+02 -0.50786315643E+02  0.31212591723E+03  0.32049285917E+03  0.00000000000E+00 0. -1.
</event>
<event>
 7    1  0.4687179E-006  0.8335837E+02  0.7561462E-02  0.1319782E+00
          2   -1    0    0  501    0  0.00000000000E+00  0.00000000000E+00  0.64921422940E+02  0.64921422940E+02  0.00000000000E+00 0. -1.
         -2   -1    0    0    0  501 -0.00000000000E+00 -0.00000000000E+00 -0.22198172447E+03  0.22198172447E+03  0.00000000000E+00 0.  1.
         23    2    1    2    0    0 -0.35755769194E+02 -0.67295370164E+01 -0.22117952247E+02  0.99336031530E+02  0.89747878244E+02 0.  0.
          5    1    1    2  502    0  0.55490604940E+02  0.50414422534E+02 -0.11049712761E+03  0.13359606598E+03  0.41800000000E+01 0.  1.
         -5    1    1    2    0  502 -0.19734835746E+02 -0.43684885518E+02 -0.24445221676E+02  0.53971049901E+02  0.41800000000E+01 0.  1.
        -11    1    3    3    0    0 -0.25880932158E+02 -0.15614933434E+02 -0.55616549521E+02  0.63299679116E+02  0.00000000000E+00 0.  1.
         11    1    3    3    0    0 -0.98748370360E+01  0.88853964177E+01  0.33498597274E+02  0.36036352414E+02  0.00000000000E+00 0. -1.
</event>
<event>
 7    1  0.4687179E-006  0.1751076E+03  0.7561462E-02  0.1172624E+00
         -1   -1    0    0    0  501 -0.00000000000E+00  0.00000000000E+00  0.18056044157E+03  0.18056044157E+03  0.00000000000E+00 0.  1.
          1   -1    0    0  501    0  0.00000000000E+00 -0.00000000000E+00 -0.28452871277E+03  0.28452871277E+03  0.00000000000E+00 0. -1.
         23    2    1    2    0    0 -0.82488868395E+02  0.89732085528E+02 -0.62604742897E+02  0.16495110946E+03  0.91832750674E+02 0.  0.
          5    1    1    2  502    0 -0.35394336853E+02  0.39288007952E+02 -0.10211299072E+03  0.11506885732E+03  0.41800000000E+01 0. -1.
         -5    1    1    2    0  502  0.11788320525E+03 -0.12902009348E+03  0.60749462414E+02  0.18506918756E+03  0.41800000000E+01 0.  1.
        -11    1    3    3    0    0 -0.40935401522E+02  0.36661392223E+02  0.19872242631E+02  0.58435184646E+02  0.00000000000E+00 0.  1.
         11    1    3    3    0    0 -0.41553466873E+02  0.53070693306E+02 -0.82476985528E+02  0.10651592481E+03  0.00000000000E+00 0. -1.
</event>
<event>
 7    1  0.4687179E-006  0.1095750E+03  0.7561462E-02  0.1261359E+00
          4   -1    0    0  501    0  0.00000000000E+00  0.00000000000E+00  0.88582975760E+02  0.88582975760E+02  0.00000000000E+00 0.  1.
         -4   -1    0    0    0  501 -0.00000000000E+00 -0.00000000000E+00 -0.23741988888E+03  0.23741988888E+03  0.00000000000E+00 0. -1.
         23    2    1    2    0    0  0.59413559642E+01 -0.96612846886E+02 -0.67822812060E+02  0.14829484707E+03  0.89566098155E+02 0.  0.
          5    1    1    2  502    0 -0.31266315938E+02  0.48757979070E+02  0.21316694355E+02  0.61861109702E+02  0.41800000000E+01 0.  1.
         -5    1    1    2    0  502  0.25324959974E+02  0.47854867816E+02 -0.10233079542E+03  0.11584690787E+03  0.41800000000E+01 0.  1.
        -11    1    3    3    0    0 -0.18130911669E+02 -0.22773429360E+02  0.16658776392E+02  0.33539139429E+02  0.00000000000E+00 0.  1.
         11    1    3    3    0    0  0.24072267633E+02 -0.73839417526E+02 -0.84481588452E+02  0.11475570764E+03  0.00000000000E+00 0. -1.
</event>
<event>
 7    1  0.4687179E-006  0.2129391E+03  0.7561462E-02  0.1139259E+00
          1   -1    0    0  501    0  0.00000000000E+00  0.00000000000E+00  0.10515465205E+04  0.10515465205E+04  0.00000000000E+00 0. -1.
         -1   -1    0    0    0  501 -0.00000000000E+00 -0.00000000000E+00 -0.60538357590E+02  0.60538357590E+02  0.00000000000E+00 0.  1.
         23    2    1    2    0    0 -0.33250281031E+02 -0.20297196977E+03  0.69534747851E+03  0.73081694940E+03  0.91006021534E+02 0.  0.
          5    1    1    2  502    0  0.11213684662E+02  0.55172476266E+02  0.79162440675E+01  0.57007790530E+02  0.41800000000E+01 0. -1.
         -5    1    1    2    0  502  0.22036596368E+02  0.14779949350E+03  0.28774444035E+03  0.32426013818E+03  0.41800000000E+01 0. -1.
        -11    1    3    3    0    0 -0.58783952075E+02 -0.15060518985E+03  0.57189979798E+03  0.59431208566E+03  0.00000000000E+00 0. -1.
         11    1    3    3    0    0  0.25533671044E+02 -0.52366779916E+02  0.12344768054E+03  0.13650486374E+03  0.00000000000E+00 0.  1.
</event>
<event>
 7    1  0.4687179E-006  0.1391746E+03  0.7561462E-02  0.1214444E+00
         -2   -1    0    0    0  501 -0.00000000000E+00  0.00000000000E+00  0.16194355229E+03  0.16194355229E+03  0.00000000000E+00 0.  1.
          2   -1    0    0  501    0  0.00000000000E+00 -0.00000000000E+00 -0.16668607077E+03  0.16668607077E+03  0.00000000000E+00 0. -1.
         23    2    1    2    0    0 -0.97192019878E+02  0.82880435974E+00 -0.82855852016E+02  0.15200592753E+03  0.82424111438E+02 0.  0.
          5    1    1    2  502    0  0.11781665692E+03  0.22808406254E+02  0.81002940188E+02  0.14484452618E+03  0.41800000000E+01 0. -1.
         -5    1    1    2    0  502 -0.20624637043E+02 -0.23637210614E+02 -0.28896066545E+01  0.31779169363E+02  0.41800000000E+01 0. -1.
        -11    1    3    3    0    0 -0.16681214094E+02 -0.34793317328E+02 -0.33359761161E+02  0.51006975003E+02  0.00000000000E+00 0. -1.
         11    1    3    3    0    0 -0.80510805784E+02  0.35622121687E+02 -0.49496090855E+02  0.10099895253E+03  0.00000000000E+00 0.  1.
</event>
<event>
 6    1  0.4687179E-006  0.9577027E+02  0.7561462E-02  0.1289451E+00
         -2   -1    0    0    0  501 -0.00000000000E+00  0.00000000000E+00  0.34765407318E+02  0.34765407318E+02  0.00000000000E+00 0. -1.
          2   -1    0    0  501    0  0.00000000000E+00 -0.00000000000E+00 -0.37022876796E+03  0.37022876796E+03  0.00000000000E+00 0.  1.
          5    1    1    2  502    0  0.73438056682E+02 -0.24385102826E+02 -0.73230425579E+02  0.10662058450E+03  0.41800000000E+01 0.  1.
         -5    1    1    2    0  502 -0.42127522825E+02 -0.27608250156E+02 -0.36324231611E+02  0.62240387677E+02  0.41800000000E+01 0. -1.
        -11    1    1    2    0    0 -0.13776024716E+02  0.75074871442E+01 -0.24247563956E+02  0.28880539780E+02  0.00000000000E+00 0. -1.
         11    1    1    2    0    0 -0.17534509141E+02  0.44485865838E+02 -0.20166113949E+03  0.20725266332E+03  0.00000000000E+00 0.  1.
</event>
<event>
 7    1  0.4687179E-006  0.1040954E+03  0.7561462E-02  0.1271912E+00
          3   -1    0    0  501    0  0.00000000000E+00  0.00000000000E+00  0.43636876819E+03  0.43636876819E+03  0.00000000000E+00 0. -1.
         -3   -1    0    0    0  501 -0.00000000000E+00 -0.00000000000E+00 -0.60775869759E+02  0.60775869759E+02  0.00000000000E+00 0.  1.
         23    2    1    2    0    0 -0.26937385785E+02 -0.39052288389E+01  0.35455516792E+03  0.36742110290E+03  0.92455536267E+02 0.  0.
          5    1    1    2  502    0  0.42615063665E+02  0.56290074047E+02 -0.70902494341E+00  0.70728998323E+02  0.41800000000E+01 0.  1.
         -5    1    1    2    0  502 -0.15677677881E+02 -0.52384845208E+02  0.21746755448E+02  0.58994536727E+02  0.41800000000E+01 0.  1.
        -11    1    3    3    0    0 -0.33157470402E+02 -0.36575651584E+02  0.29593039185E+03  0.30001998759E+03  0.00000000000E+00 0. -1.
         11    1    3    3    0    0  0.62200846178E+01  0.32670422745E+02  0.58624776077E+02  0.67401115311E+02  0.00000000000E+00 0.  1.
</event>
<event>
 7    1  0.4687179E-006  0.1467435E+03  0.7561462E-02  0.1204533E+00
         -2   -1    0    0    0  501 -0.00000000000E+00  0.00000000000E+00  0.36782045563E+02  0.36782045563E+02  0.00000000000E+00 0.  1.
          2   -1    0    0  501    0  0.00000000000E+00 -0.00000000000E+00 -0.80686090038E+03  0.80686090038E+03  0.00000000000E+00 0. -1.
         23    2    1    2    0    0  0.23396172382E+02 -0.13033768748E+03 -0.40451333917E+03  0.43520694909E+03  0.90767578486E+02 0.  0.
          5    1    1    2  502    0 -0.51205394889E+02  0.10387795621E+03 -0.15058625229E+03  0.19001661515E+03  0.41800000000E+01 0. -1.
         -5    1    1    2    0  502  0.27809222507E+02  0.26459731268E+02 -0.21497926335E+03  0.21841938171E+03  0.41800000000E+01 0. -1.
        -11    1    3    3    0    0 -0.62901965520E+00 -0.10128205429E+03 -0.37161259599E+03  0.38516797853E+03  0.00000000000E+00 0. -1.
         11    1    3    3    0    0  0.24025192037E+02 -0.29055633186E+02 -0.32900743186E+02  0.50038970557E+02  0.00000000000E+00 0.  1.
</event>
<event>
 7    1  0.4687179E-006  0.6324515E+02  0.7561462E-02  0.1384697E+00
          2   -1    0    0  501    0  0.00000000000E+00  0.00000000000E+00  0.75907444321E+02  0.75907444321E+02  0.00000000000E+00 0. -1.
         -2   -1    0    0    0  501 -0.00000000000E+00 -0.00000000000E+00 -0.16886360632E+03  0.16886360632E+03  0.00000000000E+00 0.  1.
         23    2    1    2    0    0  0.31582892392E+02  0.80953004637E+01 -0.38944563496E+02  0.10463922267E+03  0.91485927404E+02 0.  0.
          5    1    1    2  502    0 -0.48837975885E+02 -0.31543901778E+02 -0.81282633618E+02  0.10002252024E+03  0.41800000000E+01 0. -1.
         -5    1    1    2    0  502  0.17255083493E+02  0.23448601314E+02  0.27271035118E+02  0.40109307727E+02  0.41800000000E+01 0. -1.
        -11    1    3    3    0    0  0.21357757528E+02 -0.52341074299E+01 -0.67785022424E+02  0.71262605567E+02  0.00000000000E+00 0.  1.
         11    1    3    3    0    0  0.10225134864E+02  0.13329407894E+02  0.28840458928E+02  0.33376617099E+02  0.00000000000E+00 0. -1.
</event>
<event>
 7    1  0.4687179E-006  0.1602070E+03  0.7561462E-02  0.1188463E+00
         -2   -1    0    0    0  501 -0.00000000000E+00  0.00000000000E+00  0.69406345812E+02  0.69406345812E+02  0.00000000000E+00 0.  1.
          2   -1    0    0  501    0  0.00000000000E+00 -0.00000000000E+00 -0.48734880753E+03  0.48734880753E+03  0.00000000000E+00 0. -1.
         23    2    1    2    0    0 -0.10267143742E+03 -0.10037864289E+03 -0.14573178873E+03  0.22454519481E+03  0.92549955442E+02 0.  0.
          5    1    1    2  502    0 -0.99836194181E+01  0.53511314547E+02 -0.14930335269E+03  0.15897200057E+03  0.41800000000E+01 0.  1.
         -5    1    1    2    0  502  0.11265505684E+03  0.46867328345E+02 -0.12290732030E+03  0.17323795797E+03  0.41800000000E+01 0.  1.
        -11    1    3    3    0    0 -0.80404599814E+02 -0.82217471702E+02 -0.15619750910E+03  0.19396462093E+03  0.00000000000E+00 0. -1.
         11    1    3    3    0    0 -0.22266837608E+02 -0.18161171190E+02  0.10465720362E+02  0.30580573879E+02  0.00000000000E+00 0.  1.
</event>
<event>
 7    1  0.4687179E-006  0.9024078E+02  0.7561462E-02  0.1302270E+00
         -2   -1    0    0    0  501 -0.00000000000E+00  0.00000000000E+00  0.47612668296E+02  0.47612668296E+02  0.00000000000E+00 0.  1.
          2   -1    0    0  501    0  0.00000000000E+00 -0.00000000000E+00 -0.41906498790E+03  0.41906498790E+03  0.00000000000E+00 0. -1.
         23    2    1    2    0    0  0.18463075828E+02 -0.12769814534E+02 -0.31594394365E+03  0.32956941130E+03  0.91057498349E+02 0.  0.
          5    1    1    2  502    0 -0.51472582730E+02 -0.66585309461E+01 -0.77027955650E+02  0.92976024646E+02  0.41800000000E+01 0. -1.
         -5    1    1    2    0  502  0.33009506902E+02  0.19428345480E+02  0.21519579693E+02  0.44132220250E+02  0.41800000000E+01 0.  1.
        -11    1    3    3    0    0 -0.13135614500E+02  0.32282762225E+02 -0.17133592743E+03  0.17484484875E+03  0.00000000000E+00 0.  1.
         11    1    3    3    0    0  0.31598690328E+02 -0.45052576759E+02 -0.14460801622E+03  0.15472456255E+03  0.00000000000E+00 0. -1.
</event>
<event>
 7    1  0.4687179E-006  0.1363805E+03  0.7561462E-02  0.1218284E+00
         -2   -1    0    0    0  501 -0.00000000000E+00  0.00000000000E+00  0.11909768539E+03  0.11909768539E+03  0.00000000000E+00 0.  1.
          2   -1    0    0  501    0  0.00000000000E+00 -0.00000000000E+00 -0.18202167097E+03  0.18202167097E+03  0.00000000000E+00 0. -1.
         23    2    1    2    0    0  0.28341267805E+02 -0.86512995851E+02 -0.71407181104E+02  0.14619380034E+03  0.89363951524E+02 0.  0.
          5    1    1    2  502    0 -0.74194051799E+02  0.38540788936E+02  0.23110273668E+02  0.86843001348E+02  0.41800000000E+01 0.  1.
         -5    1    1    2    0  502  0.45852783993E+02  0.47972206915E+02 -0.14627078141E+02  0.68082554676E+02  0.41800000000E+01 0.  1.
        -11    1    3    3    0    0  0.47174047269E+02 -0.91613199386E+02 -0.42831877286E+02  0.11159273610E+03  0.00000000000E+00 0.  1.
         11    1    3    3    0    0 -0.18832779463E+02  0.51002035347E+01 -0.28575303818E+02  0.34601064243E+02  0.00000000000E+00 0. -1.
</event>
<event>
 7    1  0.4687179E-006  0.9944258E+02  0.7561462E-02  0.1281473E+00
         -2   -1    0    0    0  501 -0.00000000000E+00  0.00000000000E+00  0.33852015736E+02  0.33852015736E+02  0.00000000000E+00 0.  1.
          2   -1    0    0  501    0  0.00000000000E+00 -0.00000000000E+00 -0.45802324657E+03  0.45802324657E+03  0.00000000000E+00 0. -1.
         23    2    1    2    0    0  0.81914799219E+01  0.59449098401E+02 -0.21701356554E+03  0.24255042046E+03  0.90191591588E+02 0.  0.
          5    1    1    2  502    0 -0.65198186817E+02 -0.43648473676E+02 -0.10411455184E+03  0.13043506094E+03  0.41800000000E+01 0.  1.
         -5    1    1    2    0  502  0.57006706895E+02 -0.15800624725E+02 -0.10304311346E+03  0.11888978091E+03  0.41800000000E+01 0.  1.
        -11    1    3    3    0    0 -0.27023046875E+01  0.15318625384E+02  0.46807305842E+01  0.16244136575E+02  0.00000000000E+00 0.  1.
         11    1    3    3    0    0  0.10893784609E+02  0.44130473017E+02 -0.22169429612E+03  0.22630628388E+03  0.00000000000E+00 0. -1.
</event>
<event>
 7    1  0.4687179E-006  0.1009376E+03  0.7561462E-02  0.1278337E+00
         -2   -1    0    0    0  501 -0.00000000000E+00  0.00000000000E+00  0.57107808410E+02  0.57107808410E+02  0.00000000000E+00 0.  1.
          2   -1    0    0  501    0  0.00000000000E+00 -0.00000000000E+00 -0.23980068177E+03  0.23980068177E+03  0.00000000000E+00 0. -1.
         23    2    1    2    0    0  0.41118478112E+02  0.70886843261E+01 -0.70305854250E+02  0.12365098240E+03  0.92766770013E+02 0.  0.
          5    1    1    2  502    0 -0.71756326835E+02 -0.20743176758E+01 -0.18453014387E+02  0.74237856749E+02  0.41800000000E+01 0. -1.
         -5    1    1    2    0  502  0.30637848723E+02 -0.50143666503E+01 -0.93934004724E+02  0.99019651034E+02  0.41800000000E+01 0. -1.
        -11    1    3    3    0    0  0.37539985596E+02 -0.37997324783E+02 -0.52938556930E+02  0.75203311224E+02  0.00000000000E+00 0. -1.
         11    1    3    3    0    0  0.35784925163E+01  0.45086009109E+02 -0.17367297320E+02  0.48447671175E+02  0.00000000000E+00 0.  1.
</event>
<event>
 7    1  0.4687179E-006  0.1118547E+03  0.7561462E-02  0.1257173E+00
          1   -1    0    0  501    0  0.00000000000E+00  0.00000000000E+00  0.29789184483E+03  0.29789184483E+03  0.00000000000E+00 0. -1.
         -1   -1    0    0    0  501 -0.00000000000E+00 -0.00000000000E+00 -0.50390410065E+02  0.50390410065E+02  0.00000000000E+00 0.  1.
         23    2    1    2    0    0  0.10204396761E+02  0.47147568906E+02  0.15461392242E+03  0.18517669140E+03  0.89765912612E+02 0.  0.
          5    1    1    2  502    0 -0.31467533362E+01  0.41030070090E+02  0.49449087702E+02  0.64467459874E+02  0.41800000000E+01 0.  1.
         -5    1    1    2    0  502 -0.70576434243E+01 -0.88177638996E+02  0.43438424651E+02  0.98638103620E+02  0.41800000000E+01 0.  1.
        -11    1    3    3    0    0 -0.24400151811E+02 -0.10491291680E+02  0.15708897349E+02  0.30857803964E+02  0.00000000000E+00 0.  1.
         11    1    3    3    0    0  0.34604548572E+02  0.57638860587E+02  0.13890502507E+03  0.15431888744E+03  0.00000000000E+00 0. -1.
</event>
<event>
 7    1  0.4687179E-006  0.1691360E+03  0.7561462E-02  0.1178752E+00
         -1   -1    0    0    0  501 -0.00000000000E+00  0.00000000000E+00  0.10707908716E+03  0.10707908716E+03  0.00000000000E+00 0.  1.
          1   -1    0    0  501    0  0.00000000000E+00 -0.00000000000E+00 -0.30755359059E+03  0.30755359059E+03  0.00000000000E+00 0. -1.
         23    2    1    2    0    0 -0.56384225768E+02  0.12908561646E+03 -0.12771669772E+03  0.21268352699E+03  0.95291397740E+02 0.  0.
          5    1    1    2  502    0  0.76999809878E+02 -0.48091862102E+02 -0.75608665568E+02  0.11821988255E+03  0.41800000000E+01 0.  1.
         -5    1    1    2    0  502 -0.20615584110E+02 -0.80993754358E+02  0.28508598559E+01  0.83729268210E+02  0.41800000000E+01 0.  1.
        -11    1    3    3    0    0 -0.78535251332E+02  0.10026698278E+03 -0.12108564079E+03  0.17573555686E+03  0.00000000000E+00 0. -1.
         11    1    3    3    0    0  0.22151025564E+02  0.28818633681E+02 -0.66310569241E+01  0.36947970130E+02  0.00000000000E+00 0.  1.
</event>
<event>
 7    1  0.4687179E-006  0.9575225E+02  0.7561462E-02  0.1289491E+00
          1   -1    0    0  501    0  0.00000000000E+00  0.00000000000E+00  0.11394524760E+03  0.11394524760E+03  0.00000000000E+00 0. -1.
         -1   -1    0    0    0  501 -0.00000000000E+00 -0.00000000000E+00 -0.14299346118E+03  0.14299346118E+03  0.00000000000E+00 0.  1.
         23    2    1    2    0    0 -0.17839294356E+02 -0.64592994937E+02 -0.14600577398E+01  0.11237541849E+03  0.90197602484E+02 0.  0.
          5    1    1    2  502    0 -0.19789866028E+02  0.27848717775E+02  0.43856166766E+02  0.55749669439E+02  0.41800000000E+01 0. -1.
         -5    1    1    2    0  502  0.37629160384E+02  0.36744277162E+02 -0.71444322609E+02  0.88813620850E+02  0.41800000000E+01 0. -1.
        -11    1    3    3    0    0 -0.33113242093E+02  0.46323569661E+01  0.19173747596E+02  0.38543198231E+02  0.00000000000E+00 0. -1.
         11    1    3    3    0    0  0.15273947737E+02 -0.69225351903E+02 -0.20633805336E+02  0.73832220258E+02  0.00000000000E+00 0.  1.
</event>
<event>
 7    1  0.4687179E-006  0.1344537E+03  0.7561462E-02  0.1220993E+00
          1   -1    0    0  501    0  0.00000000000E+00  0.00000000000E+00  0.76805886044E+02  0.76805886044E+02  0.00000000000E+00 0. -1.
         -1   -1    0    0    0  501 -0.00000000000E+00 -0.00000000000E+00 -0.34030200947E+03  0.34030200947E+03  0.00000000000E+00 0.  1.
         23    2    1    2    0    0 -0.10484501499E+03  0.23795778955E+02 -0.65289104510E+02  0.15924568302E+03  0.97661681987E+02 0.  0.
          5    1    1    2  502    0 -0.17280834497E+02  0.21943968056E+02 -0.67531142150E+02  0.73198992719E+02  0.41800000000E+01 0.  1.
         -5    1    1    2    0  502  0.12212584949E+03 -0.45739747011E+02 -0.13067587677E+03  0.18466321978E+03  0.41800000000E+01 0.  1.
        -11    1    3    3    0    0 -0.96106222115E+02  0.14100142511E+02 -0.89280995887E+02  0.13193299881E+03  0.00000000000E+00 0.  1.
         11    1    3    3    0    0 -0.87387928738E+01  0.96956364440E+01  0.23991891377E+02  0.27312684211E+02  0.00000000000E+00 0. -1.
</event>
<event>
 7    1  0.4687179E-006  0.1127315E+03  0.7561462E-02  0.1255594E+00
         -2   -1    0    0    0  501 -0.00000000000E+00  0.00000000000E+00  0.28294191134E+02  0.28294191134E+02  0.00000000000E+00 0.  1.
          2   -1    0    0  501    0  0.00000000000E+00 -0.00000000000E+00 -0.51755827840E+03  0.51755827840E+03  0.00000000000E+00 0. -1.
         23    2    1    2    0    0  0.50300715515E+02 -0.13380338101E+02 -0.23856156789E+03  0.26088019530E+03  0.91856731905E+02 0.  0.
          5    1    1    2  502    0  0.17396436072E+02 -0.33127625640E+02 -0.26168701492E+02  0.45851378456E+02  0.41800000000E+01 0. -1.
         -5    1    1    2    0  502 -0.67697151588E+02  0.46507963741E+02 -0.22453381788E+03  0.23912089578E+03  0.41800000000E+01 0. -1.
        -11    1    3    3    0    0  0.52711250929E+02  0.30984008324E+02 -0.13682041477E+03  0.14986097105E+03  0.00000000000E+00 0.  1.
         11    1    3    3    0    0 -0.24105354141E+01 -0.44364346425E+02 -0.10174115311E+03  0.11101922424E+03  0.00000000000E+00 0. -1.
</event>
<event>
 7    1  0.4687179E-006  0.1176172E+03  0.7561462E-02  0.1247080E+00
          1   -1    0    0  501    0  0.00000000000E+00  0.00000000000E+00  0.45399527270E+03  0.45399527270E+03  0.00000000000E+00 0. -1.
         -1   -1    0    0    0  501 -0.00000000000E+00 -0.00000000000E+00 -0.33697539054E+02  0.33697539054E+02  0.00000000000E+00 0.  1.
         23    2    1    2    0    0 -0.51940855894E+02 -0.40811560885E+01  0.23932191174E+03  0.26160407550E+03  0.91908685834E+02 0.  0.
          5    1    1    2  502    0  0.11920415096E+02 -0.59124122562E+02  0.85722330211E+02  0.10489780008E+03  0.41800000000E+01 0. -1.
         -5    1    1    2    0  502  0.40020440798E+02  0.63205278651E+02  0.95253491687E+02  0.12119093617E+03  0.41800000000E+01 0. -1.
        -11    1    3    3    0    0 -0.39148398093E+02 -0.43431770728E+02  0.95779748331E+02  0.11221709305E+03  0.00000000000E+00 0.  1.
         11    1    3    3    0    0 -0.12792457801E+02  0.39350614639E+02  0.14354216341E+03  0.14938698245E+03  0.00000000000E+00 0. -1.
</event>
<event>
 7    1  0.4687179E-006  0.1068809E+03  0.7561462E-02  0.1266457E+00
          2   -1    0    0  501    0  0.00000000000E+00  0.00000000000E+00  0.79927594618E+03  0.79927594618E+03  0.00000000000E+00 0. -1.
         -2   -1    0    0    0  501 -0.00000000000E+00 -0.00000000000E+00 -0.18243494374E+02  0.18243494374E+02  0.00000000000E+00 0.  1.
         23    2    1    2    0    0 -0.39831403636E+02  0.29655145200E+02  0.41720673929E+03  0.42960012070E+03  0.89603750167E+02 0.  0.
          5    1    1    2  502    0 -0.21492772273E+02  0.21992358261E+02  0.22829170166E+03  0.23039135515E+03  0.41800000000E+01 0. -1.
         -5    1    1    2    0  502  0.61324175909E+02 -0.51647503461E+02  0.13553401085E+03  0.15752796470E+03  0.41800000000E+01 0. -1.
        -11    1    3    3    0    0  0.23240138477E+02 -0.12687045118E+02  0.10747264166E+03  0.11068619542E+03  0.00000000000E+00 0. -1.
         11    1    3    3    0    0 -0.63071542113E+02  0.42342190319E+02  0.30973409763E+03  0.31891392528E+03  0.00000000000E+00 0.  1.
</event>
<event>
 7    1  0.4687179E-006  0.8102964E+02  0.7561462E-02  0.1326155E+00
         -2   -1    0    0    0  501 -0.00000000000E+00  0.00000000000E+00  0.80791111073E+03  0.80791111073E+03  0.00000000000E+00 0.  1.
          2   -1    0    0  501    0  0.00000000000E+00 -0.00000000000E+00 -0.17541252985E+02  0.17541252985E+02  0.00000000000E+00 0. -1.
         23    2    1    2    0    0 -0.70342940954E+01 -0.83942302396E+00  0.18200310537E+03  0.20431831647E+03  0.92577849173E+02 0.  0.
          5    1    1    2  502    0  0.31299023518E+02 -0.43535707764E+02  0.48149165077E+03  0.48448598419E+03  0.41800000000E+01 0.  1.
         -5    1    1    2    0  502 -0.24264729423E+02  0.44375130788E+02  0.12687510161E+03  0.13664806305E+03  0.41800000000E+01 0.  1.
        -11    1    3    3    0    0  0.25230687519E+02 -0.12508048359E+01  0.67893642261E+01  0.26158126309E+02  0.00000000000E+00 0. -1.
         11    1    3    3    0    0 -0.32264981614E+02  0.41138181194E+00  0.17521374114E+03  0.17816019016E+03  0.00000000000E+00 0.  1.
</event>
<event>
 7    1  0.4687179E-006  0.1142364E+03  0.7561462E-02  0.1252920E+00
         -4   -1    0    0    0  501 -0.00000000000E+00  0.00000000000E+00  0.66855000313E+02  0.66855000313E+02  0.00000000000E+00 0.  1.
          4   -1    0    0  501    0  0.00000000000E+00 -0.00000000000E+00 -0.30127282482E+03  0.30127282482E+03  0.00000000000E+00 0. -1.
         23    2    1    2    0    0 -0.27673718638E+02  0.54467175325E+02 -0.19514355187E+03  0.22348267617E+03  0.90172017938E+02 0.  0.
          5    1    1    2  502    0 -0.79349319859E+00 -0.82294866492E+02 -0.57682392333E+02  0.10058730272E+03  0.41800000000E+01 0.  1.
         -5    1    1    2    0  502  0.28467211836E+02  0.27827691166E+02  0.18408119698E+02  0.44057846250E+02  0.41800000000E+01 0.  1.
        -11    1    3    3    0    0 -0.29580099450E+02  0.77487260793E+02 -0.12843580628E+03  0.15288889497E+03  0.00000000000E+00 0.  1.
         11    1    3    3    0    0  0.19063808125E+01 -0.23020085468E+02 -0.66707745586E+02  0.70593781199E+02  0.00000000000E+00 0. -1.
</event>
<event>
 7    1  0.4687179E-006  0.1785576E+03  0.7561462E-02  0.1169206E+00
          1   -1    0    0  501    0  0.00000000000E+00  0.00000000000E+00  0.30237945191E+03  0.30237945191E+03  0.00000000000E+00 0. -1.
         -1   -1    0    0    0  501 -0.00000000000E+00 -0.00000000000E+00 -0.13639644537E+03  0.13639644537E+03  0.00000000000E+00 0.  1.
         23    2    1    2    0    0  0.13818557017E+03 -0.88758006974E+02  0.13238413772E+03  0.22960704659E+03  0.90667526276E+02 0.  0.
          5    1    1    2  502    0 -0.93570458219E+02  0.95667758834E+02  0.69948845587E+02  0.15105649318E+03  0.41800000000E+01 0. -1.
         -5    1    1    2    0  502 -0.44615111950E+02 -0.69097518599E+01 -0.36349976766E+02  0.58112357515E+02  0.41800000000E+01 0. -1.
        -11    1    3    3    0    0  0.53663713225E+02 -0.75052445010E+02  0.31979373314E+02  0.97649085693E+02  0.00000000000E+00 0.  1.
         11    1    3    3    0    0  0.84521856943E+02 -0.13705561964E+02  0.10040476440E+03  0.13195796090E+03  0.00000000000E+00 0. -1.
</event>
<event>
 7    1  0.4687179E-006  0.1214394E+03  0.7561462E-02  0.1240741E+00
         -2   -1    0    0    0  501 -0.00000000000E+00  0.00000000000E+00  0.57926906958E+02  0.57926906958E+02  0.00000000000E+00 0.  1.
          2   -1    0    0  501    0  0.00000000000E+00 -0.00000000000E+00 -0.27041942876E+03  0.27041942876E+03  0.00000000000E+00 0. -1.
         23    2    1    2    0    0  0.32024290774E+02 -0.50945268908E+02 -0.11391439951E+03  0.15809444515E+03  0.91631804243E+02 0.  0.
          5    1    1    2  502    0  0.14581666484E+02  0.77857088758E+02 -0.34586425211E+02  0.86533487599E+02  0.41800000000E+01 0. -1.
         -5    1    1    2    0  502 -0.46605957259E+02 -0.26911819850E+02 -0.63991697079E+02  0.83718402963E+02  0.41800000000E+01 0. -1.
        -11    1    3    3    0    0 -0.71499264822E+00  0.25972487914E+02 -0.25088939544E+02  0.36118364171E+02  0.00000000000E+00 0.  1.
         11    1    3    3    0    0  0.32739283423E+02 -0.76917756822E+02 -0.88825459968E+02  0.12197608098E+03  0.00000000000E+00 0. -1.
</event>
<event>
 7    1  0.4687179E-006  0.1490848E+03  0.7561462E-02  0.1201602E+00
          2   -1    0    0  501    0  0.00000000000E+00  0.00000000000E+00  0.20948792792E+03  0.20948792792E+03  0.00000000000E+00 0. -1.
         -2   -1    0    0    0  501 -0.00000000000E+00 -0.00000000000E+00 -0.29455440532E+03  0.29455440532E+03  0.00000000000E+00 0.  1.
         23    2    1    2    0    0  0.51181507049E+02  0.28820889251E+02  0.15493907319E+03  0.18858922878E+03  0.90053264734E+02 0.  0.
          5    1    1    2  502    0 -0.67953545526E+01  0.82431215393E+02 -0.76635161124E+02  0.11283395958E+03  0.41800000000E+01 0. -1.
         -5    1    1    2    0  502 -0.44386152497E+02 -0.11125210464E+03 -0.16337038946E+03  0.20261914488E+03  0.41800000000E+01 0.  1.
        -11    1    3    3    0    0 -0.71489175851E+01  0.36024666949E+02  0.10575559795E+03  0.11195146336E+03  0.00000000000E+00 0. -1.
         11    1    3    3    0    0  0.58330424634E+02 -0.72037776987E+01  0.49183475239E+02  0.76637765415E+02  0.00000000000E+00 0.  1.
</event>
<event>
 7    1  0.4687179E-006  0.9552419E+02  0.7561462E-02  0.1290000E+00
         -2   -1    0    0    0  501 -0.00000000000E+00  0.00000000000E+00  0.31714763719E+02  0.31714763719E+02  0.00000000000E+00 0.  1.
          2   -1    0    0  501    0  0.00000000000E+00 -0.00000000000E+00 -0.49571455195E+03  0.49571455195E+03  0.00000000000E+00 0. -1.
         23    2    1    2    0    0 -0.15874198808E+02 -0.16286350099E+01 -0.15480607397E+03  0.17968867151E+03  0.89824581782E+02 0.  0.
          5    1    1    2  502    0 -0.95406294567E+01 -0.47775226491E+02 -0.28114198341E+03  0.28536254680E+03  0.41800000000E+01 0. -1.
         -5    1    1    2    0  502  0.25414828264E+02  0.49403861501E+02 -0.28051730851E+02  0.62378097363E+02  0.41800000000E+01 0.  1.
        -11    1    3    3    0    0 -0.45939847450E+02  0.19273084835E+02 -0.11645593690E+03  0.12666454366E+03  0.00000000000E+00 0. -1.
         11    1    3    3    0    0  0.30065648642E+02 -0.20901719845E+02 -0.38350137074E+02  0.53024127851E+02  0.00000000000E+00 0.  1.
</event>
<event>
 7    1  0.4687179E-006  0.1293826E+03  0.7561462E-02  0.1228375E+00
          1   -1    0    0  501    0  0.00000000000E+00  0.00000000000E+00  0.83328284383E+03  0.83328284383E+03  0.00000000000E+00 0. -1.
         -1   -1    0    0    0  501 -0.00000000000E+00 -0.00000000000E+00 -0.29262205899E+02  0.29262205899E+02  0.00000000000E+00 0.  1.
         23    2    1    2    0    0 -0.53829301069E+02  0.48026108093E+02  0.60671915285E+03  0.61804706785E+03  0.93112549835E+02 0.  0.
          5    1    1    2  502    0 -0.39083040785E+02 -0.96031908452E+01  0.82135902758E+02  0.91561368891E+02  0.41800000000E+01 0. -1.
         -5    1    1    2    0  502  0.92912341854E+02 -0.38422917248E+02  0.11516558232E+03  0.15293661298E+03  0.41800000000E+01 0. -1.
        -11    1    3    3    0    0 -0.37498245503E+02  0.76302638687E+02  0.42583472582E+03  0.43423890291E+03  0.00000000000E+00 0.  1.
         11    1    3    3    0    0 -0.16331055566E+02 -0.28276530594E+02  0.18088442703E+03  0.18380816494E+03  0.00000000000E+00 0. -1.
</event>
<event>
 7    1  0.4687179E-006  0.2202971E+03  0.7561462E-02  0.1133662E+00
          3   -1    0    0  501    0  0.00000000000E+00  0.00000000000E+00  0.28662165706E+03  0.28662165706E+03  0.00000000000E+00 0. -1.
         -3   -1    0    0    0  501 -0.00000000000E+00 -0.00000000000E+00 -0.17325056270E+03  0.17325056270E+03  0.00000000000E+00 0.  1.
         23    2    1    2    0    0  0.13835938393E+03  0.12845523227E+03  0.78525028835E+02  0.23073156648E+03  0.10689625718E+03 0.  0.
          5    1    1    2  502    0 -0.65424262722E+02  0.13382588745E+02  0.89146032835E+01  0.67500891742E+02  0.41800000000E+01 0.  1.
         -5    1    1    2    0  502 -0.72935121208E+02 -0.14183782101E+03  0.25931462249E+02  0.16163976154E+03  0.41800000000E+01 0.  1.
        -11    1    3    3    0    0  0.14040066197E+03  0.72257038623E+02  0.73799848772E+02  0.17429814454E+03  0.00000000000E+00 0. -1.
         11    1    3    3    0    0 -0.20412780407E+01  0.56198193644E+02  0.47251800623E+01  0.56433421937E+02  0.00000000000E+00 0.  1.
</event>
<event>
 7    1  0.4687179E-006  0.1359729E+03  0.7561462E-02  0.1218853E+00
          1   -1    0    0  501    0  0.00000000000E+00  0.00000000000E+00  0.10115401889E+03  0.10115401889E+03  0.00000000000E+00 0. -1.
         -1   -1    0    0    0  501 -0.00000000000E+00 -0.00000000000E+00 -0.25403556130E+03  0.25403556130E+03  0.00000000000E+00 0.  1.
         23    2    1    2    0    0  0.52269539458E+02  0.95426126976E+02 -0.18469176310E+02  0.14176126093E+03  0.88976930511E+02 0.  0.
          5    1    1    2  502    0 -0.86436226002E+02 -0.74780146738E+02 -0.12984137868E+03  0.17303048151E+03  0.41800000000E+01 0. -1.
         -5    1    1    2    0  502  0.34166686544E+02 -0.20645980238E+02 -0.45709874149E+01  0.40397837755E+02  0.41800000000E+01 0. -1.
        -11    1    3    3    0    0  0.42927060426E+02  0.32556966663E+02 -0.47555592398E+02  0.71862528229E+02  0.00000000000E+00 0.  1.
         11    1    3    3    0    0  0.93424790320E+01  0.62869160313E+02  0.29086416088E+02  0.69898732705E+02  0.00000000000E+00 0. -1.
</event>
<event>
 7    1  0.4687179E-006  0.1221097E+03  0.7561462E-02  0.1239657E+00
         -3   -1    0    0    0  501 -0.00000000000E+00  0.00000000000E+00  0.39283829196E+02  0.39283829196E+02  0.00000000000E+00 0. -1.
          3   -1    0    0  501    0  0.00000000000E+00 -0.00000000000E+00 -0.44834743915E+03  0.44834743915E+03  0.00000000000E+00 0.  1.
         23    2    1    2    0    0  0.70944663211E+02 -0.19903759714E+02 -0.21939779939E+03  0.24878238340E+03  0.91257739539E+02 0.  0.
          5    1    1    2  502    0 -0.34689521533E+02 -0.43283235592E+02 -0.13982218993E+03  0.15048095755E+03  0.41800000000E+01 0. -1.
         -5    1    1    2    0  502 -0.36255141678E+02  0.63186995306E+02 -0.49843620629E+02  0.88367927390E+02  0.41800000000E+01 0. -1.
        -11    1    3    3    0    0  0.90383754223E+02 -0.39391775065E+01 -0.15255793461E+03  0.17736590303E+03  0.00000000000E+00 0. -1.
         11    1    3    3    0    0 -0.19439091012E+02 -0.15964582207E+02 -0.66839864782E+02  0.71416480370E+02  0.00000000000E+00 0.  1.
</event>
<event>
 7    1  0.4687179E-006  0.2840473E+03  0.7561462E-02  0.1093499E+00
         -1   -1    0    0    0  501 -0.00000000000E+00  0.00000000000E+00  0.79307802940E+03  0.79307802940E+03  0.00000000000E+00 0.  1.
          1   -1    0    0  501    0  0.00000000000E+00 -0.00000000000E+00 -0.11027946729E+03  0.11027946729E+03  0.00000000000E+00 0. -1.
         23    2    1    2    0    0 -0.26168437136E+03 -0.84220812956E+02  0.33580159195E+03  0.44332860752E+03  0.90585261135E+02 0.  0.
          5    1    1    2  502    0  0.14632573328E+03 -0.56145809428E+01  0.23014399681E+03  0.27281216139E+03  0.41800000000E+01 0.  1.
         -5    1    1    2    0  502  0.11535863809E+03  0.89835393899E+02  0.11685297335E+03  0.18721672778E+03  0.41800000000E+01 0.  1.
        -11    1    3    3    0    0 -0.97798945443E+02 -0.39294228462E+02  0.19894446396E+03  0.22513900120E+03  0.00000000000E+00 0.  1.
         11    1    3    3    0    0 -0.16388542592E+03 -0.44926584495E+02  0.13685712799E+03  0.21818960632E+03  0.00000000000E+00 0. -1.
</event>
<event>
 7    1  0.4687179E-006  0.1133995E+03  0.7561462E-02  0.1254401E+00
          2   -1    0    0  501    0  0.00000000000E+00  0.00000000000E+00  0.43394042891E+03  0.43394042891E+03  0.00000000000E+00 0. -1.
         -2   -1    0    0    0  501 -0.00000000000E+00 -0.00000000000E+00 -0.73969101867E+02  0.73969101867E+02  0.00000000000E+00 0.  1.
         23    2    1    2    0    0  0.24248792527E+02 -0.54632821630E+02  0.17560260544E+03  0.20611718023E+03  0.89862493900E+02 0.  0.
          5    1    1    2  502    0 -0.64556139569E+02  0.78678710730E+02  0.22018547890E+03  0.24260451809E+03  0.41800000000E+01 0. -1.
         -5    1    1    2    0  502  0.40307347042E+02 -0.24045889099E+02 -0.35816757297E+02  0.59187832461E+02  0.41800000000E+01 0.  1.
        -11    1    3    3    0    0 -0.15142669571E+02 -0.21775304713E+02  0.37677170305E+01  0.26789177455E+02  0.00000000000E+00 0. -1.
         11    1    3    3    0    0  0.39391462097E+02 -0.32857516917E+02  0.17183488841E+03  0.17932800278E+03  0.00000000000E+00 0.  1.
</event>
<event>
 7    1  0.4687179E-006  0.9756205E+02  0.7561462E-02  0.1285508E+00
         -1   -1    0    0    0  501 -0.00000000000E+00  0.00000000000E+00  0.29823432459E+02  0.29823432459E+02  0.00000000000E+00 0.  1.
          1   -1    0    0  501    0  0.00000000000E+00 -0.00000000000E+00 -0.54170889541E+03  0.54170889541E+03  0.00000000000E+00 0. -1.
         23    2    1    2    0    0  0.60283243064E+02  0.28763284143E+02 -0.24099860731E+03  0.26577306632E+03  0.89964427105E+02 0.  0.
          5    1    1    2  502    0 -0.45345210432E+02 -0.62682941325E+02 -0.80401663392E+02  0.11165679164E+03  0.41800000000E+01 0. -1.
         -5    1    1    2    0  502 -0.14938032632E+02  0.33919657182E+02 -0.19048519225E+03  0.19410246992E+03  0.41800000000E+01 0. -1.
        -11    1    3    3    0    0  0.35230513382E+02 -0.77438197429E+01 -0.21799801352E+02  0.42147208168E+02  0.00000000000E+00 0.  1.
         11    1    3    3    0    0  0.25052729682E+02  0.36507103886E+02 -0.21919880596E+03  0.22362585815E+03  0.00000000000E+00 0. -1.
</event>
<event>
 7    1  0.4687179E-006  0.9874908E+02  0.7561462E-02  0.1282949E+00
          1   -1    0    0  501    0  0.00000000000E+00  0.00000000000E+00  0.11620984977E+04  0.11620984977E+04  0.00000000000E+00 0. -1.
         -1   -1    0    0    0  501 -0.00000000000E+00 -0.00000000000E+00 -0.13509079181E+02  0.13509079181E+02  0.00000000000E+00 0.  1.
         23    2    1    2    0    0  0.94619847282E+01  0.61633047219E+02  0.50330305164E+03  0.51535716578E+03  0.91601773279E+02 0.  0.
          5    1    1    2  502    0 -0.17661122571E+02 -0.71223106256E+02  0.17541130827E+03  0.19018739597E+03  0.41800000000E+01 0.  1.
         -5    1    1    2    0  502  0.81991378424E+01  0.95900590370E+01  0.46987505861E+03  0.47006301514E+03  0.41800000000E+01 0.  1.
        -11    1    3    3    0    0 -0.48234894762E+01  0.84015945346E+02  0.37283283726E+03  0.38221233583E+03  0.00000000000E+00 0.  1.
         11    1    3    3    0    0  0.14285474204E+02 -0.22382898127E+02  0.13047021438E+03  0.13314482995E+03  0.00000000000E+00 0. -1.
</event>
<event>
 7    1  0.4687179E-006  0.1578976E+03  0.7561462E-02  0.1191091E+00
         -1   -1    0    0    0  501 -0.00000000000E+00  0.00000000000E+00  0.34330995536E+02  0.34330995536E+02  0.00000000000E+00 0.  1.
          1   -1    0    0  501    0  0.00000000000E+00 -0.00000000000E+00 -0.87801666561E+03  0.87801666561E+03  0.00000000000E+00 0. -1.
         23    2    1    2    0    0 -0.10736440673E+03 -0.79255852604E+02 -0.37315485829E+03  0.40751594780E+03  0.94953111836E+02 0.  0.
          5    1    1    2  502    0 -0.19984609906E+02  0.46381236461E+02 -0.11259296575E+03  0.12347166503E+03  0.41800000000E+01 0.  1.
         -5    1    1    2    0  502  0.12734901663E+03  0.32874616143E+02 -0.35793784604E+03  0.38136004831E+03  0.41800000000E+01 0.  1.
        -11    1    3    3    0    0 -0.45073782997E+02 -0.30452145201E+02 -0.28023969935E+03  0.28547025791E+03  0.00000000000E+00 0. -1.
         11    1    3    3    0    0 -0.62290623729E+02 -0.48803707403E+02 -0.92915158941E+02  0.12204568989E+03  0.00000000000E+00 0.  1.
</event>
<event>
 7    1  0.4687179E-006  0.8267725E+02  0.7561462E-02  0.1321621E+00
          1   -1    0    0  501    0  0.00000000000E+00  0.00000000000E+00  0.11139762103E+03  0.11139762103E+03  0.00000000000E+00 0. -1.
         -1   -1    0    0    0  501 -0.00000000000E+00 -0.00000000000E+00 -0.18575314721E+03  0.18575314721E+03  0.00000000000E+00 0.  1.
         23    2    1    2    0    0 -0.40945484861E+02 -0.32797280966E+02  0.50338914028E+02  0.11289337422E+03  0.86363842593E+02 0.  0.
          5    1    1    2  502    0  0.56817889966E+02  0.31407043038E+01 -0.21358113315E+01  0.57097904810E+02  0.41800000000E+01 0.  1.
         -5    1    1    2    0  502 -0.15872405105E+02  0.29656576662E+02 -0.12255862888E+03  0.12715948921E+03  0.41800000000E+01 0.  1.
        -11    1    3    3    0    0  0.12697195570E+02 -0.97865709567E+01 -0.17276735798E+02  0.23568651770E+02  0.00000000000E+00 0.  1.
         11    1    3    3    0    0 -0.53642680430E+02 -0.23010710009E+02  0.67615649826E+02  0.89324722447E+02  0.00000000000E+00 0. -1.
</event>
<event>
 7    1  0.4687179E-006  0.1759409E+03  0.7561462E-02  0.1171790E+00
         -1   -1    0    0    0  501 -0.00000000000E+00  0.00000000000E+00  0.25726253359E+03  0.25726253359E+03  0.00000000000E+00 0.  1.
          1   -1    0    0  501    0  0.00000000000E+00 -0.00000000000E+00 -0.17378407924E+03  0.17378407924E+03  0.00000000000E+00 0. -1.
         23    2    1    2    0    0 -0.11950097737E+02 -0.16900075810E+03 -0.30419231440E+02  0.19162312080E+03  0.84202314157E+02 0.  0.
          5    1    1    2  502    0 -0.13724562582E+02  0.10579661064E+02 -0.22539401627E+02  0.28736559849E+02  0.41800000000E+01 0.  1.
         -5    1    1    2    0  502  0.25674660319E+02  0.15842109704E+03  0.13643708741E+03  0.21068693218E+03  0.41800000000E+01 0.  1.
        -11    1    3    3    0    0  0.12475583561E+02 -0.88902854644E+02  0.22517121833E+02  0.92554732589E+02  0.00000000000E+00 0.  1.
         11    1    3    3    0    0 -0.24425681297E+02 -0.80097903455E+02 -0.52936353273E+02  0.99068388210E+02  0.00000000000E+00 0. -1.
</event>
<event>
 7    1  0.4687179E-006  0.1234920E+03  0.7561462E-02  0.1237445E+00
         -2   -1    0    0    0  501 -0.00000000000E+00  0.00000000000E+00  0.24733330238E+03  0.24733330238E+03  0.00000000000E+00 0.  1.
          2   -1    0    0  501    0  0.00000000000E+00 -0.00000000000E+00 -0.70018328248E+02  0.70018328248E+02  0.00000000000E+00 0. -1.
         23    2    1    2    0    0  0.67440599505E+02  0.13365028574E+02  0.39258085595E+02  0.11878455670E+03  0.88553459425E+02 0.  0.
          5    1    1    2  502    0  0.33678795705E+02 -0.46204005610E+01  0.11167748503E+02  0.36024996712E+02  0.41800000000E+01 0.  1.
         -5    1    1    2    0  502 -0.10111939521E+03 -0.87446280132E+01  0.12688914003E+03  0.16254207721E+03  0.41800000000E+01 0.  1.
        -11    1    3    3    0    0 -0.19571022474E+02  0.14125031383E+02  0.15130952693E+02  0.28486613727E+02  0.00000000000E+00 0. -1.
         11    1    3    3    0    0  0.87011621978E+02 -0.76000280833E+00  0.24127132902E+02  0.90297942975E+02  0.00000000000E+00 0.  1.
</event>
<event>
 7    1  0.4687179E-006  0.2075805E+03  0.7561462E-02  0.1143496E+00
          2   -1    0    0  501    0  0.00000000000E+00  0.00000000000E+00  0.14474390733E+03  0.14474390733E+03  0.00000000000E+00 0. -1.
         -2   -1    0    0    0  501 -0.00000000000E+00 -0.00000000000E+00 -0.36302402755E+03  0.36302402755E+03  0.00000000000E+00 0.  1.
         23    2    1    2    0    0  0.19696670291E+03 -0.40317470600E+02 -0.10382183828E+03  0.24476539217E+03  0.93326001782E+02 0.  0.
          5    1    1    2  502    0 -0.11617551048E+02  0.19296865921E+02  0.22063676463E+02  0.31805891684E+02  0.41800000000E+01 0. -1.
         -5    1    1    2    0  502 -0.18534915186E+03  0.21020604679E+02 -0.13652195840E+03  0.23119665102E+03  0.41800000000E+01 0. -1.
        -11    1    3    3    0    0  0.13139999634E+03 -0.47471858074E+02 -0.24903278190E+02  0.14191444469E+03  0.00000000000E+00 0. -1.
         11    1    3    3    0    0  0.65566706572E+02  0.71543874741E+01 -0.78918560089E+02  0.10285094748E+03  0.00000000000E+00 0.  1.
</event>
<event>
 7    1  0.4687179E-006  0.1041071E+03  0.7561462E-02  0.1271889E+00
         -2   -1    0    0    0  501 -0.00000000000E+00  0.00000000000E+00  0.23649450631E+03  0.23649450631E+03  0.00000000000E+00 0.  1.
          2   -1    0    0  501    0  0.00000000000E+00 -0.00000000000E+00 -0.51958882244E+02  0.51958882244E+02  0.00000000000E+00 0. -1.
         23    2    1    2    0    0 -0.18188248300E+02 -0.74579436318E+01  0.71107658185E+02  0.11847965227E+03  0.92707581400E+02 0.  0.
          5    1    1    2  502    0  0.79508255650E+01 -0.53245877831E+02  0.87979798721E+02  0.10322914567E+03  0.41800000000E+01 0. -1.
         -5    1    1    2    0  502  0.10237422735E+02  0.60703821463E+02  0.25448167157E+02  0.66744590613E+02  0.41800000000E+01 0. -1.
        -11    1    3    3    0    0 -0.53671332264E+02 -0.16021050970E+02  0.55271564276E+02  0.78690735152E+02  0.00000000000E+00 0. -1.
         11    1    3    3    0    0  0.35483083963E+02  0.85631073386E+01  0.15836093908E+02  0.39788917114E+02  0.00000000000E+00 0.  1.
</event>
<event>
 7    1  0.4687179E-006  0.1432792E+03  0.7561462E-02  0.1208983E+00
          2   -1    0    0  501    0  0.00000000000E+00  0.00000000000E+00  0.17932814115E+03  0.17932814115E+03  0.00000000000E+00 0. -1.
         -2   -1    0    0    0  501 -0.00000000000E+00 -0.00000000000E+00 -0.21279156131E+03  0.21279156131E+03  0.00000000000E+00 0.  1.
         23    2    1    2    0    0  0.10709029306E+03 -0.26427061142E+01  0.11025958924E+03  0.17353810972E+03  0.80516977959E+02 0.  0.
          5    1    1    2  502    0  0.19112941582E+02  0.16911699108E+02 -0.62827114332E+02  0.67941362938E+02  0.41800000000E+01 0.  1.
         -5    1    1    2    0  502 -0.12620323465E+03 -0.14268992994E+02 -0.80895895068E+02  0.15064022980E+03  0.41800000000E+01 0.  1.
        -11    1    3    3    0    0  0.46512912510E+02 -0.40931269894E+02  0.44576212575E+02  0.76327312365E+02  0.00000000000E+00 0. -1.
         11    1    3    3    0    0  0.60577380554E+02  0.38288563780E+02  0.65683376668E+02  0.97210797351E+02  0.00000000000E+00 0.  1.
</event>
<event>
 7    1  0.4687179E-006  0.9492997E+02  0.7561462E-02  0.1291334E+00
          2   -1    0    0  501    0  0.00000000000E+00  0.00000000000E+00  0.78918616093E+03  0.78918616093E+03  0.00000000000E+00 0. -1.
         -2   -1    0    0    0  501 -0.00000000000E+00 -0.00000000000E+00 -0.18238871689E+02  0.18238871689E+02  0.00000000000E+00 0.  1.
         23    2    1    2    0    0 -0.34208528639E+02 -0.37570161632E+02  0.38450662472E+03  0.39807763814E+03  0.89658915109E+02 0.  0.
          5    1    1    2  502    0  0.55525789090E+02  0.20791363392E+02  0.70481560234E+02  0.92198247157E+02  0.41800000000E+01 0.  1.
         -5    1    1    2    0  502 -0.21317260451E+02  0.16778798240E+02  0.31595910429E+03  0.31714914732E+03  0.41800000000E+01 0.  1.
        -11    1    3    3    0    0 -0.60097152706E+02 -0.35213195554E+01  0.23257271670E+03  0.24023766567E+03  0.00000000000E+00 0. -1.
         11    1    3    3    0    0  0.25888624067E+02 -0.34048842077E+02  0.15193390802E+03  0.15783997247E+03  0.00000000000E+00 0.  1.
</event>
<event>
 7    1  0.4687179E-006  0.1075454E+03  0.7561462E-02  0.1265184E+00
         -1   -1    0    0    0  501 -0.00000000000E+00  0.00000000000E+00  0.19422028568E+02  0.19422028568E+02  0.00000000000E+00 0.  1.
          1   -1    0    0  501    0  0.00000000000E+00 -0.00000000000E+00 -0.88638969770E+03  0.88638969770E+03  0.00000000000E+00 0. -1.
         23    2    1    2    0    0 -0.26955336908E+02  0.64923136709E+02 -0.44840184681E+03  0.46333194890E+03  0.93116458181E+02 0.  0.
          5    1    1    2  502    0  0.50265380105E+02 -0.44884808505E+02 -0.90298699432E+02  0.11275008643E+03  0.41800000000E+01 0. -1.
         -5    1    1    2    0  502 -0.23310043197E+02 -0.20038328204E+02 -0.32826712289E+03  0.32972969093E+03  0.41800000000E+01 0. -1.
        -11    1    3    3    0    0  0.23555768313E+02 -0.10488617473E+02 -0.10823073896E+03  0.11125995764E+03  0.00000000000E+00 0.  1.
         11    1    3    3    0    0 -0.50511105221E+02  0.75411754182E+02 -0.34017110785E+03  0.35207199127E+03  0.00000000000E+00 0. -1.
</event>
<event>
 7    1  0.4687179E-006  0.1202377E+03  0.7561462E-02  0.1242706E+00
         -1   -1    0    0    0  501 -0.00000000000E+00  0.00000000000E+00  0.17877618095E+03  0.17877618095E+03  0.00000000000E+00 0. -1.
          1   -1    0    0  501    0  0.00000000000E+00 -0.00000000000E+00 -0.13330040253E+03  0.13330040253E+03  0.00000000000E+00 0.  1.
         23    2    1    2    0    0 -0.76475552475E+02 -0.26958500168E+01 -0.58227818102E+02  0.13247224197E+03  0.91118814507E+02 0.  0.
          5    1    1    2  502    0  0.10036889104E+03  0.21942132402E+02  0.42987639249E+02  0.11144855760E+03  0.41800000000E+01 0. -1.
         -5    1    1    2    0  502 -0.23893338568E+02 -0.19246282385E+02  0.60715957267E+02  0.68155783910E+02  0.41800000000E+01 0. -1.
        -11    1    3    3    0    0 -0.88272772714E+02 -0.15115049829E+02 -0.68274402915E+02  0.11261412535E+03  0.00000000000E+00 0.  1.
         11    1    3    3    0    0  0.11797220239E+02  0.12419199812E+02  0.10046584813E+02  0.19858116621E+02  0.00000000000E+00 0. -1.
</event>
<event>
 7    1  0.4687179E-006  0.1251732E+03  0.7561462E-02  0.1234799E+00
         -2   -1    0    0    0  501 -0.00000000000E+00  0.00000000000E+00  0.29661474994E+02  0.29661474994E+02  0.00000000000E+00 0.  1.
          2   -1    0    0  501    0  0.00000000000E+00 -0.00000000000E+00 -0.58439883164E+03  0.58439883164E+03  0.00000000000E+00 0. -1.
         23    2    1    2    0    0 -0.37526281494E+01  0.69351970594E+02 -0.30836817640E+03  0.32915902956E+03  0.91820240047E+02 0.  0.
          5    1    1    2  502    0  0.42926412491E+02  0.14663415511E+02 -0.49571858012E+02  0.67324097845E+02  0.41800000000E+01 0.  1.
         -5    1    1    2    0  502 -0.39173784342E+02 -0.84015386105E+02 -0.19679732223E+03  0.21757717923E+03  0.41800000000E+01 0.  1.
        -11    1    3    3    0    0  0.38791309687E+02  0.12029781468E+02 -0.77364154326E+02  0.87376734454E+02  0.00000000000E+00 0.  1.
         11    1    3    3    0    0 -0.42543937836E+02  0.57322189126E+02 -0.23100402207E+03  0.24178229511E+03  0.00000000000E+00 0. -1.
</event>
<event>
 7    1  0.4687179E-006  0.8205512E+02  0.7561462E-02  0.1323318E+00
          1   -1    0    0  501    0  0.00000000000E+00  0.00000000000E+00  0.48445494275E+03  0.48445494275E+03  0.00000000000E+00 0. -1.
         -1   -1    0    0    0  501 -0.00000000000E+00 -0.00000000000E+00 -0.29227401156E+02  0.29227401156E+02  0.00000000000E+00 0.  1.
         23    2    1    2    0    0 -0.12648754000E+02  0.27568645404E+02  0.28055306320E+03  0.29670598194E+03  0.91675499807E+02 0.  0.
          5    1    1    2  502    0  0.36728477976E+02  0.76276637473E+00 -0.13707803145E+01  0.36998842491E+02  0.41800000000E+01 0. -1.
         -5    1    1    2    0  502 -0.24079723976E+02 -0.28331411779E+02  0.17604525872E+03  0.17997751947E+03  0.41800000000E+01 0. -1.
        -11    1    3    3    0    0 -0.48015226329E+02  0.62362148422E+01  0.95180890216E+02  0.10678836171E+03  0.00000000000E+00 0.  1.
         11    1    3    3    0    0  0.35366472329E+02  0.21332430562E+02  0.18537217298E+03  0.18991762023E+03  0.00000000000E+00 0. -1.
</event>
<event>
 7    1  0.4687179E-006  0.1630685E+03  0.7561462E-02  0.1185275E+00
          1   -1    0    0  501    0  0.00000000000E+00  0.00000000000E+00  0.27798530673E+02  0.27798530673E+02  0.00000000000E+00 0. -1.
         -1   -1    0    0    0  501 -0.00000000000E+00 -0.00000000000E+00 -0.12126746743E+04  0.12126746743E+04  0.00000000000E+00 0.  1.
         23    2    1    2    0    0  0.76929238427E+02 -0.10198555854E+03 -0.30985170380E+03  0.34736934852E+03  0.91313876639E+02 0.  0.
          5    1    1    2  502    0 -0.54396206133E+01 -0.25765080338E+02 -0.70816468221E+02  0.75669501178E+02  0.41800000000E+01 0.  1.
         -5    1    1    2    0  502 -0.71489617813E+02  0.12775063888E+03 -0.80420797164E+03  0.81743435531E+03  0.41800000000E+01 0.  1.
        -11    1    3    3    0    0  0.18680038440E+02  0.13924053680E+02 -0.23943225326E+02  0.33408100006E+02  0.00000000000E+00 0. -1.
         11    1    3    3    0    0  0.58249199987E+02 -0.11590961222E+03 -0.28590847848E+03  0.31396124852E+03  0.00000000000E+00 0.  1.
</event>
<event>
 7    1  0.4687179E-006  0.9575432E+02  0.7561462E-02  0.1289486E+00
         -3   -1    0    0    0  501 -0.00000000000E+00  0.00000000000E+00  0.25850753772E+03  0.25850753772E+03  0.00000000000E+00 0.  1.
          3   -1    0    0  501    0  0.00000000000E+00 -0.00000000000E+00 -0.49277843212E+02  0.49277843212E+02  0.00000000000E+00 0. -1.
         23    2    1    2    0    0  0.12224806527E+02  0.12104038560E+01  0.34186818825E+02  0.92289405166E+02  0.84839169918E+02 0.  0.
          5    1    1    2  502    0  0.40927302982E+02  0.24859562059E+02  0.25082192108E+02  0.54218361430E+02  0.41800000000E+01 0.  1.
         -5    1    1    2    0  502 -0.53152109509E+02 -0.26069965915E+02  0.14996068358E+03  0.16127761434E+03  0.41800000000E+01 0.  1.
        -11    1    3    3    0    0 -0.28749768242E+02 -0.22718075937E+02  0.60902520886E+01  0.37145003954E+02  0.00000000000E+00 0.  1.
         11    1    3    3    0    0  0.40974574769E+02  0.23928479793E+02  0.28096566736E+02  0.55144401212E+02  0.00000000000E+00 0. -1.
</event>
<event>
 7    1  0.4687179E-006  0.1046498E+03  0.7561462E-02  0.1270811E+00
          2   -1    0    0  501    0  0.00000000000E+00  0.00000000000E+00  0.33393356162E+03  0.33393356162E+03  0.00000000000E+00 0. -1.
         -2   -1    0    0    0  501 -0.00000000000E+00 -0.00000000000E+00 -0.36118888132E+02  0.36118888132E+02  0.00000000000E+00 0.  1.
         23    2    1    2    0    0 -0.57590039413E+01 -0.41800001438E+01  0.16372136652E+03  0.18653571358E+03  0.89108069542E+02 0.  0.
          5    1    1    2  502    0 -0.30865598422E+00 -0.60216727154E+02  0.68504646114E+02  0.91304482020E+02  0.41800000000E+01 0.  1.
         -5    1    1    2    0  502  0.60676599255E+01  0.64396727298E+02  0.65588660857E+02  0.92212254157E+02  0.41800000000E+01 0.  1.
        -11    1    3    3    0    0  0.25671532191E+02 -0.32772553468E+02  0.11267291417E+03  0.12011766487E+03  0.00000000000E+00 0. -1.
         11    1    3    3    0    0 -0.31430536133E+02  0.28592553324E+02  0.51048452350E+02  0.66418048710E+02  0.00000000000E+00 0.  1.
</event>
<event>
 7    1  0.4687179E-006  0.6527653E+02  0.7561462E-02  0.1376934E+00
          1   -1    0    0  501    0  0.00000000000E+00  0.00000000000E+00  0.99797602625E+02  0.99797602625E+02  0.00000000000E+00 0. -1.
         -1   -1    0    0    0  501 -0.00000000000E+00 -0.00000000000E+00 -0.15237312182E+03  0.15237312182E+03  0.00000000000E+00 0.  1.
         23    2    1    2    0    0 -0.32949967058E+02 -0.27236787921E+02  0.19002371044E+02  0.10184376077E+03  0.90462802063E+02 0.  0.
          5    1    1    2  502    0  0.36494777255E+02  0.23787354809E+00  0.28520823739E+02  0.46506291375E+02  0.41800000000E+01 0.  1.
         -5    1    1    2    0  502 -0.35448101969E+01  0.26998914373E+02 -0.10009871398E+03  0.10382067230E+03  0.41800000000E+01 0.  1.
        -11    1    3    3    0    0  0.10217390001E+01 -0.31955188960E+02 -0.28786236746E+02  0.43021221252E+02  0.00000000000E+00 0.  1.
         11    1    3    3    0    0 -0.33971706058E+02  0.47184010392E+01  0.47788607790E+02  0.58822539518E+02  0.00000000000E+00 0. -1.
</event>
<event>
 7    1  0.4687179E-006  0.1308082E+03  0.7561462E-02  0.1226261E+00
          1   -1    0    0  501    0  0.00000000000E+00  0.00000000000E+00  0.52104318124E+03  0.52104318124E+03  0.00000000000E+00 0. -1.
         -1   -1    0    0    0  501 -0.00000000000E+00 -0.00000000000E+00 -0.48148824696E+02  0.48148824696E+02  0.00000000000E+00 0.  1.
         23    2    1    2    0    0  0.10941195523E+03 -0.92824218409E+01  0.27702984276E+03  0.31215642276E+03  0.92946001467E+02 0.  0.
          5    1    1    2  502    0 -0.64512324952E+02  0.29448678784E+02  0.19189987411E+02  0.73585275495E+02  0.41800000000E+01 0.  1.
         -5    1    1    2    0  502 -0.44899630282E+02 -0.20166256943E+02  0.17667452638E+03  0.18345030768E+03  0.41800000000E+01 0.  1.
        -11    1    3    3    0    0  0.11539407811E+03  0.14823785164E+02  0.20183125362E+03  0.23296221326E+03  0.00000000000E+00 0. -1.
         11    1    3    3    0    0 -0.59821228729E+01 -0.24106207005E+02  0.75198589138E+02  0.79194209501E+02  0.00000000000E+00 0.  1.
</event>
<event>
 7    1  0.4687179E-006  0.5589957E+02  0.7561462E-02  0.1415892E+00
         -1   -1    0    0    0  501 -0.00000000000E+00  0.00000000000E+00  0.13063927383E+03  0.13063927383E+03  0.00000000000E+00 0.  1.
          1   -1    0    0  501    0  0.00000000000E+00 -0.00000000000E+00 -0.14111404271E+03  0.14111404271E+03  0.00000000000E+00 0. -1.
         23    2    1    2    0    0 -0.11261079651E+02  0.49047453384E+02 -0.68845360684E+02  0.12483055375E+03  0.91162047270E+02 0.  0.
          5    1    1    2  502    0 -0.19969376881E+01 -0.22664759718E+02  0.96092043015E+02  0.98837402961E+02  0.41800000000E+01 0.  1.
         -5    1    1    2    0  502  0.13258017339E+02 -0.26382693666E+02 -0.37721451212E+02  0.48085359834E+02  0.41800000000E+01 0.  1.
        -11    1    3    3    0    0  0.65971140620E+01  0.36322403295E+02 -0.88180024885E+02  0.95595793233E+02  0.00000000000E+00 0. -1.
         11    1    3    3    0    0 -0.17858193713E+02  0.12725050089E+02  0.19334664201E+02  0.29234760513E+02  0.00000000000E+00 0.  1.
</event>
<event>
 7    1  0.4749051E-006  0.1328836E+03  0.7561462E-02  0.1223239E+00
         -1   -1    0    0    0  501 -0.00000000000E+00  0.00000000000E+00  0.46010037678E+02  0.46010037678E+02  0.00000000000E+00 0.  1.
          1   -1    0    0  501    0  0.00000000000E+00 -0.00000000000E+00 -0.67344837150E+03  0.67344837150E+03  0.00000000000E+00 0. -1.
         23    2    1    2    0    0  0.11955432807E+03  0.52354976604E+02 -0.38673343216E+03  0.41842566306E+03  0.92103241074E+02 0.  0.
          5    1    1    2  502    0 -0.10469428713E+03 -0.54330957401E+02 -0.25430866660E+03  0.28036247430E+03  0.41800000000E+01 0. -1.
         -5    1    1    2    0  502 -0.14860040935E+02  0.19759807970E+01  0.13603764936E+02  0.20670271821E+02  0.41800000000E+01 0. -1.
        -11    1    3    3    0    0  0.69198930953E+02  0.41423599298E+02 -0.33804791409E+03  0.34753532028E+03  0.00000000000E+00 0. -1.
         11    1    3    3    0    0  0.50355397116E+02  0.10931377306E+02 -0.48685518075E+02  0.70890342775E+02  0.00000000000E+00 0.  1.
</event>
<event>
 7    1  0.4687179E-006  0.1403641E+03  0.7561462E-02  0.1212840E+00
          1   -1    0    0  501    0  0.00000000000E+00  0.00000000000E+00  0.49619733269E+03  0.49619733269E+03  0.00000000000E+00 0. -1.
         -1   -1    0    0    0  501 -0.00000000000E+00 -0.00000000000E+00 -0.58728401506E+02  0.58728401506E+02  0.00000000000E+00 0.  1.
         23    2    1    2    0    0  0.65066739505E+02  0.10659429046E+03  0.27205706184E+03  0.31284208179E+03  0.90879590085E+02 0.  0.
          5    1    1    2  502    0 -0.20508491889E+02 -0.68707631547E+02  0.58197290828E+01  0.72060242291E+02  0.41800000000E+01 0.  1.
         -5    1    1    2    0  502 -0.44558247615E+02 -0.37886658909E+02  0.15959214027E+03  0.17002341012E+03  0.41800000000E+01 0.  1.
        -11    1    3    3    0    0  0.19547081067E+02 -0.12205192937E+02  0.73462973108E+02  0.76992619976E+02  0.00000000000E+00 0. -1.
         11    1    3    3    0    0  0.45519658438E+02  0.11879948339E+03  0.19859408873E+03  0.23584946181E+03  0.00000000000E+00 0.  1.
</event>
<event>
 7    1  0.4687179E-006  0.1326921E+03  0.7561462E-02  0.1223515E+00
          2   -1    0    0  501    0  0.00000000000E+00  0.00000000000E+00  0.75564990941E+02  0.75564990941E+02  0.00000000000E+00 0. -1.
         -2   -1    0    0    0  501 -0.00000000000E+00 -0.00000000000E+00 -0.36576154532E+03  0.36576154532E+03  0.00000000000E+00 0.  1.
         23    2    1    2    0    0 -0.25094512959E+02 -0.10610029242E+03 -0.52498769942E+02  0.15143843446E+03  0.91052028825E+02 0.  0.
          5    1    1    2  502    0  0.25398558214E+02  0.12518677258E+01  0.42934690242E+01  0.26125853257E+02  0.41800000000E+01 0. -1.
         -5    1    1    2    0  502 -0.30404525491E+00  0.10484842470E+03 -0.24199125346E+03  0.26376224854E+03  0.41800000000E+01 0. -1.
        -11    1    3    3    0    0  0.22519637186E+02 -0.52019789597E+01 -0.29581876446E+02  0.37540405674E+02  0.00000000000E+00 0.  1.
         11    1    3    3    0    0 -0.47614150145E+02 -0.10089831346E+03 -0.22916893496E+02  0.11389802879E+03  0.00000000000E+00 0. -1.
</event>
<event>
 7    1  0.4687179E-006  0.9979762E+02  0.7561462E-02  0.1280722E+00
          2   -1    0    0  501    0  0.00000000000E+00  0.00000000000E+00  0.14111102563E+03  0.14111102563E+03  0.00000000000E+00 0. -1.
         -2   -1    0    0    0  501 -0.00000000000E+00 -0.00000000000E+00 -0.15317481932E+03  0.15317481932E+03  0.00000000000E+00 0.  1.
         23    2    1    2    0    0 -0.29916848188E+02  0.32256858152E+02  0.83124158200E+02  0.13105712248E+03  0.91273331119E+02 0.  0.
          5    1    1    2  502    0 -0.10714704602E+02 -0.72799085899E+02 -0.64852917607E+02  0.98172731064E+02  0.41800000000E+01 0.  1.
         -5    1    1    2    0  502  0.40631552790E+02  0.40542227747E+02 -0.30335034289E+02  0.65055991408E+02  0.41800000000E+01 0.  1.
        -11    1    3    3    0    0 -0.44283832956E+02  0.17132886560E+02  0.22498033263E+01  0.47535831518E+02  0.00000000000E+00 0.  1.
         11    1    3    3    0    0  0.14366984768E+02  0.15123971593E+02  0.80874354873E+02  0.83521290964E+02  0.00000000000E+00 0. -1.
</event>
<event>
 7    1  0.4687179E-006  0.1020088E+03  0.7561462E-02  0.1276128E+00
          2   -1    0    0  501    0  0.00000000000E+00  0.00000000000E+00  0.18571299887E+03  0.18571299887E+03  0.00000000000E+00 0. -1.
         -2   -1    0    0    0  501 -0.00000000000E+00 -0.00000000000E+00 -0.15746148600E+03  0.15746148600E+03  0.00000000000E+00 0.  1.
         23    2    1    2    0    0 -0.60921745733E+02 -0.18056789815E+02  0.13134347560E+03  0.16906710520E+03  0.85411186137E+02 0.  0.
          5    1    1    2  502    0 -0.34392622744E+02  0.27775231711E+02 -0.32782362989E+02  0.55194852287E+02  0.41800000000E+01 0. -1.
         -5    1    1    2    0  502  0.95314368476E+02 -0.97184418959E+01 -0.70309599746E+02  0.11891252738E+03  0.41800000000E+01 0. -1.
        -11    1    3    3    0    0 -0.30383365962E+02 -0.11442953394E+02  0.13383959592E+03  0.13772119498E+03  0.00000000000E+00 0. -1.
         11    1    3    3    0    0 -0.30538379771E+02 -0.66138364209E+01 -0.24961203203E+01  0.31345910226E+02  0.00000000000E+00 0.  1.
</event>
<event>
 7    1  0.4687179E-006  0.1121927E+03  0.7561462E-02  0.1256562E+00
         -2   -1    0    0    0  501 -0.00000000000E+00  0.00000000000E+00  0.25667164200E+02  0.25667164200E+02  0.00000000000E+00 0.  1.
          2   -1    0    0  501    0  0.00000000000E+00 -0.00000000000E+00 -0.68156338740E+03  0.68156338740E+03  0.00000000000E+00 0. -1.
         23    2    1    2    0    0  0.69759422543E+02  0.24191051638E+02 -0.33174134519E+03  0.35201664342E+03  0.91715937126E+02 0.  0.
          5    1    1    2  502    0  0.10284288566E+02  0.22006618373E+02 -0.19383232313E+03  0.19539319265E+03  0.41800000000E+01 0. -1.
         -5    1    1    2    0  502 -0.80043711108E+02 -0.46197670011E+02 -0.13032255488E+03  0.15982071553E+03  0.41800000000E+01 0. -1.
        -11    1    3    3    0    0  0.65615001291E+02 -0.15415300888E+02 -0.27194664590E+03  0.28017483490E+03  0.00000000000E+00 0. -1.
         11    1    3    3    0    0  0.41444212519E+01  0.39606352527E+02 -0.59794699292E+02  0.71841808520E+02  0.00000000000E+00 0.  1.
</event>
<event>
 7    1  0.4687179E-006  0.4063413E+03  0.7561462E-02  0.1041606E+00
          1   -1    0    0  501    0  0.00000000000E+00  0.00000000000E+00  0.67226502488E+03  0.67226502488E+03  0.00000000000E+00 0. -1.
         -1   -1    0    0    0  501 -0.00000000000E+00 -0.00000000000E+00 -0.28443481468E+03  0.28443481468E+03  0.00000000000E+00 0.  1.
         23    2    1    2    0    0 -0.15556430967E+03 -0.36538400634E+03  0.35207455707E+03  0.53881463124E+03  0.93053675742E+02 0.  0.
          5    1    1    2  502    0 -0.46247422273E+01  0.90099495779E+02 -0.24788841400E+02  0.93655039578E+02  0.41800000000E+01 0.  1.
         -5    1    1    2    0  502  0.16018905190E+03  0.27528451056E+03  0.60544494531E+02  0.32423016874E+03  0.41800000000E+01 0.  1.
        -11    1    3    3    0    0 -0.59000747371E+02 -0.23064804933E+03  0.16972164177E+03  0.29237825934E+03  0.00000000000E+00 0. -1.
         11    1    3    3    0    0 -0.96563562302E+02 -0.13473595701E+03  0.18235291530E+03  0.24643637190E+03  0.00000000000E+00 0.  1.
</event>
<event>
 7    1  0.4687179E-006  0.1440673E+03  0.7561462E-02  0.1207959E+00
          1   -1    0    0  501    0  0.00000000000E+00  0.00000000000E+00  0.26626896491E+02  0.26626896491E+02  0.00000000000E+00 0. -1.
         -1   -1    0    0    0  501 -0.00000000000E+00 -0.00000000000E+00 -0.11214421488E+04  0.11214421488E+04  0.00000000000E+00 0.  1.
         23    2    1    2    0    0  0.10064048169E+03 -0.58046314931E+02 -0.28853096353E+03  0.32390909664E+03  0.90383099844E+02 0.  0.
          5    1    1    2  502    0 -0.50401834964E+01  0.72215169658E+02 -0.39991171334E+03  0.40643238681E+03  0.41800000000E+01 0.  1.
         -5    1    1    2    0  502 -0.95600298191E+02 -0.14168854727E+02 -0.40637257541E+03  0.41772756182E+03  0.41800000000E+01 0.  1.
        -11    1    3    3    0    0  0.70694923379E+02 -0.26786278300E+02 -0.26300502184E+03  0.27365474308E+03  0.00000000000E+00 0.  1.
         11    1    3    3    0    0  0.29945558309E+02 -0.31260036631E+02 -0.25525941695E+02  0.50254353562E+02  0.00000000000E+00 0. -1.
</event>
<event>
 7    1  0.4687179E-006  0.1073811E+03  0.7561462E-02  0.1265498E+00
          2   -1    0    0  501    0  0.00000000000E+00  0.00000000000E+00  0.28385179611E+03  0.28385179611E+03  0.00000000000E+00 0. -1.
         -2   -1    0    0    0  501 -0.00000000000E+00 -0.00000000000E+00 -0.78570133747E+02  0.78570133747E+02  0.00000000000E+00 0.  1.
         23    2    1    2    0    0  0.11196620577E+02 -0.96958576245E+02  0.13002934118E+03  0.18681651782E+03  0.92013324820E+02 0.  0.
          5    1    1    2  502    0 -0.37528799921E+02  0.45561089955E+02  0.97107268699E+02  0.11371683154E+03  0.41800000000E+01 0. -1.
         -5    1    1    2    0  502  0.26332179344E+02  0.51397486290E+02 -0.21854947506E+02  0.61888580501E+02  0.41800000000E+01 0. -1.
        -11    1    3    3    0    0  0.92414966532E+01 -0.63358213919E+02  0.13384086594E+02  0.65412554647E+02  0.00000000000E+00 0.  1.
         11    1    3    3    0    0  0.19551239237E+01 -0.33600362326E+02  0.11664525458E+03  0.12140396317E+03  0.00000000000E+00 0. -1.
</event>
<event>
 7    1  0.4687179E-006  0.5931097E+02  0.7561462E-02  0.1400746E+00
          1   -1    0    0  501    0  0.00000000000E+00  0.00000000000E+00  0.33971382266E+02  0.33971382266E+02  0.00000000000E+00 0. -1.
         -1   -1    0    0    0  501 -0.00000000000E+00 -0.00000000000E+00 -0.46153735691E+03  0.46153735691E+03  0.00000000000E+00 0.  1.
         23    2    1    2    0    0  0.76237981593E+00  0.24789934576E+02 -0.69908685101E+02  0.11858843313E+03  0.92524970363E+02 0.  0.
          5    1    1    2  502    0  0.15795425047E+02 -0.40184887444E+02 -0.41846702617E+02  0.60273871215E+02  0.41800000000E+01 0. -1.
         -5    1    1    2    0  502 -0.16557804863E+02  0.15394952868E+02 -0.31581058692E+03  0.31664643483E+03  0.41800000000E+01 0.  1.
        -11    1    3    3    0    0  0.11134172052E+02  0.35581258635E+02  0.89335674945E+01  0.38338027877E+02  0.00000000000E+00 0.  1.
         11    1    3    3    0    0 -0.10371792236E+02 -0.10791324059E+02 -0.78842252595E+02  0.80250405254E+02  0.00000000000E+00 0. -1.
</event>
<event>
 7    1  0.4687179E-006  0.2101838E+03  0.7561462E-02  0.1141421E+00
          1   -1    0    0  501    0  0.00000000000E+00  0.00000000000E+00  0.13305112645E+03  0.13305112645E+03  0.00000000000E+00 0. -1.
         -1   -1    0    0    0  501 -0.00000000000E+00 -0.00000000000E+00 -0.37768977118E+03  0.37768977118E+03  0.00000000000E+00 0.  1.
         23    2    1    2    0    0  0.96523779368E+02  0.16554773786E+03 -0.72641910981E+02  0.22446613061E+03  0.91571300452E+02 0.  0.
          5    1    1    2  502    0  0.27613763337E+02 -0.38160117614E+02 -0.58562232724E+02  0.75270990451E+02  0.41800000000E+01 0.  1.
         -5    1    1    2    0  502 -0.12413754271E+03 -0.12738762025E+03 -0.11343450103E+03  0.21100377657E+03  0.41800000000E+01 0.  1.
        -11    1    3    3    0    0 -0.16470843219E+01  0.17152339686E+02  0.17882141136E+02  0.24833175695E+02  0.00000000000E+00 0. -1.
         11    1    3    3    0    0  0.98170863690E+02  0.14839539817E+03 -0.90524052118E+02  0.19963295492E+03  0.00000000000E+00 0.  1.
</event>
<event>
 7    1  0.4687179E-006  0.1452507E+03  0.7561462E-02  0.1206433E+00
         -1   -1    0    0    0  501 -0.00000000000E+00  0.00000000000E+00  0.53769444495E+02  0.53769444495E+02  0.00000000000E+00 0.  1.
          1   -1    0    0  501    0  0.00000000000E+00 -0.00000000000E+00 -0.61702483937E+03  0.61702483937E+03  0.00000000000E+00 0. -1.
         23    2    1    2    0    0 -0.20576463272E+02 -0.10476728510E+03 -0.44952938582E+03  0.47083815553E+03  0.90621879881E+02 0.  0.
          5    1    1    2  502    0  0.13958002468E+02  0.12655687806E+03 -0.58717436415E+02  0.14027358610E+03  0.41800000000E+01 0.  1.
         -5    1    1    2    0  502  0.66184608040E+01 -0.21789592961E+02 -0.55008572636E+02  0.59682542240E+02  0.41800000000E+01 0.  1.
        -11    1    3    3    0    0 -0.30763550635E+02  0.37230321432E+01 -0.92798073113E+02  0.97835266594E+02  0.00000000000E+00 0.  1.
         11    1    3    3    0    0  0.10187087362E+02 -0.10849031724E+03 -0.35673131271E+03  0.37300288893E+03  0.00000000000E+00 0. -1.
</event>
<event>
 7    1  0.4687179E-006  0.1037799E+03  0.7561462E-02  0.1272542E+00
         -1   -1    0    0    0  501 -0.00000000000E+00  0.00000000000E+00  0.11293036259E+03  0.11293036259E+03  0.00000000000E+00 0.  1.
          1   -1    0    0  501    0  0.00000000000E+00 -0.00000000000E+00 -0.14307375922E+03  0.14307375922E+03  0.00000000000E+00 0. -1.
         23    2    1    2    0    0  0.47095828901E+02 -0.16929613488E+02 -0.14604179922E+02  0.12038329943E+03  0.10850911390E+03 0.  0.
          5    1    1    2  502    0 -0.44521037991E+02  0.55508653812E+02  0.28590699189E+02  0.76799960625E+02  0.41800000000E+01 0.  1.
         -5    1    1    2    0  502 -0.25747909095E+01 -0.38579040325E+02 -0.44129915900E+02  0.58820861758E+02  0.41800000000E+01 0.  1.
        -11    1    3    3    0    0  0.42035918469E+02 -0.49207502652E+02 -0.42497716744E+02  0.77423850894E+02  0.00000000000E+00 0. -1.
         11    1    3    3    0    0  0.50599104323E+01  0.32277889164E+02  0.27893536822E+02  0.42959448541E+02  0.00000000000E+00 0.  1.
</event>
<event>
 7    1  0.4687179E-006  0.9735922E+02  0.7561462E-02  0.1285949E+00
          1   -1    0    0  501    0  0.00000000000E+00  0.00000000000E+00  0.13646778548E+03  0.13646778548E+03  0.00000000000E+00 0. -1.
         -1   -1    0    0    0  501 -0.00000000000E+00 -0.00000000000E+00 -0.13864672176E+03  0.13864672176E+03  0.00000000000E+00 0.  1.
         23    2    1    2    0    0  0.84139905055E+02  0.13544451297E+02  0.60452166756E+00  0.12372377175E+03  0.89689634106E+02 0.  0.
          5    1    1    2  502    0 -0.66713607981E+02 -0.29728388234E+02  0.53177611297E+02  0.90442320294E+02  0.41800000000E+01 0.  1.
         -5    1    1    2    0  502 -0.17426297074E+02  0.16183936937E+02 -0.55961069246E+02  0.60948415202E+02  0.41800000000E+01 0.  1.
        -11    1    3    3    0    0  0.78193094211E+02 -0.45922417801E+01 -0.33064755729E+02  0.85020742988E+02  0.00000000000E+00 0. -1.
         11    1    3    3    0    0  0.59468108448E+01  0.18136693077E+02  0.33669277397E+02  0.38703028763E+02  0.00000000000E+00 0.  1.
</event>
<event>
 7    1  0.4687179E-006  0.1240960E+03  0.7561462E-02  0.1236489E+00
         -2   -1    0    0    0  501 -0.00000000000E+00  0.00000000000E+00  0.20636156257E+02  0.20636156257E+02  0.00000000000E+00 0.  1.
          2   -1    0    0  501    0  0.00000000000E+00 -0.00000000000E+00 -0.79370240247E+03  0.79370240247E+03  0.00000000000E+00 0. -1.
         23    2    1    2    0    0  0.62062349691E+02  0.10605025652E+02 -0.42718053614E+03  0.44117536296E+03  0.90489162935E+02 0.  0.
          5    1    1    2  502    0  0.38363620904E+02 -0.19113312922E+00 -0.83309837292E+02  0.91813971324E+02  0.41800000000E+01 0.  1.
         -5    1    1    2    0  502 -0.10042597059E+03 -0.10413892522E+02 -0.26257587278E+03  0.28134922444E+03  0.41800000000E+01 0.  1.
        -11    1    3    3    0    0  0.81427455512E+02  0.24131961702E+02 -0.36251830603E+03  0.37233359275E+03  0.00000000000E+00 0. -1.
         11    1    3    3    0    0 -0.19365105821E+02 -0.13526936050E+02 -0.64662230113E+02  0.68841770209E+02  0.00000000000E+00 0.  1.
</event>
<event>
 7    1  0.4687179E-006  0.1189484E+03  0.7561462E-02  0.1244842E+00
         -1   -1    0    0    0  501 -0.00000000000E+00  0.00000000000E+00  0.35379001723E+03  0.35379001723E+03  0.00000000000E+00 0.  1.
          1   -1    0    0  501    0  0.00000000000E+00 -0.00000000000E+00 -0.52900335373E+02  0.52900335373E+02  0.00000000000E+00 0. -1.
         23    2    1    2    0    0 -0.44677727759E+02  0.71303261318E+02  0.11911523692E+03  0.17053561029E+03  0.88395137196E+02 0.  0.
          5    1    1    2  502    0  0.62580221573E+02 -0.97098447361E+02  0.11933792015E+03  0.16614272238E+03  0.41800000000E+01 0. -1.
         -5    1    1    2    0  502 -0.17902493814E+02  0.25795186043E+02  0.62436524789E+02  0.70012019936E+02  0.41800000000E+01 0. -1.
        -11    1    3    3    0    0 -0.15371343348E+02  0.54966033153E+02  0.12411826353E+03  0.13661217493E+03  0.00000000000E+00 0.  1.
         11    1    3    3    0    0 -0.29306384411E+02  0.16337228165E+02 -0.50030266170E+01  0.33923435361E+02  0.00000000000E+00 0. -1.
</event>
<event>
 7    1  0.4687179E-006  0.1091244E+03  0.7561462E-02  0.1262200E+00
          2   -1    0    0  501    0  0.00000000000E+00  0.00000000000E+00  0.44183324927E+03  0.44183324927E+03  0.00000000000E+00 0. -1.
         -2   -1    0    0    0  501 -0.00000000000E+00 -0.00000000000E+00 -0.28585548370E+02  0.28585548370E+02  0.00000000000E+00 0.  1.
         23    2    1    2    0    0  0.17173146330E+02 -0.19012790730E+02  0.20695574607E+03  0.22780721020E+03  0.91700823452E+02 0.  0.
          5    1    1    2  502    0 -0.64783541783E+02  0.33940989489E+02  0.90325430144E+02  0.11629726473E+03  0.41800000000E+01 0. -1.
         -5    1    1    2    0  502  0.47610395452E+02 -0.14928198760E+02  0.11596652469E+03  0.12631432271E+03  0.41800000000E+01 0. -1.
        -11    1    3    3    0    0  0.10895668714E+02 -0.56181122002E+02  0.11594776649E+03  0.12930165745E+03  0.00000000000E+00 0. -1.
         11    1    3    3    0    0  0.62774776167E+01  0.37168331273E+02  0.91007979577E+02  0.98505552745E+02  0.00000000000E+00 0.  1.
</event>
<event>
 7    1  0.4687179E-006  0.1169669E+03  0.7561462E-02  0.1248186E+00
          2   -1    0    0  501    0  0.00000000000E+00  0.00000000000E+00  0.11347044626E+03  0.11347044626E+03  0.00000000000E+00 0. -1.
         -2   -1    0    0    0  501 -0.00000000000E+00 -0.00000000000E+00 -0.19176668600E+03  0.19176668600E+03  0.00000000000E+00 0.  1.
         23    2    1    2    0    0 -0.72604292115E+02  0.48519358666E+02  0.12259158531E+02  0.12783047082E+03  0.92546371632E+02 0.  0.
          5    1    1    2  502    0  0.42148537364E+02 -0.72032255450E+02 -0.10665310853E+03  0.13548986304E+03  0.41800000000E+01 0. -1.
         -5    1    1    2    0  502  0.30455754751E+02  0.23512896784E+02  0.16097710262E+02  0.41916798402E+02  0.41800000000E+01 0. -1.
        -11    1    3    3    0    0 -0.81231304293E+02  0.22548152295E+02 -0.18863286374E+02  0.86387311232E+02  0.00000000000E+00 0.  1.
         11    1    3    3    0    0  0.86270121780E+01  0.25971206371E+02  0.31122444905E+02  0.41443159584E+02  0.00000000000E+00 0. -1.
</event>
<event>
 7    1  0.4687179E-006  0.9337064E+02  0.7561462E-02  0.1294889E+00
          1   -1    0    0  501    0  0.00000000000E+00  0.00000000000E+00  0.54161697357E+03  0.54161697357E+03  0.00000000000E+00 0. -1.
         -1   -1    0    0    0  501 -0.00000000000E+00 -0.00000000000E+00 -0.32288246406E+02  0.32288246406E+02  0.00000000000E+00 0.  1.
         23    2    1    2    0    0  0.66033057507E+02  0.23186381178E+02  0.22196877603E+03  0.25278040192E+03  0.98639855570E+02 0.  0.
          5    1    1    2  502    0 -0.33631658093E+02  0.32106318033E+02  0.23102675274E+03  0.23569628119E+03  0.41800000000E+01 0. -1.
         -5    1    1    2    0  502 -0.32401399414E+02 -0.55292699210E+02  0.56333198391E+02  0.85428536865E+02  0.41800000000E+01 0. -1.
        -11    1    3    3    0    0  0.56237345915E+01  0.13537766356E+02 -0.66653277386E+01  0.16103543167E+02  0.00000000000E+00 0.  1.
         11    1    3    3    0    0  0.60409322916E+02  0.96486148214E+01  0.22863410377E+03  0.23667685875E+03  0.00000000000E+00 0. -1.
</event>
<event>
 7    1  0.4687179E-006  0.2060272E+03  0.7561462E-02  0.1144751E+00
          1   -1    0    0  501    0  0.00000000000E+00  0.00000000000E+00  0.40921184175E+03  0.40921184175E+03  0.00000000000E+00 0. -1.
         -1   -1    0    0    0  501 -0.00000000000E+00 -0.00000000000E+00 -0.23204934185E+03  0.23204934185E+03  0.00000000000E+00 0.  1.
         23    2    1    2    0    0  0.11431605694E+02  0.69797469546E+01  0.23719267113E+03  0.25502458866E+03  0.92724209931E+02 0.  0.
          5    1    1    2  502    0  0.15533181611E+03  0.38879066315E+02  0.64913974260E+02  0.17283185860E+03  0.41800000000E+01 0. -1.
         -5    1    1    2    0  502 -0.16676342180E+03 -0.45858813269E+02 -0.12494414548E+03  0.21340473635E+03  0.41800000000E+01 0.  1.
        -11    1    3    3    0    0 -0.66535640998E+01  0.40361279608E+02  0.52947517186E+02  0.66908462716E+02  0.00000000000E+00 0.  1.
         11    1    3    3    0    0  0.18085169794E+02 -0.33381532653E+02  0.18424515394E+03  0.18811612594E+03  0.00000000000E+00 0. -1.
</event>
<event>
 7    1  0.4687179E-006  0.1576007E+03  0.7561462E-02  0.1191432E+00
         -1   -1    0    0    0  501 -0.00000000000E+00  0.00000000000E+00  0.31464619584E+02  0.31464619584E+02  0.00000000000E+00 0.  1.
          1   -1    0    0  501    0  0.00000000000E+00 -0.00000000000E+00 -0.10965642886E+04  0.10965642886E+04  0.00000000000E+00 0. -1.
         23    2    1    2    0    0 -0.12134505840E+03 -0.80339895241E+02 -0.61251128047E+03  0.63643650387E+03  0.93285758771E+02 0.  0.
          5    1    1    2  502    0  0.10492104805E+03  0.63231304847E+02 -0.45110954612E+03  0.46746542037E+03  0.41800000000E+01 0.  1.
         -5    1    1    2    0  502  0.16424010350E+02  0.17108590394E+02 -0.14788424656E+01  0.24126983987E+02  0.41800000000E+01 0.  1.
        -11    1    3    3    0    0 -0.13324926527E+03 -0.62694546511E+02 -0.57225729878E+03  0.59090133598E+03  0.00000000000E+00 0.  1.
         11    1    3    3    0    0  0.11904206864E+02 -0.17645348730E+02 -0.40253981690E+02  0.45535167890E+02  0.00000000000E+00 0. -1.
</event>
<event>
 7    1  0.4687179E-006  0.1021895E+03  0.7561462E-02  0.1275758E+00
          1   -1    0    0  501    0  0.00000000000E+00  0.00000000000E+00  0.53790760532E+03  0.53790760532E+03  0.00000000000E+00 0. -1.
         -1   -1    0    0    0  501 -0.00000000000E+00 -0.00000000000E+00 -0.30463585775E+02  0.30463585775E+02  0.00000000000E+00 0.  1.
         23    2    1    2    0    0 -0.66041443134E+02 -0.18222780489E+02  0.24959516236E+03  0.27367338668E+03  0.88914765715E+02 0.  0.
          5    1    1    2  502    0  0.17126885647E+02  0.58090447046E+02  0.53945565981E+02  0.81212232693E+02  0.41800000000E+01 0.  1.
         -5    1    1    2    0  502  0.48914557487E+02 -0.39867666557E+02  0.20390329120E+03  0.21348557172E+03  0.41800000000E+01 0.  1.
        -11    1    3    3    0    0 -0.26041993035E+02 -0.29027627692E+02  0.27430834380E+02  0.47678498775E+02  0.00000000000E+00 0.  1.
         11    1    3    3    0    0 -0.39999450099E+02  0.10804847203E+02  0.22216432798E+03  0.22599488790E+03  0.00000000000E+00 0. -1.
</event>
<event>
 7    1  0.4687179E-006  0.1236039E+03  0.7561462E-02  0.1237267E+00
          2   -1    0    0  501    0  0.00000000000E+00  0.00000000000E+00  0.32411000113E+03  0.32411000113E+03  0.00000000000E+00 0.  1.
         -2   -1    0    0    0  501 -0.00000000000E+00 -0.00000000000E+00 -0.75053107759E+02  0.75053107759E+02  0.00000000000E+00 0. -1.
         23    2    1    2    0    0 -0.30933749556E+02  0.91978964164E+02  0.18409685715E+03  0.22803903038E+03  0.93236901793E+02 0.  0.
          5    1    1    2  502    0  0.60026761589E+02 -0.87944994837E+02  0.79491346982E+01  0.10685595616E+03  0.41800000000E+01 0.  1.
         -5    1    1    2    0  502 -0.29093012033E+02 -0.40339693264E+01  0.57010901520E+02  0.64268122345E+02  0.41800000000E+01 0.  1.
        -11    1    3    3    0    0  0.15455728927E+02  0.18810734898E+02  0.11407773528E+03  0.11664670158E+03  0.00000000000E+00 0.  1.
         11    1    3    3    0    0 -0.46389478483E+02  0.73168229266E+02  0.70019121870E+02  0.11139232880E+03  0.00000000000E+00 0. -1.
</event>
<event>
 7    1  0.4687179E-006  0.1644080E+03  0.7561462E-02  0.1183808E+00
         -1   -1    0    0    0  501 -0.00000000000E+00  0.00000000000E+00  0.71786127111E+02  0.71786127111E+02  0.00000000000E+00 0.  1.
          1   -1    0    0  501    0  0.00000000000E+00 -0.00000000000E+00 -0.40627014439E+03  0.40627014439E+03  0.00000000000E+00 0. -1.
         23    2    1    2    0    0  0.12635572936E+03  0.32350839784E+02 -0.18382257997E+03  0.24277240219E+03  0.90196181619E+02 0.  0.
          5    1    1    2  502    0 -0.11370332546E+03  0.29418123737E+02 -0.99046176639E+02  0.15369284216E+03  0.41800000000E+01 0. -1.
         -5    1    1    2    0  502 -0.12652403900E+02 -0.61768963522E+02 -0.51615260671E+02  0.81591027161E+02  0.41800000000E+01 0. -1.
        -11    1    3    3    0    0  0.12354994376E+03  0.82329652712E+01 -0.11201998683E+03  0.16697559034E+03  0.00000000000E+00 0.  1.
         11    1    3    3    0    0  0.28057856002E+01  0.24117874513E+02 -0.71802593147E+02  0.75796811849E+02  0.00000000000E+00 0. -1.
</event>
<event>
 7    1  0.4687179E-006  0.1068177E+03  0.7561462E-02  0.1266579E+00
          1   -1    0    0  501    0  0.00000000000E+00  0.00000000000E+00  0.23889974434E+02  0.23889974434E+02  0.00000000000E+00 0. -1.
         -1   -1    0    0    0  501 -0.00000000000E+00 -0.00000000000E+00 -0.53287513157E+03  0.53287513157E+03  0.00000000000E+00 0.  1.
         23    2    1    2    0    0 -0.13659157341E+01 -0.24186398617E+02 -0.25549946265E+03  0.27306353310E+03  0.93257010959E+02 0.  0.
          5    1    1    2  502    0 -0.13348907094E+02  0.70430924241E+02 -0.10323158311E+03  0.12574951515E+03  0.41800000000E+01 0.  1.
         -5    1    1    2    0  502  0.14714822829E+02 -0.46244525624E+02 -0.15025411138E+03  0.15795205775E+03  0.41800000000E+01 0.  1.
        -11    1    3    3    0    0  0.42234626263E+02 -0.25796519414E+02 -0.10025636306E+03  0.11180591399E+03  0.00000000000E+00 0. -1.
         11    1    3    3    0    0 -0.43600541998E+02  0.16101207973E+01 -0.15524309959E+03  0.16125761911E+03  0.00000000000E+00 0.  1.
</event>
<event>
 7    1  0.4687179E-006  0.2441035E+03  0.7561462E-02  0.1117089E+00
         -2   -1    0    0    0  501 -0.00000000000E+00  0.00000000000E+00  0.39743309402E+02  0.39743309402E+02  0.00000000000E+00 0.  1.
          2   -1    0    0  501    0  0.00000000000E+00 -0.00000000000E+00 -0.16422287734E+04  0.16422287734E+04  0.00000000000E+00 0. -1.
         23    2    1    2    0    0 -0.70001796521E+02 -0.21899489376E+03 -0.84189821318E+03  0.87760656577E+03  0.92421144356E+02 0.  0.
          5    1    1    2  502    0  0.77117921762E+02  0.78740507453E+02 -0.45261565930E+03  0.46586011722E+03  0.41800000000E+01 0. -1.
         -5    1    1    2    0  502 -0.71161252408E+01  0.14025438630E+03 -0.30797159147E+03  0.33850539976E+03  0.41800000000E+01 0. -1.
        -11    1    3    3    0    0 -0.43054293344E+02 -0.48701274772E+02 -0.35935117359E+03  0.36518317637E+03  0.00000000000E+00 0.  1.
         11    1    3    3    0    0 -0.26947503178E+02 -0.17029361899E+03 -0.48254703959E+03  0.51242338940E+03  0.00000000000E+00 0. -1.
</event>
<event>
 7    1  0.4687179E-006  0.1809132E+03  0.7561462E-02  0.1166922E+00
          2   -1    0    0  501    0  0.00000000000E+00  0.00000000000E+00  0.64595440709E+03  0.64595440709E+03  0.00000000000E+00 0. -1.
         -2   -1    0    0    0  501 -0.00000000000E+00 -0.00000000000E+00 -0.64588792669E+02  0.64588792669E+02  0.00000000000E+00 0.  1.
         23    2    1    2    0    0  0.14775012560E+03 -0.34790129315E+02  0.41425732814E+03  0.45244622669E+03  0.10028958777E+03 0.  0.
          5    1    1    2  502    0  0.17833345259E+02  0.24547259612E+02  0.29295531122E+02  0.42382740606E+02  0.41800000000E+01 0. -1.
         -5    1    1    2    0  502 -0.16558347086E+03  0.10242869703E+02  0.13781275516E+03  0.21571423247E+03  0.41800000000E+01 0. -1.
        -11    1    3    3    0    0  0.66530978843E+02 -0.49215188002E+02  0.30203919787E+03  0.31317117192E+03  0.00000000000E+00 0. -1.
         11    1    3    3    0    0  0.81219146760E+02  0.14425058687E+02  0.11221813028E+03  0.13927505477E+03  0.00000000000E+00 0.  1.
</event>
<event>
 7    1  0.4687179E-006  0.8217043E+02  0.7561462E-02  0.1323003E+00
         -4   -1    0    0    0  501 -0.00000000000E+00  0.00000000000E+00  0.19277771208E+03  0.19277771208E+03  0.00000000000E+00 0.  1.
          4   -1    0    0  501    0  0.00000000000E+00 -0.00000000000E+00 -0.11260282657E+03  0.11260282657E+03  0.00000000000E+00 0. -1.
         23    2    1    2    0    0 -0.57017394308E+02 -0.20654493401E+02 -0.24147767347E+02  0.11337884113E+03  0.92704129339E+02 0.  0.
          5    1    1    2  502    0 -0.38869112582E+01 -0.10013707634E+02 -0.34989862147E+02  0.36839452666E+02  0.41800000000E+01 0. -1.
         -5    1    1    2    0  502  0.60904305567E+02  0.30668201035E+02  0.13931251500E+03  0.15516224485E+03  0.41800000000E+01 0.  1.
        -11    1    3    3    0    0 -0.53823050479E+02 -0.38622643452E+02  0.16976211528E+02  0.68387287619E+02  0.00000000000E+00 0.  1.
         11    1    3    3    0    0 -0.31943438294E+01  0.17968150051E+02 -0.41123978874E+02  0.44991553510E+02  0.00000000000E+00 0. -1.
</event>
<event>
 7    1  0.4687179E-006  0.2297032E+03  0.7561462E-02  0.1126849E+00
         -2   -1    0    0    0  501 -0.00000000000E+00  0.00000000000E+00  0.75783997553E+02  0.75783997553E+02  0.00000000000E+00 0.  1.
          2   -1    0    0  501    0  0.00000000000E+00 -0.00000000000E+00 -0.76952486072E+03  0.76952486072E+03  0.00000000000E+00 0. -1.
         23    2    1    2    0    0 -0.16047723972E+03 -0.14342239525E+03 -0.37286723148E+03  0.43918911629E+03  0.86799652219E+02 0.  0.
          5    1    1    2  502    0  0.13537538373E+03  0.74015291198E+02 -0.28463765320E+03  0.32379132766E+03  0.41800000000E+01 0. -1.
         -5    1    1    2    0  502  0.25101855992E+02  0.69407104054E+02 -0.36235978488E+02  0.82328414320E+02  0.41800000000E+01 0. -1.
        -11    1    3    3    0    0 -0.76630551571E+02 -0.12287023215E+03 -0.25227640721E+03  0.29088265850E+03  0.00000000000E+00 0. -1.
         11    1    3    3    0    0 -0.83846688154E+02 -0.20552163097E+02 -0.12059082427E+03  0.14830645778E+03  0.00000000000E+00 0.  1.
</event>
<event>
 7    1  0.4687179E-006  0.1493500E+03  0.7561462E-02  0.1201274E+00
         -2   -1    0    0    0  501 -0.00000000000E+00  0.00000000000E+00  0.88777339916E+02  0.88777339916E+02  0.00000000000E+00 0.  1.
          2   -1    0    0  501    0  0.00000000000E+00 -0.00000000000E+00 -0.30575398573E+03  0.30575398573E+03  0.00000000000E+00 0. -1.
         23    2    1    2    0    0 -0.10852207082E+03 -0.54305718659E+02 -0.12821644437E+03  0.19895200918E+03  0.91740364139E+02 0.  0.
          5    1    1    2  502    0 -0.15050199603E+02  0.87440853125E+01 -0.57402825620E+02  0.60129230206E+02  0.41800000000E+01 0. -1.
         -5    1    1    2    0  502  0.12357227042E+03  0.45561633346E+02 -0.31357375820E+02  0.13545008627E+03  0.41800000000E+01 0. -1.
        -11    1    3    3    0    0 -0.11971045706E+03 -0.62610449021E+02 -0.10205033109E+03  0.16930721169E+03  0.00000000000E+00 0.  1.
         11    1    3    3    0    0  0.11188386241E+02  0.83047303622E+01 -0.26166113289E+02  0.29644797482E+02  0.00000000000E+00 0. -1.
</event>
<event>
 7    1  0.4687179E-006  0.8497630E+02  0.7561462E-02  0.1315495E+00
         -2   -1    0    0    0  501 -0.00000000000E+00  0.00000000000E+00  0.34698781590E+02  0.34698781590E+02  0.00000000000E+00 0.  1.
          2   -1    0    0  501    0  0.00000000000E+00 -0.00000000000E+00 -0.47915564886E+03  0.47915564886E+03  0.00000000000E+00 0. -1.
         23    2    1    2    0    0 -0.22550669944E+02  0.51821972870E+02 -0.22587652982E+03  0.25017466262E+03  0.91504674790E+02 0.  0.
          5    1    1    2  502    0 -0.90135975129E+01  0.22959315130E+02 -0.16371982097E+03  0.16562012943E+03  0.41800000000E+01 0. -1.
         -5    1    1    2    0  502  0.31564267456E+02 -0.74781288000E+02 -0.54860516476E+02  0.98059638399E+02  0.41800000000E+01 0.  1.
        -11    1    3    3    0    0 -0.28417762429E+02  0.31128713907E+02 -0.22471568698E+03  0.22863443753E+03  0.00000000000E+00 0.  1.
         11    1    3    3    0    0  0.58670924857E+01  0.20693258963E+02 -0.11608428361E+01  0.21540225088E+02  0.00000000000E+00 0. -1.
</event>
<event>
 7    1  0.4687179E-006  0.1098529E+03  0.7561462E-02  0.1260842E+00
         -2   -1    0    0    0  501 -0.00000000000E+00  0.00000000000E+00  0.47371144526E+02  0.47371144526E+02  0.00000000000E+00 0.  1.
          2   -1    0    0  501    0  0.00000000000E+00 -0.00000000000E+00 -0.25985946390E+03  0.25985946390E+03  0.00000000000E+00 0. -1.
         23    2    1    2    0    0 -0.87033587673E+01  0.20406891620E+02 -0.10440014823E+03  0.14042803174E+03  0.91260349922E+02 0.  0.
          5    1    1    2  502    0 -0.14609808141E+02  0.49700806458E+02 -0.34109122802E+02  0.62165274188E+02  0.41800000000E+01 0. -1.
         -5    1    1    2    0  502  0.23313166908E+02 -0.70107698078E+02 -0.73979048340E+02  0.10463730250E+03  0.41800000000E+01 0. -1.
        -11    1    3    3    0    0 -0.40070931562E+02  0.40105633737E+02 -0.67407290264E+02  0.88078852141E+02  0.00000000000E+00 0.  1.
         11    1    3    3    0    0  0.31367572795E+02 -0.19698742116E+02 -0.36992857967E+02  0.52349179598E+02  0.00000000000E+00 0. -1.
</event>
<event>
 7    1  0.4687179E-006  0.1077500E+03  0.7561462E-02  0.1264794E+00
          1   -1    0    0  501    0  0.00000000000E+00  0.00000000000E+00  0.20040557792E+03  0.20040557792E+03  0.00000000000E+00 0. -1.
         -1   -1    0    0    0  501 -0.00000000000E+00 -0.00000000000E+00 -0.81743738148E+02  0.81743738148E+02  0.00000000000E+00 0.  1.
         23    2    1    2    0    0  0.43154551773E+02 -0.46097301177E+02  0.84191803682E+02  0.13784836093E+03  0.89031647688E+02 0.  0.
          5    1    1    2  502    0 -0.63632408256E+01  0.80857373049E+02  0.44389225511E+02  0.92554207639E+02  0.41800000000E+01 0. -1.
         -5    1    1    2    0  502 -0.36791310947E+02 -0.34760071872E+02 -0.99191894201E+01  0.51746747497E+02  0.41800000000E+01 0. -1.
        -11    1    3    3    0    0  0.56899996986E+00 -0.40548248652E+02  0.85770352669E+02  0.94873798420E+02  0.00000000000E+00 0.  1.
         11    1    3    3    0    0  0.42585551803E+02 -0.55490525256E+01 -0.15785489864E+01  0.42974562513E+02  0.00000000000E+00 0. -1.
</event>
<event>
 7    1  0.4687179E-006  0.9157782E+02  0.7561462E-02  0.1299075E+00
          2   -1    0    0  501    0  0.00000000000E+00  0.00000000000E+00  0.68357882544E+03  0.68357882544E+03  0.00000000000E+00 0. -1.
         -2   -1    0    0    0  501 -0.00000000000E+00 -0.00000000000E+00 -0.24580110590E+02  0.24580110590E+02  0.00000000000E+00 0.  1.
         23    2    1    2    0    0 -0.19972706496E+02 -0.64217879555E+02  0.31214115517E+03  0.33335201471E+03  0.95752910682E+02 0.  0.
          5    1    1    2  502    0  0.41749799137E+02  0.48290057036E+01  0.27808449534E+03  0.28127357496E+03  0.41800000000E+01 0. -1.
         -5    1    1    2    0  502 -0.21777092640E+02  0.59388873852E+02  0.68773064347E+02  0.93533346358E+02  0.41800000000E+01 0. -1.
        -11    1    3    3    0    0  0.11674844530E+02 -0.19835861729E+02  0.80039353497E+01  0.24368553228E+02  0.00000000000E+00 0.  1.
         11    1    3    3    0    0 -0.31647551027E+02 -0.44382017826E+02  0.30413721982E+03  0.30898346148E+03  0.00000000000E+00 0. -1.
</event>
<event>
 7    1  0.4687179E-006  0.1031681E+03  0.7561462E-02  0.1273772E+00
         -2   -1    0    0    0  501 -0.00000000000E+00  0.00000000000E+00  0.10193696907E+03  0.10193696907E+03  0.00000000000E+00 0. -1.
          2   -1    0    0  501    0  0.00000000000E+00 -0.00000000000E+00 -0.13987706698E+03  0.13987706698E+03  0.00000000000E+00 0.  1.
         23    2    1    2    0    0 -0.42343390979E+02  0.11103308295E+02 -0.41337496485E+02  0.10924451253E+03  0.91155519239E+02 0.  0.
          5    1    1    2  502    0  0.73091853997E+02 -0.35210007286E+01  0.40394477366E+02  0.83689920352E+02  0.41800000000E+01 0.  1.
         -5    1    1    2    0  502 -0.30748463018E+02 -0.75823075661E+01 -0.36997078797E+02  0.48879603164E+02  0.41800000000E+01 0.  1.
        -11    1    3    3    0    0  0.19382118345E+02 -0.23397701278E+02 -0.13552372481E+02  0.33268389448E+02  0.00000000000E+00 0.  1.
         11    1    3    3    0    0 -0.61725509323E+02  0.34501009573E+02 -0.27785124004E+02  0.75976123082E+02  0.00000000000E+00 0. -1.
</event>
<event>
 7    1  0.4687179E-006  0.1593100E+03  0.7561462E-02  0.1189478E+00
         -1   -1    0    0    0  501 -0.00000000000E+00  0.00000000000E+00  0.24812533388E+03  0.24812533388E+03  0.00000000000E+00 0.  1.
          1   -1    0    0  501    0  0.00000000000E+00 -0.00000000000E+00 -0.17850872485E+03  0.17850872485E+03  0.00000000000E+00 0. -1.
         23    2    1    2    0    0 -0.49026745351E+02  0.14095291259E+03 -0.32393164658E+02  0.17498553917E+03  0.85435803231E+02 0.  0.
          5    1    1    2  502    0  0.41760876069E+02 -0.13457649849E+03 -0.79428264367E+01  0.14119265423E+03  0.41800000000E+01 0. -1.
         -5    1    1    2    0  502  0.72658692826E+01 -0.63764140989E+01  0.10995260012E+03  0.11045586533E+03  0.41800000000E+01 0.  1.
        -11    1    3    3    0    0  0.20260996306E+02  0.37147891027E+02 -0.26735185094E+02  0.50052411541E+02  0.00000000000E+00 0.  1.
         11    1    3    3    0    0 -0.69287741658E+02  0.10380502156E+03 -0.56579795636E+01  0.12493312763E+03  0.00000000000E+00 0. -1.
</event>
<event>
 7    1  0.4687179E-006  0.1284427E+03  0.7561462E-02  0.1229785E+00
         -2   -1    0    0    0  501 -0.00000000000E+00  0.00000000000E+00  0.42265944699E+02  0.42265944699E+02  0.00000000000E+00 0.  1.
          2   -1    0    0  501    0  0.00000000000E+00 -0.00000000000E+00 -0.57758626550E+03  0.57758626550E+03  0.00000000000E+00 0. -1.
         23    2    1    2    0    0  0.10985853326E+03  0.12521015681E+02 -0.27382295012E+03  0.30960160085E+03  0.92997150909E+02 0.  0.
          5    1    1    2  502    0 -0.39413101157E+02  0.20815574232E+02 -0.86030954550E+01  0.45586909578E+02  0.41800000000E+01 0. -1.
         -5    1    1    2    0  502 -0.70445432100E+02 -0.33336589913E+02 -0.25289427523E+03  0.26466369976E+03  0.41800000000E+01 0. -1.
        -11    1    3    3    0    0  0.10516302381E+02  0.31255468037E+02 -0.26135957871E+02  0.42078322112E+02  0.00000000000E+00 0.  1.
         11    1    3    3    0    0  0.99342230877E+02 -0.18734452356E+02 -0.24768699224E+03  0.26752327874E+03  0.00000000000E+00 0. -1.
</event>
<event>
 7    1  0.4687179E-006  0.7453238E+02  0.7561462E-02  0.1345325E+00
          2   -1    0    0  501    0  0.00000000000E+00  0.00000000000E+00  0.11405360607E+03  0.11405360607E+03  0.00000000000E+00 0. -1.
         -2   -1    0    0    0  501 -0.00000000000E+00 -0.00000000000E+00 -0.13386596926E+03  0.13386596926E+03  0.00000000000E+00 0.  1.
         23    2    1    2    0    0  0.54401326548E+01  0.12312609037E+02  0.45179076149E+02  0.10631121967E+03  0.95287623133E+02 0.  0.
          5    1    1    2  502    0 -0.14336259144E+02 -0.50364859305E+02  0.13138807673E+02  0.54150235883E+02  0.41800000000E+01 0. -1.
         -5    1    1    2    0  502  0.88961264890E+01  0.38052250268E+02 -0.78130247006E+02  0.87458119773E+02  0.41800000000E+01 0. -1.
        -11    1    3    3    0    0  0.18848874885E+02 -0.16755603616E+02  0.64268592802E+02  0.69039715799E+02  0.00000000000E+00 0. -1.
         11    1    3    3    0    0 -0.13408742230E+02  0.29068212653E+02 -0.19089516653E+02  0.37271503874E+02  0.00000000000E+00 0.  1.
</event>
<event>
 7    1  0.4687179E-006  0.1238103E+03  0.7561462E-02  0.1236940E+00
         -2   -1    0    0    0  501 -0.00000000000E+00  0.00000000000E+00  0.27442279156E+02  0.27442279156E+02  0.00000000000E+00 0.  1.
          2   -1    0    0  501    0  0.00000000000E+00 -0.00000000000E+00 -0.74872951244E+03  0.74872951244E+03  0.00000000000E+00 0. -1.
         23    2    1    2    0    0  0.12353393385E+02 -0.53207196341E+02 -0.49739951553E+03  0.50725343677E+03  0.83163447470E+02 0.  0.
          5    1    1    2  502    0 -0.33875515700E+02  0.95074991692E+02 -0.16421284979E+03  0.19279558358E+03  0.41800000000E+01 0. -1.
         -5    1    1    2    0  502  0.21522122315E+02 -0.41867795351E+02 -0.59674867962E+02  0.76122771251E+02  0.41800000000E+01 0.  1.
        -11    1    3    3    0    0  0.45966593915E+02 -0.45870957367E+02 -0.33833505649E+03  0.34451078784E+03  0.00000000000E+00 0. -1.
         11    1    3    3    0    0 -0.33613200529E+02 -0.73362389735E+01 -0.15906445904E+03  0.16274264893E+03  0.00000000000E+00 0.  1.
</event>
<event>
 7    1  0.4687179E-006  0.1623501E+03  0.7561462E-02  0.1186069E+00
         -1   -1    0    0    0  501 -0.00000000000E+00  0.00000000000E+00  0.18163416760E+03  0.18163416760E+03  0.00000000000E+00 0.  1.
          1   -1    0    0  501    0  0.00000000000E+00 -0.00000000000E+00 -0.17169190298E+03  0.17169190298E+03  0.00000000000E+00 0. -1.
         23    2    1    2    0    0  0.35627947480E+01  0.13737355099E+03 -0.18184042412E+02  0.16538227695E+03  0.90202284411E+02 0.  0.
          5    1    1    2  502    0 -0.47090455641E+02 -0.82104706270E+02  0.58340839615E+02  0.11126463846E+03  0.41800000000E+01 0. -1.
         -5    1    1    2    0  502  0.43527660893E+02 -0.55268844719E+02 -0.30214532582E+02  0.76679155176E+02  0.41800000000E+01 0. -1.
        -11    1    3    3    0    0 -0.34434353414E+02  0.30302950079E+02 -0.23710384592E+02  0.51635025090E+02  0.00000000000E+00 0.  1.
         11    1    3    3    0    0  0.37997148162E+02  0.10707060091E+03  0.55263421805E+01  0.11374725186E+03  0.00000000000E+00 0. -1.
</event>
<event>
 7    1  0.4687179E-006  0.1834364E+03  0.7561462E-02  0.1164518E+00
          1   -1    0    0  501    0  0.00000000000E+00  0.00000000000E+00  0.66960895246E+03  0.66960895246E+03  0.00000000000E+00 0. -1.
         -1   -1    0    0    0  501 -0.00000000000E+00 -0.00000000000E+00 -0.62448807137E+02  0.62448807137E+02  0.00000000000E+00 0.  1.
         23    2    1    2    0    0  0.59299929914E+02 -0.16136587902E+03  0.32715727382E+03  0.38048302423E+03  0.90443470247E+02 0.  0.
          5    1    1    2  502    0 -0.35208652382E+02  0.11794266827E+03  0.27521112827E+03  0.30151079537E+03  0.41800000000E+01 0.  1.
         -5    1    1    2    0  502 -0.24091277532E+02  0.43423210754E+02  0.47917432339E+01  0.50063940002E+02  0.41800000000E+01 0.  1.
        -11    1    3    3    0    0 -0.22289144855E+02 -0.58403251799E+02  0.11674226006E+03  0.13242545482E+03  0.00000000000E+00 0.  1.
         11    1    3    3    0    0  0.81589074768E+02 -0.10296262722E+03  0.21041501376E+03  0.24805756941E+03  0.00000000000E+00 0. -1.
</event>
<event>
 7    1  0.4687179E-006  0.9469409E+02  0.7561462E-02  0.1291867E+00
         -2   -1    0    0    0  501 -0.00000000000E+00  0.00000000000E+00  0.13782007759E+03  0.13782007759E+03  0.00000000000E+00 0.  1.
          2   -1    0    0  501    0  0.00000000000E+00 -0.00000000000E+00 -0.76839139343E+02  0.76839139343E+02  0.00000000000E+00 0. -1.
         23    2    1    2    0    0 -0.15903252377E+01 -0.43920657803E+01  0.20980270895E+02  0.91611293291E+02  0.89054129132E+02 0.  0.
          5    1    1    2  502    0  0.49871332628E+02  0.30338774757E+02  0.70222771299E+01  0.58943836387E+02  0.41800000000E+01 0. -1.
         -5    1    1    2    0  502 -0.48281007390E+02 -0.25946708977E+02  0.32978390222E+02  0.64104087257E+02  0.41800000000E+01 0.  1.
        -11    1    3    3    0    0 -0.23016780913E+02  0.28502875251E+02 -0.13813878279E+02  0.39153663102E+02  0.00000000000E+00 0.  1.
         11    1    3    3    0    0  0.21426455675E+02 -0.32894941031E+02  0.34794149175E+02  0.52457630189E+02  0.00000000000E+00 0. -1.
</event>
<event>
 7    1  0.5966482E-006  0.1555218E+03  0.7561462E-02  0.1193847E+00
          2   -1    0    0  501    0  0.00000000000E+00  0.00000000000E+00  0.12698804987E+04  0.12698804987E+04  0.00000000000E+00 0.  1.
         -2   -1    0    0    0  501 -0.00000000000E+00 -0.00000000000E+00 -0.24190585243E+02  0.24190585243E+02  0.00000000000E+00 0. -1.
         23    2    1    2    0    0 -0.59976683755E+02 -0.10956345124E+03  0.80180830262E+03  0.81628445741E+03  0.88444382617E+02 0.  0.
          5    1    1    2  502    0  0.49275087529E+02  0.14778344497E+01  0.25593300894E+03  0.26067104886E+03  0.41800000000E+01 0.  1.
         -5    1    1    2    0  502  0.10701596227E+02  0.10808561679E+03  0.18794860193E+03  0.21711557772E+03  0.41800000000E+01 0.  1.
        -11    1    3    3    0    0 -0.29710742333E+02  0.85732460981E+01  0.14712095458E+03  0.15033563794E+03  0.00000000000E+00 0. -1.
         11    1    3    3    0    0 -0.30265941423E+02 -0.11813669734E+03  0.65468734804E+03  0.66594881947E+03  0.00000000000E+00 0.  1.
</event>
<event>
 7    1  0.4687179E-006  0.1276312E+03  0.7561462E-02  0.1231013E+00
          2   -1    0    0  501    0  0.00000000000E+00  0.00000000000E+00  0.31640987740E+02  0.31640987740E+02  0.00000000000E+00 0.  1.
         -2   -1    0    0    0  501 -0.00000000000E+00 -0.00000000000E+00 -0.68285198560E+03  0.68285198560E+03  0.00000000000E+00 0. -1.
         23    2    1    2    0    0  0.85885820469E+02 -0.46951795699E+02 -0.30432512004E+03  0.33297290342E+03  0.93146822008E+02 0.  0.
          5    1    1    2  502    0  0.20310584283E+02  0.96671382477E+01 -0.77261849151E+01  0.24148286258E+02  0.41800000000E+01 0. -1.
         -5    1    1    2    0  502 -0.10619640475E+03  0.37284657452E+02 -0.33915969290E+03  0.35737178365E+03  0.41800000000E+01 0. -1.
        -11    1    3    3    0    0  0.30178691126E+02 -0.55714033451E+02 -0.82116903806E+02  0.10372074437E+03  0.00000000000E+00 0.  1.
         11    1    3    3    0    0  0.55707129342E+02  0.87622377517E+01 -0.22220821624E+03  0.22925215906E+03  0.00000000000E+00 0. -1.
</event>
<event>
 7    1  0.4687179E-006  0.7311956E+02  0.7561462E-02  0.1349795E+00
          1   -1    0    0  501    0  0.00000000000E+00  0.00000000000E+00  0.16319508049E+03  0.16319508049E+03  0.00000000000E+00 0.  1.
         -1   -1    0    0    0  501 -0.00000000000E+00 -0.00000000000E+00 -0.76492105530E+02  0.76492105530E+02  0.00000000000E+00 0. -1.
         23    2    1    2    0    0 -0.19905883606E+00  0.28745871483E+01  0.67011803939E+02  0.11302229420E+03  0.90967874785E+02 0.  0.
          5    1    1    2  502    0  0.26603023828E+02  0.36948028255E+02 -0.32261948397E+02  0.55956977966E+02  0.41800000000E+01 0. -1.
         -5    1    1    2    0  502 -0.26403964992E+02 -0.39822615403E+02  0.51953119420E+02  0.70707913859E+02  0.41800000000E+01 0. -1.
        -11    1    3    3    0    0  0.21176569473E+02 -0.13945169259E+02  0.79241763882E+02  0.83199591246E+02  0.00000000000E+00 0.  1.
         11    1    3    3    0    0 -0.21375628309E+02  0.16819756407E+02 -0.12229959943E+02  0.29822702952E+02  0.00000000000E+00 0. -1.
</event>
<event>
 7    1  0.4687179E-006  0.1258872E+03  0.7561462E-02  0.1233689E+00
          3   -1    0    0  501    0  0.00000000000E+00  0.00000000000E+00  0.11587509381E+04  0.11587509381E+04  0.00000000000E+00 0. -1.
         -3   -1    0    0    0  501 -0.00000000000E+00 -0.00000000000E+00 -0.14172351379E+02  0.14172351379E+02  0.00000000000E+00 0.  1.
         23    2    1    2    0    0 -0.63318464063E+02  0.96598241493E+01  0.59666228417E+03  0.60727280217E+03  0.93122686901E+02 0.  0.
          5    1    1    2  502    0  0.82318033805E+02  0.36710097478E+02  0.34808422364E+03  0.35958863872E+03  0.41800000000E+01 0. -1.
         -5    1    1    2    0  502 -0.18999569742E+02 -0.46369921628E+02  0.19983207893E+03  0.20606184861E+03  0.41800000000E+01 0. -1.
        -11    1    3    3    0    0  0.21250050177E+02 -0.11390587089E+02  0.90178420894E+02  0.93345903508E+02  0.00000000000E+00 0. -1.
         11    1    3    3    0    0 -0.84568514239E+02  0.21050411238E+02  0.50648386327E+03  0.51392689866E+03  0.00000000000E+00 0.  1.
</event>
<event>
 7    1  0.4687179E-006  0.1042348E+03  0.7561462E-02  0.1271635E+00
         -1   -1    0    0    0  501 -0.00000000000E+00  0.00000000000E+00  0.22322636690E+02  0.22322636690E+02  0.00000000000E+00 0.  1.
          1   -1    0    0  501    0  0.00000000000E+00 -0.00000000000E+00 -0.59941346810E+03  0.59941346810E+03  0.00000000000E+00 0. -1.
         23    2    1    2    0    0 -0.12683239024E+02 -0.32060097712E+02 -0.29469880863E+03  0.31096080435E+03  0.93061912792E+02 0.  0.
          5    1    1    2  502    0 -0.48544540196E+02  0.37282079724E+02 -0.91268382447E+02  0.10997234146E+03  0.41800000000E+01 0.  1.
         -5    1    1    2    0  502  0.61227779220E+02 -0.52219820112E+01 -0.19112364033E+03  0.20080295899E+03  0.41800000000E+01 0.  1.
        -11    1    3    3    0    0  0.18196804856E+02 -0.47597622648E+02 -0.90529872448E+02  0.10388606834E+03  0.00000000000E+00 0.  1.
         11    1    3    3    0    0 -0.30880043880E+02  0.15537524935E+02 -0.20416893619E+03  0.20707473601E+03  0.00000000000E+00 0. -1.
</event>
<event>
 7    1  0.4687179E-006  0.1655873E+03  0.7561462E-02  0.1182529E+00
         -2   -1    0    0    0  501 -0.00000000000E+00  0.00000000000E+00  0.10142088805E+04  0.10142088805E+04  0.00000000000E+00 0.  1.
          2   -1    0    0  501    0  0.00000000000E+00 -0.00000000000E+00 -0.32574512842E+02  0.32574512842E+02  0.00000000000E+00 0. -1.
         23    2    1    2    0    0 -0.83041694104E+02 -0.11040411406E+03  0.34238376744E+03  0.38092040030E+03  0.93748150885E+02 0.  0.
          5    1    1    2  502    0 -0.14602602887E+02 -0.10733239516E+02  0.17989810988E+03  0.18085696221E+03  0.41800000000E+01 0.  1.
         -5    1    1    2    0  502  0.97644296991E+02  0.12113735357E+03  0.45935249030E+03  0.48500603079E+03  0.41800000000E+01 0.  1.
        -11    1    3    3    0    0 -0.96549187815E+02 -0.87299600311E+02  0.21981294778E+03  0.25546173469E+03  0.00000000000E+00 0. -1.
         11    1    3    3    0    0  0.13507493711E+02 -0.23104513747E+02  0.12257081966E+03  0.12545866560E+03  0.00000000000E+00 0.  1.
</event>
<event>
 7    1  0.4687179E-006  0.8605713E+02  0.7561462E-02  0.1312691E+00
          1   -1    0    0  501    0  0.00000000000E+00  0.00000000000E+00  0.11178134921E+03  0.11178134921E+03  0.00000000000E+00 0. -1.
         -1   -1    0    0    0  501 -0.00000000000E+00 -0.00000000000E+00 -0.15263053548E+03  0.15263053548E+03  0.00000000000E+00 0.  1.
         23    2    1    2    0    0 -0.43983312423E+02 -0.27732830412E+01  0.40447543020E+02  0.10886077895E+03  0.90952969089E+02 0.  0.
          5    1    1    2  502    0 -0.64683540818E+01  0.33365997645E+02  0.18963028568E+02  0.39143304099E+02  0.41800000000E+01 0. -1.
         -5    1    1    2    0  502  0.50451666505E+02 -0.30592714603E+02 -0.10025975785E+03  0.11640780165E+03  0.41800000000E+01 0. -1.
        -11    1    3    3    0    0 -0.43458528628E+01 -0.30205408324E+02 -0.16142672560E+02  0.34523021399E+02  0.00000000000E+00 0.  1.
         11    1    3    3    0    0 -0.39637459560E+02  0.27432125283E+02  0.56590215580E+02  0.74337757548E+02  0.00000000000E+00 0. -1.
</event>
<event>
 7    1  0.4687179E-006  0.1145921E+03  0.7561462E-02  0.1252295E+00
          1   -1    0    0  501    0  0.00000000000E+00  0.00000000000E+00  0.38637097134E+03  0.38637097134E+03  0.00000000000E+00 0. -1.
         -1   -1    0    0    0  501 -0.00000000000E+00 -0.00000000000E+00 -0.13056194748E+03  0.13056194748E+03  0.00000000000E+00 0.  1.
         23    2    1    2    0    0 -0.30970989614E+02  0.45261996087E+02  0.34416910900E+03  0.36178051937E+03  0.97082017509E+02 0.  0.
          5    1    1    2  502    0 -0.37223694518E+02 -0.35275793127E+02 -0.13261023644E+02  0.53134848851E+02  0.41800000000E+01 0. -1.
         -5    1    1    2    0  502  0.68194684133E+02 -0.99862029606E+01 -0.75099061489E+02  0.10201755060E+03  0.41800000000E+01 0.  1.
        -11    1    3    3    0    0 -0.61681536446E+02  0.47556453094E+02  0.20627720823E+03  0.22049153001E+03  0.00000000000E+00 0. -1.
         11    1    3    3    0    0  0.30710546831E+02 -0.22944570067E+01  0.13789190077E+03  0.14128898937E+03  0.00000000000E+00 0.  1.
</event>
<event>
 7    1  0.4687179E-006  0.9453619E+02  0.7561462E-02  0.1292224E+00
         -1   -1    0    0    0  501 -0.00000000000E+00  0.00000000000E+00  0.66316468553E+02  0.66316468553E+02  0.00000000000E+00 0.  1.
          1   -1    0    0  501    0  0.00000000000E+00 -0.00000000000E+00 -0.19385952430E+03  0.19385952430E+03  0.00000000000E+00 0. -1.
         23    2    1    2    0    0 -0.81735214057E+01 -0.18763180524E+02 -0.82613254309E+02  0.12569205967E+03  0.92491516808E+02 0.  0.
          5    1    1    2  502    0  0.22643336754E+01  0.72192556934E+02 -0.19873209306E+02  0.75028723378E+02  0.41800000000E+01 0.  1.
         -5    1    1    2    0  502  0.59091877303E+01 -0.53429376410E+02 -0.25056592128E+02  0.59455209799E+02  0.41800000000E+01 0.  1.
        -11    1    3    3    0    0  0.53250845155E+01 -0.38515484881E+02  0.82607346409E+00  0.38890635095E+02  0.00000000000E+00 0.  1.
         11    1    3    3    0    0 -0.13498605921E+02  0.19752304357E+02 -0.83439327773E+02  0.86801424576E+02  0.00000000000E+00 0. -1.
</event>
<event>
 7    1  0.4687179E-006  0.1765703E+03  0.7561462E-02  0.1171164E+00
          1   -1    0    0  501    0  0.00000000000E+00  0.00000000000E+00  0.40159889162E+03  0.40159889162E+03  0.00000000000E+00 0. -1.
         -1   -1    0    0    0  501 -0.00000000000E+00 -0.00000000000E+00 -0.12797154446E+03  0.12797154446E+03  0.00000000000E+00 0.  1.
         23    2    1    2    0    0  0.71647929720E+02 -0.12155886518E+03  0.29594427554E+03  0.33971631722E+03  0.88961668290E+02 0.  0.
          5    1    1    2  502    0  0.25347363954E+02 -0.69873993232E+01  0.29858249949E+01  0.26789926458E+02  0.41800000000E+01 0.  1.
         -5    1    1    2    0  502 -0.96995293674E+02  0.12854626450E+03 -0.25302753374E+02  0.16306419239E+03  0.41800000000E+01 0.  1.
        -11    1    3    3    0    0 -0.19344871819E+02 -0.34180541707E+02  0.90134700893E+02  0.98319874910E+02  0.00000000000E+00 0. -1.
         11    1    3    3    0    0  0.90992801539E+02 -0.87378323473E+02  0.20580957465E+03  0.24139644231E+03  0.00000000000E+00 0.  1.
</event>
<event>
 6    1  0.4687179E-006  0.8523784E+02  0.7561462E-02  0.1314812E+00
         -1   -1    0    0    0  501 -0.00000000000E+00  0.00000000000E+00  0.10026074874E+03  0.10026074874E+03  0.00000000000E+00 0.  1.
          1   -1    0    0  501    0  0.00000000000E+00 -0.00000000000E+00 -0.13170731333E+03  0.13170731333E+03  0.00000000000E+00 0. -1.
          5    1    1    2  502    0 -0.42174228813E+01 -0.36106725539E+02  0.48797715381E+02  0.60993210370E+02  0.41800000000E+01 0.  1.
         -5    1    1    2    0  502  0.54454733712E+02  0.54749392737E+02 -0.16039575198E+02  0.78978189402E+02  0.41800000000E+01 0.  1.
        -11    1    1    2    0    0 -0.59352944182E+01 -0.96759657166E+01 -0.38197254838E+02  0.39848240984E+02  0.00000000000E+00 0.  1.
         11    1    1    2    0    0 -0.44302016412E+02 -0.89667014824E+01 -0.26007449933E+02  0.52148421315E+02  0.00000000000E+00 0. -1.
</event>
<event>
 7    1  0.4687179E-006  0.1205670E+03  0.7561462E-02  0.1242165E+00
         -1   -1    0    0    0  501 -0.00000000000E+00  0.00000000000E+00  0.17743766234E+03  0.17743766234E+03  0.00000000000E+00 0.  1.
          1   -1    0    0  501    0  0.00000000000E+00 -0.00000000000E+00 -0.10539712520E+03  0.10539712520E+03  0.00000000000E+00 0. -1.
         23    2    1    2    0    0  0.66101127746E+02  0.39042774162E+01 -0.23315559859E+02  0.11216153243E+03  0.87475662635E+02 0.  0.
          5    1    1    2  502    0  0.13111669351E+02 -0.45314538448E+02  0.54805269714E+02  0.72432128620E+02  0.41800000000E+01 0. -1.
         -5    1    1    2    0  502 -0.79212797097E+02  0.41410261032E+02  0.40550827285E+02  0.98241126501E+02  0.41800000000E+01 0. -1.
        -11    1    3    3    0    0  0.82776878031E+02  0.15189377857E+02 -0.39914440586E+01  0.84253548067E+02  0.00000000000E+00 0.  1.
         11    1    3    3    0    0 -0.16675750285E+02 -0.11285100440E+02 -0.19324115801E+02  0.27907984360E+02  0.00000000000E+00 0. -1.
</event>
<event>
 7    1  0.4687179E-006  0.1055555E+03  0.7561462E-02  0.1269029E+00
         -2   -1    0    0    0  501 -0.00000000000E+00  0.00000000000E+00  0.32067282869E+03  0.32067282869E+03  0.00000000000E+00 0.  1.
          2   -1    0    0  501    0  0.00000000000E+00 -0.00000000000E+00 -0.54054490215E+02  0.54054490215E+02  0.00000000000E+00 0. -1.
         23    2    1    2    0    0  0.32414585095E+02  0.67665415822E+02  0.11112426478E+03  0.16152633516E+03  0.90071310097E+02 0.  0.
          5    1    1    2  502    0 -0.35397499662E+02  0.21118968214E+02  0.10033270421E+03  0.10855007017E+03  0.41800000000E+01 0.  1.
         -5    1    1    2    0  502  0.29829145676E+01 -0.88784384036E+02  0.55161369491E+02  0.10465091357E+03  0.41800000000E+01 0.  1.
        -11    1    3    3    0    0  0.24321058850E+02  0.17571640205E+02  0.10641586621E+03  0.11056497196E+03  0.00000000000E+00 0.  1.
         11    1    3    3    0    0  0.80935262447E+01  0.50093775617E+02  0.47083985725E+01  0.50961363205E+02  0.00000000000E+00 0. -1.
</event>
<event>
 7    1  0.4687179E-006  0.1231921E+03  0.7561462E-02  0.1237922E+00
          2   -1    0    0  501    0  0.00000000000E+00  0.00000000000E+00  0.22687441937E+03  0.22687441937E+03  0.00000000000E+00 0. -1.
         -2   -1    0    0    0  501 -0.00000000000E+00 -0.00000000000E+00 -0.13606102771E+03  0.13606102771E+03  0.00000000000E+00 0.  1.
         23    2    1    2    0    0 -0.29157989494E+02  0.10836484448E+03  0.12250154468E+03  0.19195111168E+03  0.96153382449E+02 0.  0.
          5    1    1    2  502    0  0.41008089303E+01  0.10295131333E+01 -0.55803350454E+02  0.56119184358E+02  0.41800000000E+01 0. -1.
         -5    1    1    2    0  502  0.25057180564E+02 -0.10939435761E+03  0.24115197431E+02  0.11486515103E+03  0.41800000000E+01 0. -1.
        -11    1    3    3    0    0 -0.45531024980E+02  0.50491487363E+02  0.16322129437E+02  0.69920500865E+02  0.00000000000E+00 0.  1.
         11    1    3    3    0    0  0.16373035485E+02  0.57873357114E+02  0.10617941524E+03  0.12203061082E+03  0.00000000000E+00 0. -1.
</event>
<event>
 7    1  0.4687179E-006  0.1220004E+03  0.7561462E-02  0.1239833E+00
          3   -1    0    0  501    0  0.00000000000E+00  0.00000000000E+00  0.12072402420E+02  0.12072402420E+02  0.00000000000E+00 0. -1.
         -3   -1    0    0    0  501 -0.00000000000E+00 -0.00000000000E+00 -0.14902777179E+04  0.14902777179E+04  0.00000000000E+00 0.  1.
         23    2    1    2    0    0  0.64914164395E+02  0.20264220844E+02 -0.45351092356E+03  0.46781109062E+03  0.92469299412E+02 0.  0.
          5    1    1    2  502    0 -0.67911869211E+02 -0.66317819223E+02 -0.62792673020E+03  0.63507442558E+03  0.41800000000E+01 0. -1.
         -5    1    1    2    0  502  0.29977048158E+01  0.46053598379E+02 -0.39676766169E+03  0.39946460409E+03  0.41800000000E+01 0. -1.
        -11    1    3    3    0    0 -0.22669135320E+01  0.34000870392E+02 -0.65977441323E+02  0.74257799913E+02  0.00000000000E+00 0. -1.
         11    1    3    3    0    0  0.67181077927E+02 -0.13736649547E+02 -0.38753348223E+03  0.39355329070E+03  0.00000000000E+00 0.  1.
</event>
<event>
 7    1  0.4687179E-006  0.1122694E+03  0.7561462E-02  0.1256424E+00
          1   -1    0    0  501    0  0.00000000000E+00  0.00000000000E+00  0.33384413759E+03  0.33384413759E+03  0.00000000000E+00 0. -1.
         -1   -1    0    0    0  501 -0.00000000000E+00 -0.00000000000E+00 -0.63797355570E+02  0.63797355570E+02  0.00000000000E+00 0.  1.
         23    2    1    2    0    0 -0.73272368511E+02 -0.39706560865E+02  0.18831251906E+03  0.22654500043E+03  0.94422356582E+02 0.  0.
          5    1    1    2  502    0  0.63522460259E+02  0.78214463881E+02  0.28982252245E+02  0.10492877900E+03  0.41800000000E+01 0.  1.
         -5    1    1    2    0  502  0.97499082522E+01 -0.38507903016E+02  0.52752010715E+02  0.66167713729E+02  0.41800000000E+01 0.  1.
        -11    1    3    3    0    0 -0.32793921051E+02 -0.22474106768E+02  0.17659876190E+03  0.18101836768E+03  0.00000000000E+00 0. -1.
         11    1    3    3    0    0 -0.40478447460E+02 -0.17232454097E+02  0.11713757164E+02  0.45526632753E+02  0.00000000000E+00 0.  1.
</event>
<event>
 7    1  0.4687179E-006  0.1419002E+03  0.7561462E-02  0.1210795E+00
         -1   -1    0    0    0  501 -0.00000000000E+00  0.00000000000E+00  0.22559572244E+02  0.22559572244E+02  0.00000000000E+00 0.  1.
          1   -1    0    0  501    0  0.00000000000E+00 -0.00000000000E+00 -0.97308468833E+03  0.97308468833E+03  0.00000000000E+00 0. -1.
         23    2    1    2    0    0  0.32676166724E+02  0.95361192786E+02 -0.42201263108E+03  0.44325414285E+03  0.90653656344E+02 0.  0.
          5    1    1    2  502    0 -0.61708733537E+02 -0.10096469403E+03 -0.48740716962E+03  0.50158255416E+03  0.41800000000E+01 0.  1.
         -5    1    1    2    0  502  0.29032566814E+02  0.56035012485E+01 -0.41105315390E+02  0.50807563564E+02  0.41800000000E+01 0.  1.
        -11    1    3    3    0    0  0.64303725330E+02  0.58133219405E+02 -0.27481346498E+03  0.28816120632E+03  0.00000000000E+00 0.  1.
         11    1    3    3    0    0 -0.31627558607E+02  0.37227973382E+02 -0.14719916609E+03  0.15509293654E+03  0.00000000000E+00 0. -1.
</event>
<event>
 7    1  0.4687179E-006  0.8390915E+02  0.7561462E-02  0.1318310E+00
          1   -1    0    0  501    0  0.00000000000E+00  0.00000000000E+00  0.35914690076E+03  0.35914690076E+03  0.00000000000E+00 0. -1.
         -1   -1    0    0    0  501 -0.00000000000E+00 -0.00000000000E+00 -0.46658197745E+02  0.46658197745E+02  0.00000000000E+00 0.  1.
         23    2    1    2    0    0  0.41522020450E+02  0.45810133671E+02  0.19287865865E+03  0.22201700287E+03  0.90921538016E+02 0.  0.
          5    1    1    2  502    0 -0.28136669932E+02 -0.11429628581E+02  0.13869329976E+03  0.14204088286E+03  0.41800000000E+01 0. -1.
         -5    1    1    2    0  502 -0.13385350518E+02 -0.34380505090E+02 -0.19083255386E+02  0.41747212779E+02  0.41800000000E+01 0. -1.
        -11    1    3    3    0    0  0.59692281141E+02  0.53634789424E+02  0.10620432939E+03  0.13311355545E+03  0.00000000000E+00 0.  1.
         11    1    3    3    0    0 -0.18170260691E+02 -0.78246557530E+01  0.86674329257E+02  0.88903447422E+02  0.00000000000E+00 0. -1.
</event>
<event>
 7    1  0.4833789E-006  0.1972229E+03  0.7561462E-02  0.1152103E+00
         -2   -1    0    0    0  501 -0.00000000000E+00  0.00000000000E+00  0.36866462676E+02  0.36866462676E+02  0.00000000000E+00 0.  1.
          2   -1    0    0  501    0  0.00000000000E+00 -0.00000000000E+00 -0.11845628437E+04  0.11845628437E+04  0.00000000000E+00 0. -1.
         23    2    1    2    0    0  0.39448167851E+02 -0.16489267226E+03 -0.70930040341E+03  0.73502975263E+03  0.91738343431E+02 0.  0.
          5    1    1    2  502    0 -0.44210736466E+01 -0.17969419739E+02 -0.16175549296E+02  0.24931240101E+02  0.41800000000E+01 0. -1.
         -5    1    1    2    0  502 -0.35027094204E+02  0.18286209200E+03 -0.42222042836E+03  0.46146831369E+03  0.41800000000E+01 0. -1.
        -11    1    3    3    0    0  0.64222971492E+02 -0.91577642127E+02 -0.34798445626E+03  0.36551913275E+03  0.00000000000E+00 0. -1.
         11    1    3    3    0    0 -0.24774803642E+02 -0.73315030131E+02 -0.36131594715E+03  0.36951061988E+03  0.00000000000E+00 0.  1.
</event>
<event>
 7    1  0.4687179E-006  0.1488546E+03  0.7561462E-02  0.1201888E+00
         -1   -1    0    0    0  501 -0.00000000000E+00  0.00000000000E+00  0.19508100606E+03  0.19508100606E+03  0.00000000000E+00 0.  1.
          1   -1    0    0  501    0  0.00000000000E+00 -0.00000000000E+00 -0.17136647651E+03  0.17136647651E+03  0.00000000000E+00 0. -1.
         23    2    1    2    0    0 -0.91453565522E+02 -0.10764772002E+03 -0.29127485668E+02  0.17050998617E+03  0.90958554794E+02 0.  0.
          5    1    1    2  502    0  0.96676187453E+02  0.11167189198E+03  0.54060198465E+01  0.14786343067E+03  0.41800000000E+01 0. -1.
         -5    1    1    2    0  502 -0.52226219310E+01 -0.40241719582E+01  0.47435995363E+02  0.48074065731E+02  0.41800000000E+01 0. -1.
        -11    1    3    3    0    0 -0.16016428960E+02 -0.29200339396E+02  0.31574491634E+02  0.45892639273E+02  0.00000000000E+00 0.  1.
         11    1    3    3    0    0 -0.75437136562E+02 -0.78447380624E+02 -0.60701977302E+02  0.12461734690E+03  0.00000000000E+00 0. -1.
</event>
<event>
 7    1  0.6201038E-006  0.2394841E+03  0.7561462E-02  0.1120137E+00
          2   -1    0    0  501    0  0.00000000000E+00  0.00000000000E+00  0.49197298037E+03  0.49197298037E+03  0.00000000000E+00 0. -1.
         -2   -1    0    0    0  501 -0.00000000000E+00 -0.00000000000E+00 -0.20988958577E+03  0.20988958577E+03  0.00000000000E+00 0.  1.
         23    2    1    2    0    0  0.21551285715E+03 -0.91840500936E+02  0.34668552622E+03  0.42854805969E+03  0.92639711605E+02 0.  0.
          5    1    1    2  502    0 -0.12186611174E+03  0.29527788786E+02 -0.94243514512E+02  0.15691574787E+03  0.41800000000E+01 0.  1.
         -5    1    1    2    0  502 -0.93646745401E+02  0.62312712150E+02  0.29641382899E+02  0.11639875858E+03  0.41800000000E+01 0.  1.
        -11    1    3    3    0    0  0.12027282767E+03 -0.81189046326E+02  0.26711600683E+03  0.30398713036E+03  0.00000000000E+00 0.  1.
         11    1    3    3    0    0  0.95240029474E+02 -0.10651454610E+02  0.79569519386E+02  0.12456092933E+03  0.00000000000E+00 0. -1.
</event>
<event>
 7    1  0.4687179E-006  0.7170925E+02  0.7561462E-02  0.1354375E+00
          1   -1    0    0  501    0  0.00000000000E+00  0.00000000000E+00  0.14783348286E+03  0.14783348286E+03  0.00000000000E+00 0. -1.
         -1   -1    0    0    0  501 -0.00000000000E+00 -0.00000000000E+00 -0.90533127306E+02  0.90533127306E+02  0.00000000000E+00 0.  1.
         23    2    1    2    0    0  0.67413260444E+01 -0.37901200465E+02  0.23311675277E+02  0.10314259009E+03  0.92806320972E+02 0.  0.
          5    1    1    2  502    0 -0.48034480004E+02  0.14327836617E+01  0.57608543619E+02  0.75137080301E+02  0.41800000000E+01 0. -1.
         -5    1    1    2    0  502  0.41293153960E+02  0.36468416803E+02 -0.23619863339E+02  0.60086939781E+02  0.41800000000E+01 0. -1.
        -11    1    3    3    0    0  0.87847539549E+01 -0.19145743151E+02 -0.35554937937E+02  0.41326565240E+02  0.00000000000E+00 0.  1.
         11    1    3    3    0    0 -0.20434279105E+01 -0.18755457313E+02  0.58866613214E+02  0.61816024847E+02  0.00000000000E+00 0. -1.
</event>
<event>
 7    1  0.4687179E-006  0.1153338E+03  0.7561462E-02  0.1250999E+00
          1   -1    0    0  501    0  0.00000000000E+00  0.00000000000E+00  0.22829795215E+02  0.22829795215E+02  0.00000000000E+00 0. -1.
         -1   -1    0    0    0  501 -0.00000000000E+00 -0.00000000000E+00 -0.76939232866E+03  0.76939232866E+03  0.00000000000E+00 0.  1.
         23    2    1    2    0    0 -0.35534594973E+02 -0.52555878654E+02 -0.18892793777E+03  0.21897451017E+03  0.90726195860E+02 0.  0.
          5    1    1    2  502    0  0.29111577528E+02 -0.34201159796E+02 -0.21854797407E+03  0.22315441436E+03  0.41800000000E+01 0. -1.
         -5    1    1    2    0  502  0.64230174442E+01  0.86757038450E+02 -0.33908662160E+03  0.35009319934E+03  0.41800000000E+01 0.  1.
        -11    1    3    3    0    0 -0.57498460091E+00  0.18903814563E+02 -0.90312152010E+02  0.92271174334E+02  0.00000000000E+00 0.  1.
         11    1    3    3    0    0 -0.34959610372E+02 -0.71459693217E+02 -0.98615785758E+02  0.12670333584E+03  0.00000000000E+00 0. -1.
</event>
<event>
 7    1  0.4687179E-006  0.9964580E+02  0.7561462E-02  0.1281043E+00
          1   -1    0    0  501    0  0.00000000000E+00  0.00000000000E+00  0.13907781011E+02  0.13907781011E+02  0.00000000000E+00 0. -1.
         -1   -1    0    0    0  501 -0.00000000000E+00 -0.00000000000E+00 -0.14788277658E+04  0.14788277658E+04  0.00000000000E+00 0.  1.
         23    2    1    2    0    0  0.31194822570E+02  0.21760220629E+02 -0.19491235082E+03  0.21601580167E+03  0.85002222976E+02 0.  0.
          5    1    1    2  502    0  0.27500277851E+01  0.39475360733E+02 -0.84719772477E+03  0.84813166667E+03  0.41800000000E+01 0.  1.
         -5    1    1    2    0  502 -0.33944850355E+02 -0.61235581361E+02 -0.42280990924E+03  0.42858807851E+03  0.41800000000E+01 0.  1.
        -11    1    3    3    0    0  0.53367108775E+02 -0.61449260566E+01 -0.14542415554E+03  0.15502900835E+03  0.00000000000E+00 0.  1.
         11    1    3    3    0    0 -0.22172286205E+02  0.27905146685E+02 -0.49488195278E+02  0.60986793316E+02  0.00000000000E+00 0. -1.
</event>
<event>
 7    1  0.4687179E-006  0.9943215E+02  0.7561462E-02  0.1281495E+00
          1   -1    0    0  501    0  0.00000000000E+00  0.00000000000E+00  0.73773057125E+03  0.73773057125E+03  0.00000000000E+00 0. -1.
         -1   -1    0    0    0  501 -0.00000000000E+00 -0.00000000000E+00 -0.25942147673E+02  0.25942147673E+02  0.00000000000E+00 0.  1.
         23    2    1    2    0    0 -0.79709887280E+02 -0.17316105399E+02  0.24404573390E+03  0.27267010750E+03  0.90206173024E+02 0.  0.
          5    1    1    2  502    0  0.29349800714E+02 -0.13443024316E+02  0.17630330789E+02  0.37019274283E+02  0.41800000000E+01 0.  1.
         -5    1    1    2    0  502  0.50360086566E+02  0.30759129715E+02  0.45011235888E+03  0.45398333714E+03  0.41800000000E+01 0.  1.
        -11    1    3    3    0    0 -0.68940006543E+02  0.17152935710E+02  0.91136151123E+02  0.11555408148E+03  0.00000000000E+00 0.  1.
         11    1    3    3    0    0 -0.10769880737E+02 -0.34469041108E+02  0.15290958278E+03  0.15711602602E+03  0.00000000000E+00 0. -1.
</event>
<event>
 7    1  0.4687179E-006  0.1183862E+03  0.7561462E-02  0.1245783E+00
          2   -1    0    0  501    0  0.00000000000E+00  0.00000000000E+00  0.43215671397E+02  0.43215671397E+02  0.00000000000E+00 0. -1.
         -2   -1    0    0    0  501 -0.00000000000E+00 -0.00000000000E+00 -0.41053563191E+03  0.41053563191E+03  0.00000000000E+00 0.  1.
         23    2    1    2    0    0  0.48202258255E+02  0.55139738624E+02 -0.15032986107E+03  0.19280049928E+03  0.95964143910E+02 0.  0.
          5    1    1    2  502    0 -0.26175056583E+02 -0.79600688255E+02 -0.67095629869E+02  0.10742764591E+03  0.41800000000E+01 0.  1.
         -5    1    1    2    0  502 -0.22027201672E+02  0.24460949631E+02 -0.14989446958E+03  0.15352315812E+03  0.41800000000E+01 0.  1.
        -11    1    3    3    0    0 -0.24680354850E+02  0.37186989193E+02 -0.44244542077E+02  0.62845617066E+02  0.00000000000E+00 0. -1.
         11    1    3    3    0    0  0.72882613105E+02  0.17952749431E+02 -0.10608531899E+03  0.12995488221E+03  0.00000000000E+00 0.  1.
</event>
<event>
 7    1  0.4687179E-006  0.1244477E+03  0.7561462E-02  0.1235935E+00
         -1   -1    0    0    0  501 -0.00000000000E+00  0.00000000000E+00  0.12185324324E+03  0.12185324324E+03  0.00000000000E+00 0.  1.
          1   -1    0    0  501    0  0.00000000000E+00 -0.00000000000E+00 -0.20566518771E+03  0.20566518771E+03  0.00000000000E+00 0. -1.
         23    2    1    2    0    0  0.78216256912E+02  0.66030872552E+02 -0.94095925049E+02  0.16554851346E+03  0.89857710988E+02 0.  0.
          5    1    1    2  502    0 -0.93318960012E+02 -0.74564190152E+02 -0.25292405400E+02  0.12216965630E+03  0.41800000000E+01 0. -1.
         -5    1    1    2    0  502  0.15102703100E+02  0.85333175996E+01  0.35576385985E+02  0.39800261179E+02  0.41800000000E+01 0. -1.
        -11    1    3    3    0    0  0.27435128492E+02  0.52083849632E+02 -0.13365415957E+01  0.58882934806E+02  0.00000000000E+00 0.  1.
         11    1    3    3    0    0  0.50781128420E+02  0.13947022920E+02 -0.92759383454E+02  0.10666557866E+03  0.00000000000E+00 0. -1.
</event>
<event>
 7    1  0.4687179E-006  0.6545030E+02  0.7561462E-02  0.1376286E+00
         -1   -1    0    0    0  501 -0.00000000000E+00  0.00000000000E+00  0.41526676033E+02  0.41526676033E+02  0.00000000000E+00 0.  1.
          1   -1    0    0  501    0  0.00000000000E+00 -0.00000000000E+00 -0.29888877179E+03  0.29888877179E+03  0.00000000000E+00 0. -1.
         23    2    1    2    0    0  0.14693328748E+02  0.21108089578E+02 -0.11870878733E+03  0.15189517251E+03  0.91208124031E+02 0.  0.
          5    1    1    2  502    0  0.21000111792E+02  0.53150527489E+01 -0.14208037233E+03  0.14378302780E+03  0.41800000000E+01 0. -1.
         -5    1    1    2    0  502 -0.35693440540E+02 -0.26423142327E+02  0.34270639006E+01  0.44737247512E+02  0.41800000000E+01 0. -1.
        -11    1    3    3    0    0 -0.20316412505E+02 -0.45598116734E+01  0.44651754099E+01  0.21295217562E+02  0.00000000000E+00 0.  1.
         11    1    3    3    0    0  0.35009741253E+02  0.25667901252E+02 -0.12317396274E+03  0.13059995495E+03  0.00000000000E+00 0. -1.
</event>
<event>
 6    1  0.4687179E-006  0.1838627E+03  0.7561462E-02  0.1164116E+00
          2   -1    0    0  501    0  0.00000000000E+00  0.00000000000E+00  0.34221760857E+03  0.34221760857E+03  0.00000000000E+00 0. -1.
         -2   -1    0    0    0  501 -0.00000000000E+00 -0.00000000000E+00 -0.14262481123E+03  0.14262481123E+03  0.00000000000E+00 0.  1.
          5    1    1    2  502    0 -0.79832657012E+02 -0.81861836795E+01 -0.38352731533E+02  0.89043085890E+02  0.41800000000E+01 0.  1.
         -5    1    1    2    0  502  0.17035485581E+02 -0.75188104788E+02  0.45553891930E+01  0.77341339796E+02  0.41800000000E+01 0.  1.
        -11    1    1    2    0    0  0.52442290037E+01  0.13364127706E+03  0.18399919586E+03  0.22747131017E+03  0.00000000000E+00 0. -1.
         11    1    1    2    0    0  0.57552942427E+02 -0.50266988594E+02  0.49390943809E+02  0.90986683942E+02  0.00000000000E+00 0.  1.
</event>
<event>
 7    1  0.4687179E-006  0.1398273E+03  0.7561462E-02  0.1213562E+00
         -1   -1    0    0    0  501 -0.00000000000E+00  0.00000000000E+00  0.80527344640E+02  0.80527344640E+02  0.00000000000E+00 0.  1.
          1   -1    0    0  501    0  0.00000000000E+00 -0.00000000000E+00 -0.33024924416E+03  0.33024924416E+03  0.00000000000E+00 0. -1.
         23    2    1    2    0    0  0.35527951335E+02  0.11567984341E+03 -0.10371375943E+03  0.18360353432E+03  0.91157294948E+02 0.  0.
          5    1    1    2  502    0 -0.56421877497E+02 -0.12089626409E+03 -0.75546808850E+02  0.15337577272E+03  0.41800000000E+01 0.  1.
         -5    1    1    2    0  502  0.20893926163E+02  0.52164206762E+01 -0.70461331236E+02  0.73797281757E+02  0.41800000000E+01 0.  1.
        -11    1    3    3    0    0  0.36354541436E+02  0.73014785893E+02 -0.11355290500E+03  0.13981085035E+03  0.00000000000E+00 0.  1.
         11    1    3    3    0    0 -0.82659010116E+00  0.42665057516E+02  0.98391455648E+01  0.43792683972E+02  0.00000000000E+00 0. -1.
</event>
<event>
 7    1  0.4687179E-006  0.1359302E+03  0.7561462E-02  0.1218913E+00
         -1   -1    0    0    0  501 -0.00000000000E+00  0.00000000000E+00  0.58644498348E+02  0.58644498348E+02  0.00000000000E+00 0.  1.
          1   -1    0    0  501    0  0.00000000000E+00 -0.00000000000E+00 -0.43291798028E+03  0.43291798028E+03  0.00000000000E+00 0. -1.
         23    2    1    2    0    0 -0.61240497660E+02 -0.66633701935E+02 -0.29514447406E+03  0.31807085014E+03  0.76605197961E+02 0.  0.
          5    1    1    2  502    0  0.19596068893E+02  0.98656366602E+02 -0.61265011944E+02  0.11784718357E+03  0.41800000000E+01 0. -1.
         -5    1    1    2    0  502  0.41644428767E+02 -0.32022664667E+02 -0.17863995931E+02  0.55644444919E+02  0.41800000000E+01 0. -1.
        -11    1    3    3    0    0  0.29170644905E+01 -0.52772394343E+02 -0.12589945386E+03  0.13654342661E+03  0.00000000000E+00 0. -1.
         11    1    3    3    0    0 -0.64157562150E+02 -0.13861307591E+02 -0.16924502020E+03  0.18152742353E+03  0.00000000000E+00 0.  1.
</event>
<event>
 7    1  0.4687180E-006  0.1200752E+03  0.7561462E-02  0.1242973E+00
         -3   -1    0    0    0  501 -0.00000000000E+00  0.00000000000E+00  0.28050204266E+03  0.28050204266E+03  0.00000000000E+00 0.  1.
          3   -1    0    0  501    0  0.00000000000E+00 -0.00000000000E+00 -0.79919065019E+02  0.79919065019E+02  0.00000000000E+00 0. -1.
         23    2    1    2    0    0 -0.43795216393E+02  0.90606305281E+02  0.70175149235E+02  0.15358537114E+03  0.92392592352E+02 0.  0.
          5    1    1    2  502    0  0.59590425093E+02 -0.10017393065E+03  0.54749449956E+02  0.12884412992E+03  0.41800000000E+01 0. -1.
         -5    1    1    2    0  502 -0.15795208699E+02  0.95676253726E+01  0.75658378445E+02  0.77991606613E+02  0.41800000000E+01 0. -1.
        -11    1    3    3    0    0 -0.45656502437E+02  0.68032209885E+02  0.91257849529E+02  0.12264131807E+03  0.00000000000E+00 0.  1.
         11    1    3    3    0    0  0.18612860437E+01  0.22574095396E+02 -0.21082700294E+02  0.30944053070E+02  0.00000000000E+00 0. -1.
</event>
<event>
 7    1  0.4687179E-006  0.1712767E+03  0.7561462E-02  0.1176523E+00
          2   -1    0    0  501    0  0.00000000000E+00  0.00000000000E+00  0.11512837980E+04  0.11512837980E+04  0.00000000000E+00 0. -1.
         -2   -1    0    0    0  501 -0.00000000000E+00 -0.00000000000E+00 -0.36362873961E+02  0.36362873961E+02  0.00000000000E+00 0.  1.
         23    2    1    2    0    0  0.96390814811E+02  0.40903026364E+02  0.42943984915E+03  0.45134210541E+03  0.91251659332E+02 0.  0.
          5    1    1    2  502    0 -0.55755016544E+02  0.74370197191E+02  0.53191134076E+03  0.53998768035E+03  0.41800000000E+01 0. -1.
         -5    1    1    2    0  502 -0.40635798268E+02 -0.11527322355E+03  0.15356973414E+03  0.19631688622E+03  0.41800000000E+01 0.  1.
        -11    1    3    3    0    0  0.86335750473E+02  0.12919485527E+01  0.36470229853E+03  0.37478433465E+03  0.00000000000E+00 0.  1.
         11    1    3    3    0    0  0.10055064338E+02  0.39611077811E+02  0.64737550617E+02  0.76557770762E+02  0.00000000000E+00 0. -1.
</event>
<event>
 7    1  0.4687179E-006  0.1226893E+03  0.7561462E-02  0.1238725E+00
         -1   -1    0    0    0  501 -0.00000000000E+00  0.00000000000E+00  0.18753699767E+03  0.18753699767E+03  0.00000000000E+00 0.  1.
          1   -1    0    0  501    0  0.00000000000E+00 -0.00000000000E+00 -0.10151364767E+03  0.10151364767E+03  0.00000000000E+00 0. -1.
         23    2    1    2    0    0  0.33468446236E+02 -0.75534674941E+02 -0.10940440112E+00  0.11615704047E+03  0.81650609725E+02 0.  0.
          5    1    1    2  502    0  0.38897301565E+02  0.61438010576E+02  0.24933353692E+02  0.76985542402E+02  0.41800000000E+01 0.  1.
         -5    1    1    2    0  502 -0.72365747801E+02  0.14096664365E+02  0.61199400702E+02  0.95908062473E+02  0.41800000000E+01 0.  1.
        -11    1    3    3    0    0  0.32779369479E+02 -0.11617323655E+02 -0.29686657755E+02  0.45724686123E+02  0.00000000000E+00 0. -1.
         11    1    3    3    0    0  0.68907675688E+00 -0.63917351287E+02  0.29577253354E+02  0.70432354343E+02  0.00000000000E+00 0.  1.
</event>
<event>
 7    1  0.4687179E-006  0.9226028E+02  0.7561462E-02  0.1297469E+00
         -1   -1    0    0    0  501 -0.00000000000E+00  0.00000000000E+00  0.22593598739E+02  0.22593598739E+02  0.00000000000E+00 0.  1.
          1   -1    0    0  501    0  0.00000000000E+00 -0.00000000000E+00 -0.69283931145E+03  0.69283931145E+03  0.00000000000E+00 0. -1.
         23    2    1    2    0    0  0.41352631531E+02 -0.41100392601E+02 -0.34384409800E+03  0.36105382894E+03  0.93444214681E+02 0.  0.
          5    1    1    2  502    0 -0.17803788886E+01  0.33616780061E+02 -0.99555220889E+01  0.35353111189E+02  0.41800000000E+01 0. -1.
         -5    1    1    2    0  502 -0.39572252643E+02  0.74836125394E+01 -0.31644609262E+03  0.31902597006E+03  0.41800000000E+01 0. -1.
        -11    1    3    3    0    0 -0.42648106495E+01  0.27443081709E+02 -0.90625967206E+02  0.94785955054E+02  0.00000000000E+00 0. -1.
         11    1    3    3    0    0  0.45617442181E+02 -0.68543474309E+02 -0.25321813079E+03  0.26626787389E+03  0.00000000000E+00 0.  1.
</event>
<event>
 7    1  0.4687179E-006  0.7936350E+02  0.7561462E-02  0.1330868E+00
         -3   -1    0    0    0  501 -0.00000000000E+00  0.00000000000E+00  0.74205545630E+03  0.74205545630E+03  0.00000000000E+00 0.  1.
          3   -1    0    0  501    0  0.00000000000E+00 -0.00000000000E+00 -0.40725274393E+02  0.40725274393E+02  0.00000000000E+00 0. -1.
         23    2    1    2    0    0 -0.29227678176E+00 -0.14463978265E+01  0.23989842742E+02  0.93095849392E+02  0.89939686050E+02 0.  0.
          5    1    1    2  502    0  0.27858134886E+02 -0.23957203625E+02  0.55438390448E+02  0.66640159216E+02  0.41800000000E+01 0. -1.
         -5    1    1    2    0  502 -0.27565858104E+02  0.25403601451E+02  0.62190194871E+03  0.62304472208E+03  0.41800000000E+01 0.  1.
        -11    1    3    3    0    0  0.41508303985E+02  0.47198889171E+01 -0.46759652434E+01  0.42036666162E+02  0.00000000000E+00 0. -1.
         11    1    3    3    0    0 -0.41800580767E+02 -0.61662867435E+01  0.28665807985E+02  0.51059183229E+02  0.00000000000E+00 0.  1.
</event>
<event>
 7    1  0.4687179E-006  0.1084475E+03  0.7561462E-02  0.1263472E+00
         -1   -1    0    0    0  501 -0.00000000000E+00  0.00000000000E+00  0.46664392687E+02  0.46664392687E+02  0.00000000000E+00 0.  1.
          1   -1    0    0  501    0  0.00000000000E+00 -0.00000000000E+00 -0.43209051475E+03  0.43209051475E+03  0.00000000000E+00 0. -1.
         23    2    1    2    0    0  0.18620807668E+02  0.95451990232E+01 -0.32422687843E+03  0.33793330566E+03  0.92940868688E+02 0.  0.
          5    1    1    2  502    0 -0.19174711619E+01 -0.64601323327E+02 -0.50559259968E+02  0.82162758229E+02  0.41800000000E+01 0. -1.
         -5    1    1    2    0  502 -0.16703336506E+02  0.55056124304E+02 -0.10639983658E+02  0.58658843545E+02  0.41800000000E+01 0. -1.
        -11    1    3    3    0    0  0.48157489510E+02 -0.20475430561E+02 -0.15731306628E+03  0.16578838281E+03  0.00000000000E+00 0.  1.
         11    1    3    3    0    0 -0.29536681842E+02  0.30020629585E+02 -0.16691381215E+03  0.17214492285E+03  0.00000000000E+00 0. -1.
</event>
<event>
 7    1  0.4687179E-006  0.1140923E+03  0.7561462E-02  0.1253174E+00
         -2   -1    0    0    0  501 -0.00000000000E+00  0.00000000000E+00  0.24412973345E+03  0.24412973345E+03  0.00000000000E+00 0.  1.
          2   -1    0    0  501    0  0.00000000000E+00 -0.00000000000E+00 -0.87063564636E+02  0.87063564636E+02  0.00000000000E+00 0. -1.
         23    2    1    2    0    0  0.72372696217E+02 -0.96734400443E+01 -0.15547429294E+01  0.11639063697E+03  0.90625496131E+02 0.  0.
          5    1    1    2  502    0 -0.85869591891E+02 -0.37457432676E+02  0.87065557961E+02  0.12796300191E+03  0.41800000000E+01 0.  1.
         -5    1    1    2    0  502  0.13496895674E+02  0.47130872721E+02  0.71555353784E+02  0.86839659208E+02  0.41800000000E+01 0.  1.
        -11    1    3    3    0    0  0.63427267762E+02 -0.24412539085E+02 -0.36703638258E+02  0.77240840374E+02  0.00000000000E+00 0. -1.
         11    1    3    3    0    0  0.89454284550E+01  0.14739099040E+02  0.35148895329E+02  0.39149796597E+02  0.00000000000E+00 0.  1.
</event>
<event>
 7    1  0.4687179E-006  0.1500183E+03  0.7561462E-02  0.1200450E+00
          1   -1    0    0  501    0  0.00000000000E+00  0.00000000000E+00  0.81827221268E+02  0.81827221268E+02  0.00000000000E+00 0. -1.
         -1   -1    0    0    0  501 -0.00000000000E+00 -0.00000000000E+00 -0.29708979513E+03  0.29708979513E+03  0.00000000000E+00 0.  1.
         23    2    1    2    0    0  0.26569785387E+02  0.16465406816E+02 -0.71599236446E+02  0.11989943968E+03  0.90952525308E+02 0.  0.
          5    1    1    2  502    0 -0.11964960012E+03 -0.13052666489E+01 -0.94834976768E+02  0.15273793160E+03  0.41800000000E+01 0. -1.
         -5    1    1    2    0  502  0.93079814738E+02 -0.15160140167E+02 -0.48828360646E+02  0.10627964511E+03  0.41800000000E+01 0.  1.
        -11    1    3    3    0    0  0.48916060523E+02  0.32213342438E+02 -0.20695147039E+02  0.62118994833E+02  0.00000000000E+00 0. -1.
         11    1    3    3    0    0 -0.22346275137E+02 -0.15747935622E+02 -0.50904089407E+02  0.57780444851E+02  0.00000000000E+00 0.  1.
</event>
<event>
 7    1  0.4687179E-006  0.1311238E+03  0.7561462E-02  0.1225798E+00
         -1   -1    0    0    0  501 -0.00000000000E+00  0.00000000000E+00  0.20041580063E+03  0.20041580063E+03  0.00000000000E+00 0.  1.
          1   -1    0    0  501    0  0.00000000000E+00 -0.00000000000E+00 -0.11629082644E+03  0.11629082644E+03  0.00000000000E+00 0. -1.
         23    2    1    2    0    0  0.81917102364E+02  0.59053752986E+02  0.44264877390E+01  0.13726947478E+03  0.92873879597E+02 0.  0.
          5    1    1    2  502    0 -0.10120499369E+03 -0.77389928649E+02  0.44292630449E+02  0.13494799486E+03  0.41800000000E+01 0.  1.
         -5    1    1    2    0  502  0.19287891326E+02  0.18336175663E+02  0.35405855997E+02  0.44489157427E+02  0.41800000000E+01 0.  1.
        -11    1    3    3    0    0  0.23798127433E+02  0.40236095628E+02  0.44231432557E+02  0.64356148787E+02  0.00000000000E+00 0.  1.
         11    1    3    3    0    0  0.58118974932E+02  0.18817657358E+02 -0.39804944818E+02  0.72913325994E+02  0.00000000000E+00 0. -1.
</event>
<event>
 7    1  0.4687179E-006  0.1919952E+03  0.7561462E-02  0.1156674E+00
         -1   -1    0    0    0  501 -0.00000000000E+00  0.00000000000E+00  0.11989777162E+03  0.11989777162E+03  0.00000000000E+00 0.  1.
          1   -1    0    0  501    0  0.00000000000E+00 -0.00000000000E+00 -0.41189064293E+03  0.41189064293E+03  0.00000000000E+00 0. -1.
         23    2    1    2    0    0 -0.14243724886E+03  0.10017831079E+03 -0.23206373988E+03  0.30916912108E+03  0.10680778176E+03 0.  0.
          5    1    1    2  502    0  0.12915717513E+03 -0.57532049340E+02  0.74756573195E+01  0.14165052221E+03  0.41800000000E+01 0. -1.
         -5    1    1    2    0  502  0.13280073731E+02 -0.42646261445E+02 -0.67404788746E+02  0.80968771260E+02  0.41800000000E+01 0. -1.
        -11    1    3    3    0    0 -0.14060960066E+02  0.62243842339E+02 -0.40895315194E+02  0.75792039898E+02  0.00000000000E+00 0.  1.
         11    1    3    3    0    0 -0.12837628880E+03  0.37934468447E+02 -0.19116842469E+03  0.23337708118E+03  0.00000000000E+00 0. -1.
</event>
<event>
 7    1  0.4687179E-006  0.9457552E+02  0.7561462E-02  0.1292135E+00
         -3   -1    0    0    0  501 -0.00000000000E+00  0.00000000000E+00  0.86562517155E+02  0.86562517155E+02  0.00000000000E+00 0. -1.
          3   -1    0    0  501    0  0.00000000000E+00 -0.00000000000E+00 -0.15392862343E+03  0.15392862343E+03  0.00000000000E+00 0.  1.
         23    2    1    2    0    0  0.12730714162E+02 -0.38848207430E+02 -0.22955348890E+02  0.10157809600E+03  0.90110527918E+02 0.  0.
          5    1    1    2  502    0  0.68756659602E+00 -0.39090560015E+02  0.12647563292E+02  0.41303485172E+02  0.41800000000E+01 0.  1.
         -5    1    1    2    0  502 -0.13418280758E+02  0.77938767445E+02 -0.57058320676E+02  0.97609559407E+02  0.41800000000E+01 0.  1.
        -11    1    3    3    0    0 -0.14722046396E+02  0.76857131253E+01 -0.41305061200E+02  0.44518725466E+02  0.00000000000E+00 0.  1.
         11    1    3    3    0    0  0.27452760558E+02 -0.46533920555E+02  0.18349712310E+02  0.57059370539E+02  0.00000000000E+00 0. -1.
</event>
<event>
 7    1  0.4687179E-006  0.1044001E+03  0.7561462E-02  0.1271306E+00
          1   -1    0    0  501    0  0.00000000000E+00  0.00000000000E+00  0.39008841277E+02  0.39008841277E+02  0.00000000000E+00 0. -1.
         -1   -1    0    0    0  501 -0.00000000000E+00 -0.00000000000E+00 -0.37320818796E+03  0.37320818796E+03  0.00000000000E+00 0.  1.
         23    2    1    2    0    0 -0.22004608661E+00  0.39028640957E+02 -0.10434607174E+03  0.14763634120E+03  0.96876742931E+02 0.  0.
          5    1    1    2  502    0  0.39374552090E+02  0.11040754965E+02 -0.17729588002E+03  0.18199877773E+03  0.41800000000E+01 0. -1.
         -5    1    1    2    0  502 -0.39154506004E+02 -0.50069395922E+02 -0.52557394921E+02  0.82581910303E+02  0.41800000000E+01 0. -1.
        -11    1    3    3    0    0 -0.38408264072E+02 -0.12018574215E+02 -0.33828836863E+02  0.52574053284E+02  0.00000000000E+00 0.  1.
         11    1    3    3    0    0  0.38188217985E+02  0.51047215172E+02 -0.70517234875E+02  0.95062287918E+02  0.00000000000E+00 0. -1.
</event>
<event>
 7    1  0.4687179E-006  0.1908884E+03  0.7561462E-02  0.1157663E+00
         -1   -1    0    0    0  501 -0.00000000000E+00  0.00000000000E+00  0.20755117635E+03  0.20755117635E+03  0.00000000000E+00 0.  1.
          1   -1    0    0  501    0  0.00000000000E+00 -0.00000000000E+00 -0.21944185913E+03  0.21944185913E+03  0.00000000000E+00 0. -1.
         23    2    1    2    0    0  0.18000613074E+03  0.33084378574E+02  0.45777735529E+01  0.20469805258E+03  0.91561746971E+02 0.  0.
          5    1    1    2  502    0 -0.97968167025E+02 -0.47908959506E+02 -0.63722042011E+02  0.12637642656E+03  0.41800000000E+01 0.  1.
         -5    1    1    2    0  502 -0.82037963719E+02  0.14824580932E+02  0.47253585682E+02  0.95918556342E+02  0.41800000000E+01 0.  1.
        -11    1    3    3    0    0  0.12868928825E+03  0.45282017520E+02  0.38785893378E+02  0.14182996702E+03  0.00000000000E+00 0.  1.
         11    1    3    3    0    0  0.51316842495E+02 -0.12197638947E+02 -0.34208119826E+02  0.62868085556E+02  0.00000000000E+00 0. -1.
</event>
<event>
 7    1  0.4687179E-006  0.9911270E+02  0.7561462E-02  0.1282173E+00
         -3   -1    0    0    0  501 -0.00000000000E+00  0.00000000000E+00  0.17024638555E+03  0.17024638555E+03  0.00000000000E+00 0.  1.
          3   -1    0    0  501    0  0.00000000000E+00 -0.00000000000E+00 -0.93493566384E+02  0.93493566384E+02  0.00000000000E+00 0. -1.
         23    2    1    2    0    0  0.21909775832E+02 -0.37687703582E+02 -0.16837886272E+02  0.10154885541E+03  0.90156831927E+02 0.  0.
          5    1    1    2  502    0  0.39889384920E+02  0.42776864102E+02  0.78943951579E+02  0.98339427609E+02  0.41800000000E+01 0.  1.
         -5    1    1    2    0  502 -0.61799160752E+02 -0.50891605201E+01  0.14646753862E+02  0.63851668915E+02  0.41800000000E+01 0.  1.
        -11    1    3    3    0    0  0.73168141103E+01 -0.54606688627E+02  0.19876380702E+02  0.58570442386E+02  0.00000000000E+00 0.  1.
         11    1    3    3    0    0  0.14592961722E+02  0.16918985045E+02 -0.36714266974E+02  0.42978413026E+02  0.00000000000E+00 0. -1.
</event>
<event>
 7    1  0.4687179E-006  0.1391698E+03  0.7561462E-02  0.1214450E+00
         -4   -1    0    0    0  501 -0.00000000000E+00  0.00000000000E+00  0.30104989827E+03  0.30104989827E+03  0.00000000000E+00 0.  1.
          4   -1    0    0  501    0  0.00000000000E+00 -0.00000000000E+00 -0.86729694547E+02  0.86729694547E+02  0.00000000000E+00 0. -1.
         23    2    1    2    0    0  0.19881087781E+02 -0.11156500285E+03  0.60705676195E+02  0.15955115458E+03  0.94495419441E+02 0.  0.
          5    1    1    2  502    0 -0.19841170312E+01  0.12985434941E+03  0.86015771999E+02  0.15582770682E+03  0.41800000000E+01 0.  1.
         -5    1    1    2    0  502 -0.17896970750E+02 -0.18289346561E+02  0.67598755528E+02  0.72400731409E+02  0.41800000000E+01 0.  1.
        -11    1    3    3    0    0  0.33601175400E+02 -0.56594199037E+02 -0.12487457849E+02  0.66991633481E+02  0.00000000000E+00 0.  1.
         11    1    3    3    0    0 -0.13720087619E+02 -0.54970803810E+02  0.73193134044E+02  0.92559521104E+02  0.00000000000E+00 0. -1.
</event>
<event>
 7    1  0.4687179E-006  0.1148573E+03  0.7561462E-02  0.1251830E+00
         -2   -1    0    0    0  501 -0.00000000000E+00  0.00000000000E+00  0.11632907087E+03  0.11632907087E+03  0.00000000000E+00 0.  1.
          2   -1    0    0  501    0  0.00000000000E+00 -0.00000000000E+00 -0.20811418301E+03  0.20811418301E+03  0.00000000000E+00 0. -1.
         23    2    1    2    0    0 -0.80511675479E+02 -0.11692199850E+01 -0.12259711126E+03  0.17251820744E+03  0.90823913403E+02 0.  0.
          5    1    1    2  502    0 -0.30257316442E+02 -0.19003856900E+02  0.10141138109E+02  0.37376019819E+02  0.41800000000E+01 0.  1.
         -5    1    1    2    0  502  0.11076899192E+03  0.20173076885E+02  0.20670861018E+02  0.11454902661E+03  0.41800000000E+01 0.  1.
        -11    1    3    3    0    0 -0.22570995607E+02 -0.45805012676E+01 -0.11095628558E+03  0.11332134903E+03  0.00000000000E+00 0. -1.
         11    1    3    3    0    0 -0.57940679872E+02  0.34112812826E+01 -0.11640825679E+02  0.59196858418E+02  0.00000000000E+00 0.  1.
</event>
<event>
 7    1  0.4687179E-006  0.9312606E+02  0.7561462E-02  0.1295453E+00
          1   -1    0    0  501    0  0.00000000000E+00  0.00000000000E+00  0.25755280390E+03  0.25755280390E+03  0.00000000000E+00 0. -1.
         -1   -1    0    0    0  501 -0.00000000000E+00 -0.00000000000E+00 -0.55561983814E+02  0.55561983814E+02  0.00000000000E+00 0.  1.
         23    2    1    2    0    0  0.33640670385E+01  0.40604256920E+02  0.12365221641E+03  0.16000027166E+03  0.93006417405E+02 0.  0.
          5    1    1    2  502    0 -0.18432720117E+02 -0.58416104717E+02  0.10236393775E+03  0.11936521526E+03  0.41800000000E+01 0. -1.
         -5    1    1    2    0  502  0.15068653079E+02  0.17811847797E+02 -0.24025334075E+02  0.33749300807E+02  0.41800000000E+01 0. -1.
        -11    1    3    3    0    0 -0.40381868577E+02  0.40801036616E+02  0.77026970069E+02  0.96065467348E+02  0.00000000000E+00 0.  1.
         11    1    3    3    0    0  0.43745935615E+02 -0.19677969633E+00  0.46625246345E+02  0.63934804308E+02  0.00000000000E+00 0. -1.
</event>
<event>
 7    1  0.4687179E-006  0.3090562E+03  0.7561462E-02  0.1080799E+00
          1   -1    0    0  501    0  0.00000000000E+00  0.00000000000E+00  0.12625138951E+04  0.12625138951E+04  0.00000000000E+00 0. -1.
         -1   -1    0    0    0  501 -0.00000000000E+00 -0.00000000000E+00 -0.10918152974E+03  0.10918152974E+03  0.00000000000E+00 0.  1.
         23    2    1    2    0    0  0.26383972516E+03  0.18981259690E+02  0.88375411326E+03  0.92695556806E+03  0.90849345954E+02 0.  0.
          5    1    1    2  502    0  0.33723127432E+02 -0.22685176154E+02 -0.32608132671E+01  0.40987459596E+02  0.41800000000E+01 0. -1.
         -5    1    1    2    0  502 -0.29756285260E+03  0.37039164637E+01  0.27283906534E+03  0.40375239717E+03  0.41800000000E+01 0.  1.
        -11    1    3    3    0    0  0.53756090400E+02  0.42111070741E+02  0.22327769514E+03  0.23348659208E+03  0.00000000000E+00 0.  1.
         11    1    3    3    0    0  0.21008363476E+03 -0.23129811051E+02  0.66047641812E+03  0.69346897598E+03  0.00000000000E+00 0. -1.
</event>
<event>
 7    1  0.4687179E-006  0.9233787E+02  0.7561462E-02  0.1297287E+00
          1   -1    0    0  501    0  0.00000000000E+00  0.00000000000E+00  0.31111381226E+02  0.31111381226E+02  0.00000000000E+00 0. -1.
         -1   -1    0    0    0  501 -0.00000000000E+00 -0.00000000000E+00 -0.41113855151E+03  0.41113855151E+03  0.00000000000E+00 0.  1.
         23    2    1    2    0    0 -0.27239468973E+02 -0.13909741544E+02 -0.14873238955E+03  0.17752314837E+03  0.91965618175E+02 0.  0.
          5    1    1    2  502    0  0.46785308526E+02 -0.25892269428E+02 -0.20731911548E+03  0.21414472385E+03  0.41800000000E+01 0. -1.
         -5    1    1    2    0  502 -0.19545839554E+02  0.39802010972E+02 -0.23975665249E+02  0.50582060510E+02  0.41800000000E+01 0. -1.
        -11    1    3    3    0    0 -0.56193838654E+02 -0.12159250758E+02 -0.13213895013E+03  0.14410515960E+03  0.00000000000E+00 0.  1.
         11    1    3    3    0    0  0.28954369681E+02 -0.17504907859E+01 -0.16593439416E+02  0.33417988768E+02  0.00000000000E+00 0. -1.
</event>
<event>
 7    1  0.4687179E-006  0.1092202E+03  0.7561462E-02  0.1262021E+00
         -2   -1    0    0    0  501 -0.00000000000E+00  0.00000000000E+00  0.17790471127E+02  0.17790471127E+02  0.00000000000E+00 0.  1.
          2   -1    0    0  501    0  0.00000000000E+00 -0.00000000000E+00 -0.10106308884E+04  0.10106308884E+04  0.00000000000E+00 0. -1.
         23    2    1    2    0    0  0.87688872497E+01  0.72130389356E+02 -0.57250036398E+03  0.58388377021E+03  0.88791350385E+02 0.  0.
          5    1    1    2  502    0 -0.34800005549E+02 -0.70298305846E+02 -0.40777955796E+03  0.41527645308E+03  0.41800000000E+01 0.  1.
         -5    1    1    2    0  502  0.26031118299E+02 -0.18320835103E+01 -0.12560495297E+02  0.29261136205E+02  0.41800000000E+01 0.  1.
        -11    1    3    3    0    0  0.47220820938E+02  0.51317138457E+02 -0.30820721057E+03  0.31599832163E+03  0.00000000000E+00 0.  1.
         11    1    3    3    0    0 -0.38451933688E+02  0.20813250899E+02 -0.26429315341E+03  0.26788544858E+03  0.00000000000E+00 0. -1.
</event>
<event>
 7    1  0.4687179E-006  0.9352556E+02  0.7561462E-02  0.1294532E+00
         -3   -1    0    0    0  501 -0.00000000000E+00  0.00000000000E+00  0.16624600341E+03  0.16624600341E+03  0.00000000000E+00 0.  1.
          3   -1    0    0  501    0  0.00000000000E+00 -0.00000000000E+00 -0.87314181421E+02  0.87314181421E+02  0.00000000000E+00 0. -1.
         23    2    1    2    0    0 -0.21030670381E+02  0.30437932273E+02 -0.58519113638E+01  0.97981418669E+02  0.90539255133E+02 0.  0.
          5    1    1    2  502    0  0.67568029787E+02 -0.44306711111E+02  0.61119486676E+02  0.10139816246E+03  0.41800000000E+01 0. -1.
         -5    1    1    2    0  502 -0.46537359406E+02  0.13868778838E+02  0.23664246681E+02  0.54180603706E+02  0.41800000000E+01 0. -1.
        -11    1    3    3    0    0 -0.26715296651E+02  0.28154958533E+00 -0.42488732798E+02  0.50190424984E+02  0.00000000000E+00 0. -1.
         11    1    3    3    0    0  0.56846262706E+01  0.30156382687E+02  0.36636821434E+02  0.47790993685E+02  0.00000000000E+00 0.  1.
</event>
<event>
 7    1  0.4687179E-006  0.4412061E+02  0.7561462E-02  0.1479907E+00
          2   -1    0    0  501    0  0.00000000000E+00  0.00000000000E+00  0.42653919794E+02  0.42653919794E+02  0.00000000000E+00 0. -1.
         -2   -1    0    0    0  501 -0.00000000000E+00 -0.00000000000E+00 -0.28968123322E+03  0.28968123322E+03  0.00000000000E+00 0.  1.
         23    2    1    2    0    0 -0.11650054355E+02 -0.22360797041E+02 -0.10685144444E+03  0.14277665273E+03  0.91280952976E+02 0.  0.
          5    1    1    2  502    0  0.11195314520E+02  0.34145755017E+01  0.22513206518E+02  0.25715972872E+02  0.41800000000E+01 0. -1.
         -5    1    1    2    0  502  0.45473983522E+00  0.18946221539E+02 -0.16268907551E+03  0.16384252741E+03  0.41800000000E+01 0. -1.
        -11    1    3    3    0    0 -0.27683808947E+02 -0.28032587225E+02 -0.52323061942E+01  0.39744134818E+02  0.00000000000E+00 0. -1.
         11    1    3    3    0    0  0.16033754592E+02  0.56717901842E+01 -0.10161913825E+03  0.10303251791E+03  0.00000000000E+00 0.  1.
</event>
<event>
 7    1  0.4687179E-006  0.1019663E+03  0.7561462E-02  0.1276215E+00
          2   -1    0    0  501    0  0.00000000000E+00  0.00000000000E+00  0.83101889111E+02  0.83101889111E+02  0.00000000000E+00 0. -1.
         -2   -1    0    0    0  501 -0.00000000000E+00 -0.00000000000E+00 -0.17300377451E+03  0.17300377451E+03  0.00000000000E+00 0.  1.
         23    2    1    2    0    0  0.15387769388E+02  0.22088232553E+02  0.71785751349E+01  0.95493238427E+02  0.91338672971E+02 0.  0.
          5    1    1    2  502    0 -0.48074080010E+02  0.25283034940E+02 -0.86076190916E+02  0.10186722764E+03  0.41800000000E+01 0. -1.
         -5    1    1    2    0  502  0.32686310622E+02 -0.47371267493E+02 -0.11004269620E+02  0.58745197555E+02  0.41800000000E+01 0. -1.
        -11    1    3    3    0    0 -0.30794766494E+02  0.32112191344E+02  0.16261690357E+02  0.47370381565E+02  0.00000000000E+00 0. -1.
         11    1    3    3    0    0  0.46182535883E+02 -0.10023958791E+02 -0.90831152223E+01  0.48122856862E+02  0.00000000000E+00 0.  1.
</event>
<event>
 7    1  0.4687179E-006  0.1010165E+03  0.7561462E-02  0.1278173E+00
          2   -1    0    0  501    0  0.00000000000E+00  0.00000000000E+00  0.29244477707E+03  0.29244477707E+03  0.00000000000E+00 0. -1.
         -2   -1    0    0    0  501 -0.00000000000E+00 -0.00000000000E+00 -0.71025655088E+02  0.71025655088E+02  0.00000000000E+00 0.  1.
         23    2    1    2    0    0 -0.81383991251E+02  0.54452866120E+01  0.16567395181E+03  0.20406861606E+03  0.86851232425E+02 0.  0.
          5    1    1    2  502    0  0.58309719497E+02  0.15360319374E+01 -0.33135711174E+02  0.67214808910E+02  0.41800000000E+01 0. -1.
         -5    1    1    2    0  502  0.23074271754E+02 -0.69813185494E+01  0.88880881348E+02  0.92187007191E+02  0.41800000000E+01 0. -1.
        -11    1    3    3    0    0 -0.49329464741E+02 -0.39975670597E+02  0.91587068427E+02  0.11144344500E+03  0.00000000000E+00 0.  1.
         11    1    3    3    0    0 -0.32054526510E+02  0.45420957209E+02  0.74086883382E+02  0.92625171054E+02  0.00000000000E+00 0. -1.
</event>
<event>
 7    1  0.4687179E-006  0.1630817E+03  0.7561462E-02  0.1185261E+00
         -1   -1    0    0    0  501 -0.00000000000E+00  0.00000000000E+00  0.32012159775E+03  0.32012159775E+03  0.00000000000E+00 0.  1.
          1   -1    0    0  501    0  0.00000000000E+00 -0.00000000000E+00 -0.12200889579E+03  0.12200889579E+03  0.00000000000E+00 0. -1.
         23    2    1    2    0    0  0.45041808049E+02 -0.14260244512E+03  0.22252444905E+02  0.17957082045E+03  0.96882848979E+02 0.  0.
          5    1    1    2  502    0  0.24799010921E+02  0.11602019669E+02 -0.54102262545E+01  0.28219510116E+02  0.41800000000E+01 0.  1.
         -5    1    1    2    0  502 -0.69840818970E+02  0.13100042545E+03  0.18127048331E+03  0.23434016297E+03  0.41800000000E+01 0.  1.
        -11    1    3    3    0    0  0.16462991095E+02 -0.35979120392E+02  0.51909256228E+02  0.65269426703E+02  0.00000000000E+00 0.  1.
         11    1    3    3    0    0  0.28578816954E+02 -0.10662332473E+03 -0.29656811324E+02  0.11430139375E+03  0.00000000000E+00 0. -1.
</event>
<event>
 7    1  0.4687179E-006  0.2253234E+03  0.7561462E-02  0.1129975E+00
         -1   -1    0    0    0  501 -0.00000000000E+00  0.00000000000E+00  0.14944826330E+03  0.14944826330E+03  0.00000000000E+00 0.  1.
          1   -1    0    0  501    0  0.00000000000E+00 -0.00000000000E+00 -0.42384433070E+03  0.42384433070E+03  0.00000000000E+00 0. -1.
         23    2    1    2    0    0  0.77967430993E+01  0.20407062417E+03 -0.24630965356E+03  0.33216499180E+03  0.89216183992E+02 0.  0.
          5    1    1    2  502    0 -0.47304055545E+02 -0.18723043750E+03 -0.74638497177E+01  0.19330310874E+03  0.41800000000E+01 0. -1.
         -5    1    1    2    0  502  0.39507312446E+02 -0.16840186678E+02 -0.20622564119E+02  0.47824493462E+02  0.41800000000E+01 0. -1.
        -11    1    3    3    0    0  0.16272500999E+02  0.80867098812E+01 -0.11843489061E+01  0.18209663583E+02  0.00000000000E+00 0. -1.
         11    1    3    3    0    0 -0.84757578995E+01  0.19598391429E+03 -0.24512530466E+03  0.31395532822E+03  0.00000000000E+00 0.  1.
</event>
<event>
 7    1  0.4687179E-006  0.1402446E+03  0.7561462E-02  0.1213000E+00
          2   -1    0    0  501    0  0.00000000000E+00  0.00000000000E+00  0.11986933712E+04  0.11986933712E+04  0.00000000000E+00 0. -1.
         -2   -1    0    0    0  501 -0.00000000000E+00 -0.00000000000E+00 -0.17234437426E+02  0.17234437426E+02  0.00000000000E+00 0.  1.
         23    2    1    2    0    0  0.40861183510E+02  0.83279586281E+02  0.57006476472E+03  0.58501119484E+03  0.93054480293E+02 0.  0.
          5    1    1    2  502    0  0.37917302835E+02  0.35184705371E+01  0.13957271806E+03  0.14473464518E+03  0.41800000000E+01 0.  1.
         -5    1    1    2    0  502 -0.78778486345E+02 -0.86798056818E+02  0.47182145100E+03  0.48618196861E+03  0.41800000000E+01 0.  1.
        -11    1    3    3    0    0 -0.93584915199E+01  0.73037644882E+02  0.42075006849E+03  0.42714482212E+03  0.00000000000E+00 0.  1.
         11    1    3    3    0    0  0.50219675030E+02  0.10241941399E+02  0.14931469623E+03  0.15786637272E+03  0.00000000000E+00 0. -1.
</event>
<event>
 7    1  0.4687179E-006  0.1118053E+03  0.7561462E-02  0.1257263E+00
          1   -1    0    0  501    0  0.00000000000E+00  0.00000000000E+00  0.82372597353E+02  0.82372597353E+02  0.00000000000E+00 0. -1.
         -1   -1    0    0    0  501 -0.00000000000E+00 -0.00000000000E+00 -0.18348124743E+03  0.18348124743E+03  0.00000000000E+00 0.  1.
         23    2    1    2    0    0  0.39979510123E+02  0.33689499914E+02 -0.21073540113E+02  0.10841468123E+03  0.92608344001E+02 0.  0.
          5    1    1    2  502    0 -0.25564224170E+02 -0.80684353759E+02 -0.39064480771E+02  0.93311309908E+02  0.41800000000E+01 0. -1.
         -5    1    1    2    0  502 -0.14415285953E+02  0.46994853845E+02 -0.40970629195E+02  0.64127853649E+02  0.41800000000E+01 0. -1.
        -11    1    3    3    0    0 -0.86557983319E+01  0.39607668882E+02 -0.38988867856E+02  0.56247863032E+02  0.00000000000E+00 0.  1.
         11    1    3    3    0    0  0.48635308455E+02 -0.59181689676E+01  0.17915327743E+02  0.52166818195E+02  0.00000000000E+00 0. -1.
</event>
<event>
 7    1  0.4687179E-006  0.9755449E+02  0.7561462E-02  0.1285524E+00
         -2   -1    0    0    0  501 -0.00000000000E+00  0.00000000000E+00  0.14695216226E+04  0.14695216226E+04  0.00000000000E+00 0.  1.
          2   -1    0    0  501    0  0.00000000000E+00 -0.00000000000E+00 -0.16781358804E+02  0.16781358804E+02  0.00000000000E+00 0. -1.
         23    2    1    2    0    0 -0.71933547645E+02  0.34339000233E+02  0.28067907566E+03  0.30550209481E+03  0.90538302423E+02 0.  0.
          5    1    1    2  502    0 -0.71682689689E+01 -0.11938798538E+02  0.15270856346E+02  0.21085313469E+02  0.41800000000E+01 0. -1.
         -5    1    1    2    0  502  0.79101816614E+02 -0.22400201695E+02  0.11567903318E+04  0.11597155731E+04  0.41800000000E+01 0.  1.
        -11    1    3    3    0    0 -0.32897412227E+02  0.46861241975E+02  0.67937544325E+02  0.88846641240E+02  0.00000000000E+00 0. -1.
         11    1    3    3    0    0 -0.39036135418E+02 -0.12522241742E+02  0.21274153133E+03  0.21665545357E+03  0.00000000000E+00 0.  1.
</event>
<event>
 7    1  0.4687179E-006  0.1305095E+03  0.7561462E-02  0.1226702E+00
          1   -1    0    0  501    0  0.00000000000E+00  0.00000000000E+00  0.49261599716E+02  0.49261599716E+02  0.00000000000E+00 0. -1.
         -1   -1    0    0    0  501 -0.00000000000E+00 -0.00000000000E+00 -0.41691677501E+03  0.41691677501E+03  0.00000000000E+00 0.  1.
         23    2    1    2    0    0  0.64461413055E+02  0.66147175107E+02 -0.15255111186E+03  0.20075788041E+03  0.92201747654E+02 0.  0.
          5    1    1    2  502    0 -0.85737521333E+02 -0.78930209688E+02 -0.12115218812E+03  0.16815536165E+03  0.41800000000E+01 0. -1.
         -5    1    1    2    0  502  0.21276108277E+02  0.12783034581E+02 -0.93951875316E+02  0.97265132663E+02  0.41800000000E+01 0. -1.
        -11    1    3    3    0    0  0.70633090212E+01  0.61221291574E+02 -0.37635456740E+02  0.72210556571E+02  0.00000000000E+00 0. -1.
         11    1    3    3    0    0  0.57398104034E+02  0.49258835336E+01 -0.11491565512E+03  0.12854732384E+03  0.00000000000E+00 0.  1.
</event>
<event>
 7    1  0.4687179E-006  0.1006456E+03  0.7561462E-02  0.1278944E+00
         -2   -1    0    0    0  501 -0.00000000000E+00  0.00000000000E+00  0.84696780159E+02  0.84696780159E+02  0.00000000000E+00 0.  1.
          2   -1    0    0  501    0  0.00000000000E+00 -0.00000000000E+00 -0.21086157644E+03  0.21086157644E+03  0.00000000000E+00 0. -1.
         23    2    1    2    0    0 -0.98119906505E+01  0.38953944352E+02 -0.12851203774E+03  0.16416702687E+03  0.93924352136E+02 0.  0.
          5    1    1    2  502    0  0.56340480567E+02  0.16239441128E+02  0.52998988345E+01  0.59021441243E+02  0.41800000000E+01 0. -1.
         -5    1    1    2    0  502 -0.46528489917E+02 -0.55193385480E+02 -0.29526573739E+01  0.72369888491E+02  0.41800000000E+01 0. -1.
        -11    1    3    3    0    0 -0.20083013459E+02 -0.83813664480E+01  0.48375779992E+01  0.22292978582E+02  0.00000000000E+00 0. -1.
         11    1    3    3    0    0  0.10271022809E+02  0.47335310800E+02 -0.13334961574E+03  0.14187404828E+03  0.00000000000E+00 0.  1.
</event>
<event>
 7    1  0.4687179E-006  0.1418705E+03  0.7561462E-02  0.1210834E+00
          2   -1    0    0  501    0  0.00000000000E+00  0.00000000000E+00  0.20382931174E+03  0.20382931174E+03  0.00000000000E+00 0. -1.
         -2   -1    0    0    0  501 -0.00000000000E+00 -0.00000000000E+00 -0.10346484739E+03  0.10346484739E+03  0.00000000000E+00 0.  1.
         23    2    1    2    0    0  0.20429918180E+02 -0.94447453099E+02  0.52999277278E+02  0.14228405548E+03  0.89989588838E+02 0.  0.
          5    1    1    2  502    0  0.29739568250E+02 -0.17389106729E+02  0.17092355540E+02  0.38683898077E+02  0.41800000000E+01 0.  1.
         -5    1    1    2    0  502 -0.50169486430E+02  0.11183655983E+03  0.30272831532E+02  0.12632620556E+03  0.41800000000E+01 0.  1.
        -11    1    3    3    0    0  0.34698514701E+02 -0.41165159551E+01 -0.29660443363E+01  0.35067506970E+02  0.00000000000E+00 0.  1.
         11    1    3    3    0    0 -0.14268596521E+02 -0.90330937144E+02  0.55965321615E+02  0.10721654851E+03  0.00000000000E+00 0. -1.
</event>
<event>
 7    1  0.4687179E-006  0.1348265E+03  0.7561462E-02  0.1220465E+00
         -1   -1    0    0    0  501 -0.00000000000E+00  0.00000000000E+00  0.95428777706E+02  0.95428777706E+02  0.00000000000E+00 0.  1.
          1   -1    0    0  501    0  0.00000000000E+00 -0.00000000000E+00 -0.24905455602E+03  0.24905455602E+03  0.00000000000E+00 0. -1.
         23    2    1    2    0    0 -0.26059802222E+02  0.77638345172E+02 -0.15159931852E+03  0.19495661458E+03  0.91208016424E+02 0.  0.
          5    1    1    2  502    0  0.58421633380E+02  0.60859877054E+01  0.66009940972E+01  0.59255143373E+02  0.41800000000E+01 0. -1.
         -5    1    1    2    0  502 -0.32361831158E+02 -0.83724332877E+02 -0.86274538899E+01  0.90271575772E+02  0.41800000000E+01 0. -1.
        -11    1    3    3    0    0 -0.25435955917E+02 -0.14157321008E+02 -0.51349384943E+02  0.59026916958E+02  0.00000000000E+00 0.  1.
         11    1    3    3    0    0 -0.62384630494E+00  0.91795666180E+02 -0.10024993358E+03  0.13592969762E+03  0.00000000000E+00 0. -1.
</event>
<event>
 7    1  0.4687179E-006  0.7023239E+02  0.7561462E-02  0.1359305E+00
          2   -1    0    0  501    0  0.00000000000E+00  0.00000000000E+00  0.11034604417E+03  0.11034604417E+03  0.00000000000E+00 0. -1.
         -2   -1    0    0    0  501 -0.00000000000E+00 -0.00000000000E+00 -0.11596753076E+03  0.11596753076E+03  0.00000000000E+00 0.  1.
         23    2    1    2    0    0  0.51484362683E+01  0.47195501747E+01  0.19641573305E+02  0.98509160078E+02  0.96278152597E+02 0.  0.
          5    1    1    2  502    0  0.79133215711E+01  0.48779979111E+02  0.22805602685E+02  0.54586398802E+02  0.41800000000E+01 0.  1.
         -5    1    1    2    0  502 -0.13061757839E+02 -0.53499529285E+02 -0.48068662581E+02  0.73218016048E+02  0.41800000000E+01 0.  1.
        -11    1    3    3    0    0 -0.14329864740E+02 -0.30839719504E+01 -0.36092780844E+02  0.38955676551E+02  0.00000000000E+00 0.  1.
         11    1    3    3    0    0  0.19478301009E+02  0.78035221251E+01  0.55734354149E+02  0.59553483527E+02  0.00000000000E+00 0. -1.
</event>
<event>
 7    1  0.4687179E-006  0.8857172E+02  0.7561462E-02  0.1306348E+00
          1   -1    0    0  501    0  0.00000000000E+00  0.00000000000E+00  0.24962973000E+02  0.24962973000E+02  0.00000000000E+00 0. -1.
         -1   -1    0    0    0  501 -0.00000000000E+00 -0.00000000000E+00 -0.48277587654E+03  0.48277587654E+03  0.00000000000E+00 0.  1.
         23    2    1    2    0    0  0.11947650570E+02 -0.37116886393E+01 -0.14806076761E+03  0.17344800333E+03  0.89474554856E+02 0.  0.
          5    1    1    2  502    0 -0.45527017026E+02  0.28254833380E+02 -0.27419218474E+03  0.27940986286E+03  0.41800000000E+01 0.  1.
         -5    1    1    2    0  502  0.33579366456E+02 -0.24543144740E+02 -0.35559951185E+02  0.54880983351E+02  0.41800000000E+01 0.  1.
        -11    1    3    3    0    0 -0.34269753529E+02  0.47922595237E+01 -0.27982615304E+02  0.44501781060E+02  0.00000000000E+00 0. -1.
         11    1    3    3    0    0  0.46217404099E+02 -0.85039481631E+01 -0.12007815231E+03  0.12894622227E+03  0.00000000000E+00 0.  1.
</event>
<event>
 7    1  0.4687179E-006  0.1377165E+03  0.7561462E-02  0.1216435E+00
         -2   -1    0    0    0  501 -0.00000000000E+00  0.00000000000E+00  0.23450671736E+03  0.23450671736E+03  0.00000000000E+00 0.  1.
          2   -1    0    0  501    0  0.00000000000E+00 -0.00000000000E+00 -0.94320987509E+02  0.94320987509E+02  0.00000000000E+00 0. -1.
         23    2    1    2    0    0 -0.10652331836E+03 -0.24276393846E+02  0.71611652570E+02  0.14913680710E+03  0.71951357165E+02 0.  0.
          5    1    1    2  502    0  0.12714942750E+03  0.46222514841E+02  0.60298785533E+02  0.14817865477E+03  0.41800000000E+01 0.  1.
         -5    1    1    2    0  502 -0.20626109144E+02 -0.21946120995E+02  0.82752917457E+01  0.31512242996E+02  0.41800000000E+01 0.  1.
        -11    1    3    3    0    0 -0.32230385331E+02 -0.11888090520E+02 -0.12199566311E+02  0.36454819338E+02  0.00000000000E+00 0. -1.
         11    1    3    3    0    0 -0.74292933025E+02 -0.12388303326E+02  0.83811218881E+02  0.11268198777E+03  0.00000000000E+00 0.  1.
</event>
<event>
 7    1  0.4687179E-006  0.1327465E+03  0.7561462E-02  0.1223436E+00
          2   -1    0    0  501    0  0.00000000000E+00  0.00000000000E+00  0.53005016905E+02  0.53005016905E+02  0.00000000000E+00 0. -1.
         -2   -1    0    0    0  501 -0.00000000000E+00 -0.00000000000E+00 -0.61928776156E+03  0.61928776156E+03  0.00000000000E+00 0.  1.
         23    2    1    2    0    0 -0.18509648429E+02  0.21518941971E+02 -0.47390848278E+02  0.10654969877E+03  0.91111326733E+02 0.  0.
          5    1    1    2  502    0 -0.59045120407E+02  0.41266213797E+02 -0.53687279449E+02  0.89938996101E+02  0.41800000000E+01 0. -1.
         -5    1    1    2    0  502  0.77554768836E+02 -0.62785155768E+02 -0.46520461693E+03  0.47580408360E+03  0.41800000000E+01 0.  1.
        -11    1    3    3    0    0  0.35479607146E+02  0.16839557347E+02 -0.30692214961E+02  0.49843608157E+02  0.00000000000E+00 0.  1.
         11    1    3    3    0    0 -0.53989255575E+02  0.46793846233E+01 -0.16698633316E+02  0.56706090613E+02  0.00000000000E+00 0. -1.
</event>
<event>
 7    1  0.4687179E-006  0.1099931E+03  0.7561462E-02  0.1260583E+00
          2   -1    0    0  501    0  0.00000000000E+00  0.00000000000E+00  0.31724664850E+02  0.31724664850E+02  0.00000000000E+00 0.  1.
         -2   -1    0    0    0  501 -0.00000000000E+00 -0.00000000000E+00 -0.47901458891E+03  0.47901458891E+03  0.00000000000E+00 0. -1.
         23    2    1    2    0    0 -0.41133271187E+02 -0.70804749775E+00 -0.24414736581E+03  0.26865100873E+03  0.10427358694E+03 0.  0.
          5    1    1    2  502    0  0.56969189694E+02  0.48193437782E+02 -0.15699983236E+03  0.17388075161E+03  0.41800000000E+01 0. -1.
         -5    1    1    2    0  502 -0.15835918507E+02 -0.47485390284E+02 -0.46142725897E+02  0.68207493420E+02  0.41800000000E+01 0. -1.
        -11    1    3    3    0    0 -0.35682373136E+02 -0.41004076159E+02 -0.20544515283E+03  0.21251418031E+03  0.00000000000E+00 0. -1.
         11    1    3    3    0    0 -0.54508980509E+01  0.40296028662E+02 -0.38702212981E+02  0.56136828420E+02  0.00000000000E+00 0.  1.
</event>
<event>
 7    1  0.4687179E-006  0.1569750E+03  0.7561462E-02  0.1192155E+00
          1   -1    0    0  501    0  0.00000000000E+00  0.00000000000E+00  0.46788020839E+03  0.46788020839E+03  0.00000000000E+00 0. -1.
         -1   -1    0    0    0  501 -0.00000000000E+00 -0.00000000000E+00 -0.74595256186E+02  0.74595256186E+02  0.00000000000E+00 0.  1.
         23    2    1    2    0    0  0.21966409258E+02 -0.14409305828E+03  0.24480538124E+03  0.29969944919E+03  0.92977161611E+02 0.  0.
          5    1    1    2  502    0 -0.17502101292E+02  0.22233181595E+02  0.11175281444E+03  0.11535511193E+03  0.41800000000E+01 0.  1.
         -5    1    1    2    0  502 -0.44643079653E+01  0.12185987669E+03  0.36726756524E+02  0.12742090345E+03  0.41800000000E+01 0.  1.
        -11    1    3    3    0    0  0.41034528343E+02 -0.13696064172E+03  0.16978708430E+03  0.22196779922E+03  0.00000000000E+00 0.  1.
         11    1    3    3    0    0 -0.19068119085E+02 -0.71324165641E+01  0.75018296937E+02  0.77731649968E+02  0.00000000000E+00 0. -1.
</event>
<event>
 7    1  0.4687179E-006  0.1717736E+03  0.7561462E-02  0.1176011E+00
         -2   -1    0    0    0  501 -0.00000000000E+00  0.00000000000E+00  0.32618514612E+02  0.32618514612E+02  0.00000000000E+00 0.  1.
          2   -1    0    0  501    0  0.00000000000E+00 -0.00000000000E+00 -0.12397864824E+04  0.12397864824E+04  0.00000000000E+00 0. -1.
         23    2    1    2    0    0 -0.15578147952E+03  0.30280253703E+02 -0.39641465302E+03  0.43684925406E+03  0.92238443808E+02 0.  0.
          5    1    1    2  502    0  0.10260556919E+03 -0.10941958155E+02 -0.23101257753E+03  0.25304527787E+03  0.41800000000E+01 0. -1.
         -5    1    1    2    0  502  0.53175910333E+02 -0.19338295548E+02 -0.57974073725E+03  0.58251046510E+03  0.41800000000E+01 0. -1.
        -11    1    3    3    0    0 -0.10171584808E+03 -0.26523972612E+02 -0.23003399125E+03  0.25291356628E+03  0.00000000000E+00 0. -1.
         11    1    3    3    0    0 -0.54065631438E+02  0.56804226315E+02 -0.16638066177E+03  0.18393568778E+03  0.00000000000E+00 0.  1.
</event>
<event>
 7    1  0.4687179E-006  0.9372818E+02  0.7561462E-02  0.1294067E+00
         -2   -1    0    0    0  501 -0.00000000000E+00  0.00000000000E+00  0.10638982367E+03  0.10638982367E+03  0.00000000000E+00 0.  1.
          2   -1    0    0  501    0  0.00000000000E+00 -0.00000000000E+00 -0.46515814571E+03  0.46515814571E+03  0.00000000000E+00 0. -1.
         23    2    1    2    0    0  0.13099434688E+01 -0.50994922382E+02 -0.41303507494E+03  0.42596770486E+03  0.90820231187E+02 0.  0.
          5    1    1    2  502    0 -0.35703684831E+02  0.51235353493E+02  0.80610057349E+02  0.10205522184E+03  0.41800000000E+01 0.  1.
         -5    1    1    2    0  502  0.34393741362E+02 -0.24043111116E+00 -0.26343304445E+02  0.43525042689E+02  0.41800000000E+01 0.  1.
        -11    1    3    3    0    0 -0.12384063877E+02  0.16903685529E+02 -0.29245680048E+02  0.35977901885E+02  0.00000000000E+00 0.  1.
         11    1    3    3    0    0  0.13694007345E+02 -0.67898607911E+02 -0.38378939489E+03  0.38998980297E+03  0.00000000000E+00 0. -1.
</event>
<event>
 7    1  0.4687179E-006  0.1065295E+03  0.7561462E-02  0.1267135E+00
          2   -1    0    0  501    0  0.00000000000E+00  0.00000000000E+00  0.51838136953E+03  0.51838136953E+03  0.00000000000E+00 0. -1.
         -2   -1    0    0    0  501 -0.00000000000E+00 -0.00000000000E+00 -0.30986426308E+02  0.30986426308E+02  0.00000000000E+00 0.  1.
         23    2    1    2    0    0 -0.50702290526E+02  0.24437198729E+02  0.29083687783E+03  0.30968505102E+03  0.90282015782E+02 0.  0.
          5    1    1    2  502    0  0.62609931675E+02 -0.48927337956E+02  0.19664349371E+03  0.21213209084E+03  0.41800000000E+01 0. -1.
         -5    1    1    2    0  502 -0.11907641149E+02  0.24490139227E+02 -0.85428313404E-01  0.27550653987E+02  0.41800000000E+01 0. -1.
        -11    1    3    3    0    0  0.41081192788E+01  0.46626448161E+02  0.11449888238E+03  0.12369679211E+03  0.00000000000E+00 0. -1.
         11    1    3    3    0    0 -0.54810409805E+02 -0.22189249432E+02  0.17633799545E+03  0.18598825891E+03  0.00000000000E+00 0.  1.
</event>
<event>
 7    1  0.7391756E-006  0.2450163E+03  0.7561462E-02  0.1116496E+00
         -2   -1    0    0    0  501 -0.00000000000E+00  0.00000000000E+00  0.72128252071E+02  0.72128252071E+02  0.00000000000E+00 0. -1.
          2   -1    0    0  501    0  0.00000000000E+00 -0.00000000000E+00 -0.95988420102E+03  0.95988420102E+03  0.00000000000E+00 0.  1.
         23    2    1    2    0    0 -0.22937899298E+03  0.35035018673E+02 -0.54626541496E+03  0.60061260578E+03  0.92127214678E+02 0.  0.
          5    1    1    2  502    0  0.16028524816E+03 -0.56358899075E+02 -0.15005126377E+03  0.22671687286E+03  0.41800000000E+01 0. -1.
         -5    1    1    2    0  502  0.69093744819E+02  0.21323880402E+02 -0.19143927023E+03  0.20468297446E+03  0.41800000000E+01 0. -1.
        -11    1    3    3    0    0 -0.22251377234E+02 -0.23543177726E+02 -0.48784851919E+02  0.58560795614E+02  0.00000000000E+00 0. -1.
         11    1    3    3    0    0 -0.20712761574E+03  0.58578196399E+02 -0.49748056304E+03  0.54205181016E+03  0.00000000000E+00 0.  1.
</event>
<event>
 7    1  0.4687179E-006  0.1279972E+03  0.7561462E-02  0.1230458E+00
          4   -1    0    0  501    0  0.00000000000E+00  0.00000000000E+00  0.66657880624E+03  0.66657880624E+03  0.00000000000E+00 0. -1.
         -4   -1    0    0    0  501 -0.00000000000E+00 -0.00000000000E+00 -0.30376739538E+02  0.30376739538E+02  0.00000000000E+00 0.  1.
         23    2    1    2    0    0  0.73433238539E+02  0.21950138396E+02  0.41497063142E+03  0.43150459665E+03  0.90118493602E+02 0.  0.
          5    1    1    2  502    0 -0.34501296470E+02  0.51770338235E+02  0.10908805670E+03  0.12565104016E+03  0.41800000000E+01 0.  1.
         -5    1    1    2    0  502 -0.38931942069E+02 -0.73720476630E+02  0.11214337858E+03  0.13979990897E+03  0.41800000000E+01 0.  1.
        -11    1    3    3    0    0  0.83736363801E+02 -0.23537225615E+01  0.36995021430E+03  0.37931580470E+03  0.00000000000E+00 0. -1.
         11    1    3    3    0    0 -0.10303125262E+02  0.24303860957E+02  0.45020417118E+02  0.52188791949E+02  0.00000000000E+00 0.  1.
</event>
<event>
 7    1  0.4687179E-006  0.8576068E+02  0.7561462E-02  0.1313455E+00
         -1   -1    0    0    0  501 -0.00000000000E+00  0.00000000000E+00  0.39201571885E+02  0.39201571885E+02  0.00000000000E+00 0.  1.
          1   -1    0    0  501    0  0.00000000000E+00 -0.00000000000E+00 -0.32318344553E+03  0.32318344553E+03  0.00000000000E+00 0. -1.
         23    2    1    2    0    0 -0.16929599368E+02  0.24271019771E+02 -0.14893690910E+03  0.17606142452E+03  0.89105154610E+02 0.  0.
          5    1    1    2  502    0 -0.15361878475E+02 -0.55740880278E+02 -0.17805363073E+02  0.60642694519E+02  0.41800000000E+01 0.  1.
         -5    1    1    2    0  502  0.32291477843E+02  0.31469860507E+02 -0.11723960147E+03  0.12568089837E+03  0.41800000000E+01 0.  1.
        -11    1    3    3    0    0 -0.39302218526E+02  0.68087562924E+01 -0.21124782257E+02  0.45136237866E+02  0.00000000000E+00 0.  1.
         11    1    3    3    0    0  0.22372619158E+02  0.17462263478E+02 -0.12781212684E+03  0.13092518666E+03  0.00000000000E+00 0. -1.
</event>
<event>
 7    1  0.4687179E-006  0.1573236E+03  0.7561462E-02  0.1191752E+00
          1   -1    0    0  501    0  0.00000000000E+00  0.00000000000E+00  0.15334887289E+03  0.15334887289E+03  0.00000000000E+00 0. -1.
         -1   -1    0    0    0  501 -0.00000000000E+00 -0.00000000000E+00 -0.23412705501E+03  0.23412705501E+03  0.00000000000E+00 0.  1.
         23    2    1    2    0    0  0.93052642808E+02  0.87168097582E+02  0.51048073975E+02  0.16547438724E+03  0.92297320690E+02 0.  0.
          5    1    1    2  502    0 -0.27858047872E+02  0.18493400679E+02 -0.81091470319E+02  0.87814438781E+02  0.41800000000E+01 0.  1.
         -5    1    1    2    0  502 -0.65194594936E+02 -0.10566149826E+03 -0.50734785779E+02  0.13418710188E+03  0.41800000000E+01 0.  1.
        -11    1    3    3    0    0  0.21569133263E+02 -0.18992195542E+02  0.35352438994E+01  0.28955637632E+02  0.00000000000E+00 0.  1.
         11    1    3    3    0    0  0.71483509544E+02  0.10616029312E+03  0.47512830076E+02  0.13651874961E+03  0.00000000000E+00 0. -1.
</event>
<event>
 7    1  0.4687179E-006  0.1654637E+03  0.7561462E-02  0.1182663E+00
          2   -1    0    0  501    0  0.00000000000E+00  0.00000000000E+00  0.33207913190E+03  0.33207913190E+03  0.00000000000E+00 0.  1.
         -2   -1    0    0    0  501 -0.00000000000E+00 -0.00000000000E+00 -0.15727631259E+03  0.15727631259E+03  0.00000000000E+00 0. -1.
         23    2    1    2    0    0 -0.10113782853E+03  0.11220997754E+03  0.22547778238E+03  0.28678564184E+03  0.92659778764E+02 0.  0.
          5    1    1    2  502    0  0.83160595468E+02 -0.10618713087E+03  0.13413438164E+02  0.13560525110E+03  0.41800000000E+01 0.  1.
         -5    1    1    2    0  502  0.17977233063E+02 -0.60228466707E+01 -0.64088401239E+02  0.66964551548E+02  0.41800000000E+01 0.  1.
        -11    1    3    3    0    0  0.15441280061E+02  0.30574014193E+02  0.34558298339E+02  0.48656751411E+02  0.00000000000E+00 0. -1.
         11    1    3    3    0    0 -0.11657910859E+03  0.81635963352E+02  0.19091948404E+03  0.23812889043E+03  0.00000000000E+00 0.  1.
</event>
<event>
 7    1  0.4687179E-006  0.1076053E+03  0.7561462E-02  0.1265070E+00
          2   -1    0    0  501    0  0.00000000000E+00  0.00000000000E+00  0.53027602845E+03  0.53027602845E+03  0.00000000000E+00 0. -1.
         -2   -1    0    0    0  501 -0.00000000000E+00 -0.00000000000E+00 -0.28950384326E+02  0.28950384326E+02  0.00000000000E+00 0.  1.
         23    2    1    2    0    0 -0.36154963730E+02 -0.50516197456E+02  0.21596908204E+03  0.24152527719E+03  0.88502810793E+02 0.  0.
          5    1    1    2  502    0  0.39819939755E+02  0.88790934573E+02  0.23357806619E+03  0.25307240677E+03  0.41800000000E+01 0. -1.
         -5    1    1    2    0  502 -0.36649760252E+01 -0.38274737116E+02  0.51778495899E+02  0.64628728814E+02  0.41800000000E+01 0. -1.
        -11    1    3    3    0    0  0.85764391427E+01 -0.27543156543E+02  0.11653341614E+02  0.31112395464E+02  0.00000000000E+00 0.  1.
         11    1    3    3    0    0 -0.44731402872E+02 -0.22973040913E+02  0.20431574042E+03  0.21041288173E+03  0.00000000000E+00 0. -1.
</event>
<event>
 7    1  0.4687179E-006  0.8863189E+02  0.7561462E-02  0.1306199E+00
         -2   -1    0    0    0  501 -0.00000000000E+00  0.00000000000E+00  0.26302117319E+02  0.26302117319E+02  0.00000000000E+00 0.  1.
          2   -1    0    0  501    0  0.00000000000E+00 -0.00000000000E+00 -0.55478366967E+03  0.55478366967E+03  0.00000000000E+00 0. -1.
         23    2    1    2    0    0  0.46473172768E+02  0.14540748787E+02 -0.28823172484E+03  0.30588470352E+03  0.90092926927E+02 0.  0.
          5    1    1    2  502    0 -0.60818695187E+02 -0.21579112678E+02 -0.24847289287E+03  0.25675050668E+03  0.41800000000E+01 0. -1.
         -5    1    1    2    0  502  0.14345522418E+02  0.70383638913E+01  0.82230653634E+01  0.18450576785E+02  0.41800000000E+01 0. -1.
        -11    1    3    3    0    0  0.61456853000E+02  0.34995830402E+02 -0.25147723314E+03  0.26123256250E+03  0.00000000000E+00 0. -1.
         11    1    3    3    0    0 -0.14983680232E+02 -0.20455081615E+02 -0.36754491703E+02  0.44652141019E+02  0.00000000000E+00 0.  1.
</event>
<event>
 7    1  0.4687179E-006  0.1637396E+03  0.7561462E-02  0.1184538E+00
         -1   -1    0    0    0  501 -0.00000000000E+00  0.00000000000E+00  0.19518024407E+03  0.19518024407E+03  0.00000000000E+00 0.  1.
          1   -1    0    0  501    0  0.00000000000E+00 -0.00000000000E+00 -0.16627731782E+03  0.16627731782E+03  0.00000000000E+00 0. -1.
         23    2    1    2    0    0 -0.38090869899E+02 -0.12517732602E+03 -0.46116273256E+02  0.16550711344E+03  0.90253069874E+02 0.  0.
          5    1    1    2  502    0 -0.33371937197E+02 -0.34152020721E+01  0.15643880231E+02  0.37249874982E+02  0.41800000000E+01 0.  1.
         -5    1    1    2    0  502  0.71462807096E+02  0.12859252809E+03  0.59375319280E+02  0.15870057347E+03  0.41800000000E+01 0.  1.
        -11    1    3    3    0    0 -0.28634294525E+02 -0.91126250452E+01  0.15445630265E+02  0.33786539516E+02  0.00000000000E+00 0. -1.
         11    1    3    3    0    0 -0.94565753739E+01 -0.11606470098E+03 -0.61561903522E+02  0.13172057393E+03  0.00000000000E+00 0.  1.
</event>
<event>
 7    1  0.4687179E-006  0.1001803E+03  0.7561462E-02  0.1279917E+00
          1   -1    0    0  501    0  0.00000000000E+00  0.00000000000E+00  0.78135772015E+02  0.78135772015E+02  0.00000000000E+00 0. -1.
         -1   -1    0    0    0  501 -0.00000000000E+00 -0.00000000000E+00 -0.19790081992E+03  0.19790081992E+03  0.00000000000E+00 0.  1.
         23    2    1    2    0    0  0.59769595326E+02 -0.12405993364E+02 -0.39529504009E+02  0.11537242242E+03  0.89565065572E+02 0.  0.
          5    1    1    2  502    0 -0.67433413168E+02  0.59841015247E+02 -0.59891963280E+02  0.10831773623E+03  0.41800000000E+01 0.  1.
         -5    1    1    2    0  502  0.76638178418E+01 -0.47435021883E+02 -0.20343580615E+02  0.52346433280E+02  0.41800000000E+01 0.  1.
        -11    1    3    3    0    0  0.38974888917E+02 -0.12961041523E+02  0.24652268909E+02  0.47903704720E+02  0.00000000000E+00 0. -1.
         11    1    3    3    0    0  0.20794706409E+02  0.55504815894E+00 -0.64181772918E+02  0.67468717699E+02  0.00000000000E+00 0.  1.
</event>
<event>
 7    1  0.4687179E-006  0.1027028E+03  0.7561462E-02  0.1274713E+00
          2   -1    0    0  501    0  0.00000000000E+00  0.00000000000E+00  0.49956946487E+03  0.49956946487E+03  0.00000000000E+00 0. -1.
         -2   -1    0    0    0  501 -0.00000000000E+00 -0.00000000000E+00 -0.39785164183E+02  0.39785164183E+02  0.00000000000E+00 0.  1.
         23    2    1    2    0    0  0.13855172427E+02  0.84281312501E+02  0.26603829367E+03  0.29343537420E+03  0.89624994811E+02 0.  0.
          5    1    1    2  502    0 -0.22729469406E+01 -0.58981747797E+02  0.99768207726E+01  0.60008517843E+02  0.41800000000E+01 0.  1.
         -5    1    1    2    0  502 -0.11582225487E+02 -0.25299564704E+02  0.18376918624E+03  0.18591073701E+03  0.41800000000E+01 0.  1.
        -11    1    3    3    0    0 -0.91548915179E+01 -0.14236455273E+02  0.14404833366E+02  0.22225839056E+02  0.00000000000E+00 0. -1.
         11    1    3    3    0    0  0.23010063945E+02  0.98517767774E+02  0.25163346030E+03  0.27120953514E+03  0.00000000000E+00 0.  1.
</event>
<event>
 7    1  0.4687179E-006  0.1067194E+03  0.7561462E-02  0.1266769E+00
         -1   -1    0    0    0  501 -0.00000000000E+00  0.00000000000E+00  0.71995294787E+03  0.71995294787E+03  0.00000000000E+00 0.  1.
          1   -1    0    0  501    0  0.00000000000E+00 -0.00000000000E+00 -0.41131271050E+02  0.41131271050E+02  0.00000000000E+00 0. -1.
         23    2    1    2    0    0 -0.18259278225E+02  0.21138768600E+02  0.30876001718E+02  0.10058355532E+03  0.91561320103E+02 0.  0.
          5    1    1    2  502    0 -0.80277674380E+01 -0.67535914804E+02  0.25564771690E+03  0.26457281114E+03  0.41800000000E+01 0.  1.
         -5    1    1    2    0  502  0.26287045663E+02  0.46397146204E+02  0.39229795820E+03  0.39592785246E+03  0.41800000000E+01 0.  1.
        -11    1    3    3    0    0  0.35289634740E+02  0.13186877530E+02  0.26920805917E+02  0.46303151624E+02  0.00000000000E+00 0. -1.
         11    1    3    3    0    0 -0.53548912965E+02  0.79518910701E+01  0.39551958010E+01  0.54280403694E+02  0.00000000000E+00 0.  1.
</event>
<event>
 7    1  0.4687179E-006  0.1110724E+03  0.7561462E-02  0.1258597E+00
          3   -1    0    0  501    0  0.00000000000E+00  0.00000000000E+00  0.18454479828E+03  0.18454479828E+03  0.00000000000E+00 0. -1.
         -3   -1    0    0    0  501 -0.00000000000E+00 -0.00000000000E+00 -0.93749443978E+02  0.93749443978E+02  0.00000000000E+00 0.  1.
         23    2    1    2    0    0  0.22060343783E+02  0.53838280762E+02  0.78703566440E+02  0.13980818676E+03  0.99834154831E+02 0.  0.
          5    1    1    2  502    0 -0.17561613033E+02 -0.85013010245E+02 -0.24234836286E+02  0.90224286381E+02  0.41800000000E+01 0.  1.
         -5    1    1    2    0  502 -0.44987307496E+01  0.31174729482E+02  0.36326624152E+02  0.48261769123E+02  0.41800000000E+01 0.  1.
        -11    1    3    3    0    0  0.48259488716E+02  0.59548217628E+02  0.26463173445E+02  0.81088026382E+02  0.00000000000E+00 0.  1.
         11    1    3    3    0    0 -0.26199144933E+02 -0.57099368656E+01  0.52240392995E+02  0.58720160375E+02  0.00000000000E+00 0. -1.
</event>
<event>
 7    1  0.4687179E-006  0.8812473E+02  0.7561462E-02  0.1307458E+00
         -2   -1    0    0    0  501 -0.00000000000E+00  0.00000000000E+00  0.53210395307E+02  0.53210395307E+02  0.00000000000E+00 0. -1.
          2   -1    0    0  501    0  0.00000000000E+00 -0.00000000000E+00 -0.26707603510E+03  0.26707603510E+03  0.00000000000E+00 0.  1.
         23    2    1    2    0    0 -0.30705947493E+02  0.39456421993E+02 -0.11198437581E+03  0.15138659352E+03  0.88756610042E+02 0.  0.
          5    1    1    2  502    0  0.21107797560E+02 -0.78377716324E+02 -0.99566942772E+02  0.12852880621E+03  0.41800000000E+01 0.  1.
         -5    1    1    2    0  502  0.95981499332E+01  0.38921294331E+02 -0.23143212137E+01  0.40371030668E+02  0.41800000000E+01 0.  1.
        -11    1    3    3    0    0 -0.31638499730E+02  0.25381503062E+02 -0.12547503686E+03  0.13186811684E+03  0.00000000000E+00 0.  1.
         11    1    3    3    0    0  0.93255223687E+00  0.14074918931E+02  0.13490661053E+02  0.19518476689E+02  0.00000000000E+00 0. -1.
</event>
<event>
 7    1  0.4687179E-006  0.1460860E+03  0.7561462E-02  0.1205367E+00
          2   -1    0    0  501    0  0.00000000000E+00  0.00000000000E+00  0.16364192415E+03  0.16364192415E+03  0.00000000000E+00 0. -1.
         -2   -1    0    0    0  501 -0.00000000000E+00 -0.00000000000E+00 -0.13386749420E+03  0.13386749420E+03  0.00000000000E+00 0.  1.
         23    2    1    2    0    0 -0.27855196615E+02 -0.95997452852E+02  0.22256396754E+02  0.13721259753E+03  0.91326484618E+02 0.  0.
          5    1    1    2  502    0  0.64240562226E+02  0.10114886015E+03 -0.80526923699E+01  0.12016763291E+03  0.41800000000E+01 0.  1.
         -5    1    1    2    0  502 -0.36385365611E+02 -0.51514072968E+01  0.15570725566E+02  0.40129187912E+02  0.41800000000E+01 0.  1.
        -11    1    3    3    0    0  0.31426040300E+02 -0.54553303598E+02  0.13068350543E+02  0.64299616859E+02  0.00000000000E+00 0.  1.
         11    1    3    3    0    0 -0.59281236914E+02 -0.41444149254E+02  0.91880462112E+01  0.72912980673E+02  0.00000000000E+00 0. -1.
</event>
<event>
 7    1  0.4687179E-006  0.7689215E+02  0.7561462E-02  0.1338110E+00
          2   -1    0    0  501    0  0.00000000000E+00  0.00000000000E+00  0.23119018371E+03  0.23119018371E+03  0.00000000000E+00 0. -1.
         -2   -1    0    0    0  501 -0.00000000000E+00 -0.00000000000E+00 -0.52396617401E+02  0.52396617401E+02  0.00000000000E+00 0.  1.
         23    2    1    2    0    0 -0.15670800890E+02  0.11445839724E+02  0.67020578099E+02  0.11469679204E+03  0.91033043276E+02 0.  0.
          5    1    1    2  502    0  0.38345922253E+02  0.27718236269E+02 -0.78226044943E+00  0.47505733409E+02  0.41800000000E+01 0.  1.
         -5    1    1    2    0  502 -0.22675121363E+02 -0.39164075993E+02  0.11255524866E+03  0.12138427566E+03  0.41800000000E+01 0.  1.
        -11    1    3    3    0    0 -0.14596421193E+02  0.34655088249E+02  0.79774038298E+02  0.88192561135E+02  0.00000000000E+00 0. -1.
         11    1    3    3    0    0 -0.10743796976E+01 -0.23209248525E+02 -0.12753460199E+02  0.26504230905E+02  0.00000000000E+00 0.  1.
</event>
<event>
 7    1  0.4687179E-006  0.2560897E+03  0.7561462E-02  0.1109516E+00
          2   -1    0    0  501    0  0.00000000000E+00  0.00000000000E+00  0.96462170011E+03  0.96462170011E+03  0.00000000000E+00 0. -1.
         -2   -1    0    0    0  501 -0.00000000000E+00 -0.00000000000E+00 -0.13245168342E+03  0.13245168342E+03  0.00000000000E+00 0.  1.
         23    2    1    2    0    0  0.23809193186E+03  0.43886559100E+02  0.77672988057E+03  0.81898034314E+03  0.93838675377E+02 0.  0.
          5    1    1    2  502    0 -0.16468398263E+03 -0.63653350641E+02  0.85526687501E+02  0.19622652689E+03  0.41800000000E+01 0.  1.
         -5    1    1    2    0  502 -0.73407949227E+02  0.19766791541E+02 -0.30086551381E+02  0.81866513494E+02  0.41800000000E+01 0.  1.
        -11    1    3    3    0    0  0.59796282122E+02  0.54386876356E+02  0.25778092819E+03  0.27015650023E+03  0.00000000000E+00 0.  1.
         11    1    3    3    0    0  0.17829564973E+03 -0.10500317256E+02  0.51894895238E+03  0.54882384291E+03  0.00000000000E+00 0. -1.
</event>
<event>
 7    1  0.4687179E-006  0.8924547E+02  0.7561462E-02  0.1304689E+00
          1   -1    0    0  501    0  0.00000000000E+00  0.00000000000E+00  0.16883550004E+03  0.16883550004E+03  0.00000000000E+00 0. -1.
         -1   -1    0    0    0  501 -0.00000000000E+00 -0.00000000000E+00 -0.11251911682E+03  0.11251911682E+03  0.00000000000E+00 0.  1.
         23    2    1    2    0    0  0.66344712619E+02 -0.32092186511E+02  0.65217459019E+02  0.13589448773E+03  0.93714809428E+02 0.  0.
          5    1    1    2  502    0  0.88906658597E+01  0.63284167985E+01 -0.53107994681E+02  0.54378527910E+02  0.41800000000E+01 0. -1.
         -5    1    1    2    0  502 -0.75235378479E+02  0.25763769712E+02  0.44206918887E+02  0.91081601227E+02  0.41800000000E+01 0. -1.
        -11    1    3    3    0    0  0.11329491553E+02  0.12120682976E+02  0.63141143385E+02  0.65284548882E+02  0.00000000000E+00 0. -1.
         11    1    3    3    0    0  0.55015221066E+02 -0.44212869486E+02  0.20763156336E+01  0.70609938845E+02  0.00000000000E+00 0.  1.
</event>
<event>
 7    1  0.4687179E-006  0.2143368E+03  0.7561462E-02  0.1138177E+00
         -2   -1    0    0    0  501 -0.00000000000E+00  0.00000000000E+00  0.31236813102E+02  0.31236813102E+02  0.00000000000E+00 0.  1.
          2   -1    0    0  501    0  0.00000000000E+00 -0.00000000000E+00 -0.16112402033E+04  0.16112402033E+04  0.00000000000E+00 0. -1.
         23    2    1    2    0    0  0.17947975282E+03  0.78875299810E+02 -0.74875374890E+03  0.77930954851E+03  0.90867493124E+02 0.  0.
          5    1    1    2  502    0 -0.82524611449E+02  0.14720328227E+02 -0.47296597944E+03  0.48035537852E+03  0.41800000000E+01 0.  1.
         -5    1    1    2    0  502 -0.96955141370E+02 -0.93595628036E+02 -0.35828366186E+03  0.38281208939E+03  0.41800000000E+01 0.  1.
        -11    1    3    3    0    0  0.62626424684E+02 -0.95861066086E+01 -0.31961514708E+03  0.32583401411E+03  0.00000000000E+00 0. -1.
         11    1    3    3    0    0  0.11685332814E+03  0.88461406418E+02 -0.42913860182E+03  0.45347553440E+03  0.00000000000E+00 0.  1.
</event>
<event>
 7    1  0.4687179E-006  0.1620935E+03  0.7561462E-02  0.1186353E+00
          2   -1    0    0  501    0  0.00000000000E+00  0.00000000000E+00  0.51032241003E+02  0.51032241003E+02  0.00000000000E+00 0. -1.
         -2   -1    0    0    0  501 -0.00000000000E+00 -0.00000000000E+00 -0.62813083089E+03  0.62813083089E+03  0.00000000000E+00 0.  1.
         23    2    1    2    0    0  0.57220099039E+02  0.12913262929E+03 -0.25058575877E+03  0.30206034255E+03  0.92183796630E+02 0.  0.
          5    1    1    2  502    0 -0.86204307915E+02 -0.55973451599E+02 -0.13284350276E+03  0.16801511424E+03  0.41800000000E+01 0. -1.
         -5    1    1    2    0  502  0.28984208876E+02 -0.73159177689E+02 -0.19366932836E+03  0.20908761511E+03  0.41800000000E+01 0. -1.
        -11    1    3    3    0    0  0.53530154047E+01  0.31607759771E+02 -0.45666539869E+01  0.32381469706E+02  0.00000000000E+00 0. -1.
         11    1    3    3    0    0  0.51867083635E+02  0.97524869517E+02 -0.24601910479E+03  0.26967887285E+03  0.00000000000E+00 0.  1.
</event>
<event>
 7    1  0.4687179E-006  0.1024356E+03  0.7561462E-02  0.1275256E+00
         -1   -1    0    0    0  501 -0.00000000000E+00  0.00000000000E+00  0.15132126828E+03  0.15132126828E+03  0.00000000000E+00 0.  1.
          1   -1    0    0  501    0  0.00000000000E+00 -0.00000000000E+00 -0.11847601648E+03  0.11847601648E+03  0.00000000000E+00 0. -1.
         23    2    1    2    0    0 -0.80351443214E+01 -0.52975357723E+02 -0.48035295484E+02  0.11742445758E+03  0.92790956215E+02 0.  0.
          5    1    1    2  502    0 -0.54574768815E+02  0.28376051921E+02  0.35910650793E+02  0.71348811862E+02  0.41800000000E+01 0. -1.
         -5    1    1    2    0  502  0.62609913136E+02  0.24599305802E+02  0.44969896489E+02  0.81024015323E+02  0.41800000000E+01 0.  1.
        -11    1    3    3    0    0  0.13727075454E+02 -0.52273679759E+02  0.10423899825E+02  0.55042055591E+02  0.00000000000E+00 0.  1.
         11    1    3    3    0    0 -0.21762219775E+02 -0.70167796372E+00 -0.58459195310E+02  0.62382401988E+02  0.00000000000E+00 0. -1.
</event>
<event>
 7    1  0.4687179E-006  0.8214596E+02  0.7561462E-02  0.1323070E+00
          3   -1    0    0  501    0  0.00000000000E+00  0.00000000000E+00  0.64080938154E+02  0.64080938154E+02  0.00000000000E+00 0. -1.
         -3   -1    0    0    0  501 -0.00000000000E+00 -0.00000000000E+00 -0.23947873301E+03  0.23947873301E+03  0.00000000000E+00 0.  1.
         23    2    1    2    0    0 -0.29789035749E+02  0.52596356133E+02 -0.72619487131E+02  0.13075568110E+03  0.90386364559E+02 0.  0.
          5    1    1    2  502    0  0.28110816683E+02 -0.70658002016E+02 -0.84157602465E+01  0.76622899214E+02  0.41800000000E+01 0.  1.
         -5    1    1    2    0  502  0.16782190662E+01  0.18061645883E+02 -0.94362547481E+02  0.96181090856E+02  0.41800000000E+01 0.  1.
        -11    1    3    3    0    0  0.52458762636E+01  0.23194445501E+02 -0.80857794188E+02  0.84282171311E+02  0.00000000000E+00 0.  1.
         11    1    3    3    0    0 -0.35034912012E+02  0.29401910632E+02  0.82383070572E+01  0.46473509785E+02  0.00000000000E+00 0. -1.
</event>
<event>
 7    1  0.4687179E-006  0.2244668E+03  0.7561462E-02  0.1130596E+00
         -2   -1    0    0    0  501 -0.00000000000E+00  0.00000000000E+00  0.47853247232E+03  0.47853247232E+03  0.00000000000E+00 0.  1.
          2   -1    0    0  501    0  0.00000000000E+00 -0.00000000000E+00 -0.14258025997E+03  0.14258025997E+03  0.00000000000E+00 0. -1.
         23    2    1    2    0    0 -0.17055862048E+03  0.12911459863E+03  0.44167765095E+02  0.23830013564E+03  0.95264581921E+02 0.  0.
          5    1    1    2  502    0  0.90694948743E+02 -0.12508076312E+03  0.12868620300E+03  0.20111783182E+03  0.41800000000E+01 0. -1.
         -5    1    1    2    0  502  0.79863671740E+02 -0.40338355105E+01  0.16309824425E+03  0.18169476484E+03  0.41800000000E+01 0. -1.
        -11    1    3    3    0    0 -0.14528248709E+03  0.11544217290E+03  0.71288500513E+02  0.19878618323E+03  0.00000000000E+00 0.  1.
         11    1    3    3    0    0 -0.25276133393E+02  0.13672425733E+02 -0.27120735418E+02  0.39513952401E+02  0.00000000000E+00 0. -1.
</event>
<event>
 7    1  0.4687179E-006  0.1192450E+03  0.7561462E-02  0.1244348E+00
          1   -1    0    0  501    0  0.00000000000E+00  0.00000000000E+00  0.42707611934E+03  0.42707611934E+03  0.00000000000E+00 0. -1.
         -1   -1    0    0    0  501 -0.00000000000E+00 -0.00000000000E+00 -0.42073896232E+02  0.42073896232E+02  0.00000000000E+00 0.  1.
         23    2    1    2    0    0 -0.70621010032E+02 -0.35933158039E+02  0.14836638658E+03  0.19000215050E+03  0.88372584118E+02 0.  0.
          5    1    1    2  502    0  0.89292687700E+02  0.13650824977E+02  0.83044887059E+02  0.12277399874E+03  0.41800000000E+01 0. -1.
         -5    1    1    2    0  502 -0.18671677668E+02  0.22282333062E+02  0.15359094947E+03  0.15637386633E+03  0.41800000000E+01 0. -1.
        -11    1    3    3    0    0 -0.81751801376E+02 -0.71185856262E+00  0.10249710534E+03  0.13110881120E+03  0.00000000000E+00 0.  1.
         11    1    3    3    0    0  0.11130791344E+02 -0.35221299476E+02  0.45869281238E+02  0.58893339301E+02  0.00000000000E+00 0. -1.
</event>
<event>
 7    1  0.4687179E-006  0.1045562E+03  0.7561462E-02  0.1270996E+00
          2   -1    0    0  501    0  0.00000000000E+00  0.00000000000E+00  0.19796887436E+03  0.19796887436E+03  0.00000000000E+00 0. -1.
         -2   -1    0    0    0  501 -0.00000000000E+00 -0.00000000000E+00 -0.80392398596E+02  0.80392398596E+02  0.00000000000E+00 0.  1.
         23    2    1    2    0    0  0.27090652097E+01  0.25878134206E+01  0.11972899674E+03  0.15319728906E+03  0.95500475933E+02 0.  0.
          5    1    1    2  502    0 -0.57921438620E+02  0.21415777890E+02 -0.14484930147E+02  0.63567398844E+02  0.41800000000E+01 0.  1.
         -5    1    1    2    0  502  0.55212373411E+02 -0.24003591311E+02  0.12332409171E+02  0.61596585047E+02  0.41800000000E+01 0.  1.
        -11    1    3    3    0    0 -0.37440449278E+01  0.44401567080E+02  0.93078172894E+02  0.10319429878E+03  0.00000000000E+00 0.  1.
         11    1    3    3    0    0  0.64531101376E+01 -0.41813753659E+02  0.26650823843E+02  0.50002990280E+02  0.00000000000E+00 0. -1.
</event>
<event>
 7    1  0.4687179E-006  0.1118133E+03  0.7561462E-02  0.1257248E+00
         -1   -1    0    0    0  501 -0.00000000000E+00  0.00000000000E+00  0.45475223469E+03  0.45475223469E+03  0.00000000000E+00 0.  1.
          1   -1    0    0  501    0  0.00000000000E+00 -0.00000000000E+00 -0.28042147762E+02  0.28042147762E+02  0.00000000000E+00 0. -1.
         23    2    1    2    0    0  0.13362807065E+02 -0.28366478928E+02  0.20359496854E+03  0.22509171457E+03  0.90731179927E+02 0.  0.
          5    1    1    2  502    0 -0.69252293558E+02  0.10813011213E+02  0.12327868854E+03  0.14187286148E+03  0.41800000000E+01 0. -1.
         -5    1    1    2    0  502  0.55889486493E+02  0.17553467715E+02  0.99836429844E+02  0.11582980641E+03  0.41800000000E+01 0. -1.
        -11    1    3    3    0    0  0.48021645431E+02  0.27535291256E+01  0.84816715569E+02  0.97506592559E+02  0.00000000000E+00 0. -1.
         11    1    3    3    0    0 -0.34658838366E+02 -0.31120008054E+02  0.11877825297E+03  0.12758512201E+03  0.00000000000E+00 0.  1.
</event>
<event>
 7    1  0.4687179E-006  0.1156072E+03  0.7561462E-02  0.1250525E+00
         -1   -1    0    0    0  501 -0.00000000000E+00  0.00000000000E+00  0.14704577550E+02  0.14704577550E+02  0.00000000000E+00 0.  1.
          1   -1    0    0  501    0  0.00000000000E+00 -0.00000000000E+00 -0.95709969975E+03  0.95709969975E+03  0.00000000000E+00 0. -1.
         23    2    1    2    0    0 -0.12378630807E+02 -0.39883952184E+02 -0.51436995278E+03  0.52392409013E+03  0.90421478417E+02 0.  0.
          5    1    1    2  502    0 -0.54085033916E+02  0.49832612401E+00 -0.19031444605E+03  0.19789517427E+03  0.41800000000E+01 0. -1.
         -5    1    1    2    0  502  0.66463664723E+02  0.39385626060E+02 -0.23771072338E+03  0.24998501290E+03  0.41800000000E+01 0. -1.
        -11    1    3    3    0    0 -0.15759498181E+02 -0.68749590852E+02 -0.36226291430E+03  0.36906542388E+03  0.00000000000E+00 0.  1.
         11    1    3    3    0    0  0.33808673734E+01  0.28865638668E+02 -0.15210703847E+03  0.15485866625E+03  0.00000000000E+00 0. -1.
</event>
<event>
 7    1  0.4687179E-006  0.1036675E+03  0.7561462E-02  0.1272767E+00
         -1   -1    0    0    0  501 -0.00000000000E+00  0.00000000000E+00  0.48032101276E+03  0.48032101276E+03  0.00000000000E+00 0.  1.
          1   -1    0    0  501    0  0.00000000000E+00 -0.00000000000E+00 -0.30574912991E+02  0.30574912991E+02  0.00000000000E+00 0. -1.
         23    2    1    2    0    0  0.58422805600E+01 -0.53860540632E+02  0.20627947552E+03  0.23186418081E+03  0.90965302404E+02 0.  0.
          5    1    1    2  502    0  0.41302623897E+02  0.72721639941E+02  0.12976786976E+03  0.15443936052E+03  0.41800000000E+01 0.  1.
         -5    1    1    2    0  502 -0.47144904457E+02 -0.18861099310E+02  0.11369875449E+03  0.12459238442E+03  0.41800000000E+01 0.  1.
        -11    1    3    3    0    0  0.27155024171E+02 -0.26239418293E+02  0.18936323915E+03  0.19309152946E+03  0.00000000000E+00 0.  1.
         11    1    3    3    0    0 -0.21312743611E+02 -0.27621122338E+02  0.16916236378E+02  0.38772651349E+02  0.00000000000E+00 0. -1.
</event>
<event>
 7    1  0.4687179E-006  0.1029916E+03  0.7561462E-02  0.1274128E+00
         -2   -1    0    0    0  501 -0.00000000000E+00  0.00000000000E+00  0.11550338603E+03  0.11550338603E+03  0.00000000000E+00 0.  1.
          2   -1    0    0  501    0  0.00000000000E+00 -0.00000000000E+00 -0.13028412851E+03  0.13028412851E+03  0.00000000000E+00 0. -1.
         23    2    1    2    0    0  0.34761223495E+02 -0.43521910759E+02 -0.43389016510E+02  0.11726064678E+03  0.93621328528E+02 0.  0.
          5    1    1    2  502    0 -0.65567000173E+02 -0.17471651862E+01  0.32795880576E+02  0.73451523338E+02  0.41800000000E+01 0. -1.
         -5    1    1    2    0  502  0.30805776678E+02  0.45269075945E+02 -0.41876065502E+01  0.55075344414E+02  0.41800000000E+01 0.  1.
        -11    1    3    3    0    0 -0.11851323572E+02 -0.36286929018E+02  0.16023155052E+02  0.41399717218E+02  0.00000000000E+00 0.  1.
         11    1    3    3    0    0  0.46612547066E+02 -0.72349817411E+01 -0.59412171561E+02  0.75860929565E+02  0.00000000000E+00 0. -1.
</event>
<event>
 7    1  0.4687179E-006  0.1069743E+03  0.7561462E-02  0.1266278E+00
          2   -1    0    0  501    0  0.00000000000E+00  0.00000000000E+00  0.21385170073E+03  0.21385170073E+03  0.00000000000E+00 0. -1.
         -2   -1    0    0    0  501 -0.00000000000E+00 -0.00000000000E+00 -0.10114610087E+03  0.10114610087E+03  0.00000000000E+00 0.  1.
         23    2    1    2    0    0 -0.75142807593E+02 -0.46273451840E+02  0.10168395677E+03  0.16151647440E+03  0.89220348345E+02 0.  0.
          5    1    1    2  502    0  0.32378683178E+02  0.30237860730E+02  0.67424785091E+02  0.80785403325E+02  0.41800000000E+01 0. -1.
         -5    1    1    2    0  502  0.42764124415E+02  0.16035591110E+02 -0.56403142011E+02  0.72695923874E+02  0.41800000000E+01 0. -1.
        -11    1    3    3    0    0 -0.20233882334E+01 -0.50315002147E+02  0.55494808869E+02  0.74935754833E+02  0.00000000000E+00 0. -1.
         11    1    3    3    0    0 -0.73119419360E+02  0.40415503068E+01  0.46189147906E+02  0.86580719566E+02  0.00000000000E+00 0.  1.
</event>
<event>
 7    1  0.4687179E-006  0.2047476E+03  0.7561462E-02  0.1145794E+00
          1   -1    0    0  501    0  0.00000000000E+00  0.00000000000E+00  0.14444379546E+03  0.14444379546E+03  0.00000000000E+00 0. -1.
         -1   -1    0    0    0  501 -0.00000000000E+00 -0.00000000000E+00 -0.35789393705E+03  0.35789393705E+03  0.00000000000E+00 0.  1.
         23    2    1    2    0    0  0.47969593659E+01 -0.18960012803E+03 -0.38048959651E+02  0.21531127443E+03  0.94551584855E+02 0.  0.
          5    1    1    2  502    0 -0.30475672591E+02  0.96782568724E+02 -0.19014695005E+02  0.10331826196E+03  0.41800000000E+01 0.  1.
         -5    1    1    2    0  502  0.25678713225E+02  0.92817559304E+02 -0.15638648693E+03  0.18370819612E+03  0.41800000000E+01 0.  1.
        -11    1    3    3    0    0  0.47978297877E+02 -0.12452686310E+03 -0.17799252444E+02  0.13463160880E+03  0.00000000000E+00 0. -1.
         11    1    3    3    0    0 -0.43181338511E+02 -0.65073264928E+02 -0.20249707207E+02  0.80679665629E+02  0.00000000000E+00 0.  1.
</event>
<event>
 7    1  0.4687179E-006  0.1750536E+03  0.7561462E-02  0.1172678E+00
          1   -1    0    0  501    0  0.00000000000E+00  0.00000000000E+00  0.10198569184E+04  0.10198569184E+04  0.00000000000E+00 0. -1.
         -1   -1    0    0    0  501 -0.00000000000E+00 -0.00000000000E+00 -0.33171354590E+02  0.33171354590E+02  0.00000000000E+00 0.  1.
         23    2    1    2    0    0 -0.36654157971E+02  0.13728588837E+03  0.35085409392E+03  0.38961663501E+03  0.92258249595E+02 0.  0.
          5    1    1    2  502    0 -0.39993395849E+02 -0.70326977805E+02  0.19892771849E+03  0.21479074725E+03  0.41800000000E+01 0. -1.
         -5    1    1    2    0  502  0.76647553820E+02 -0.66958910563E+02  0.43690375139E+03  0.44862089072E+03  0.41800000000E+01 0. -1.
        -11    1    3    3    0    0  0.29311469974E+02  0.37109441635E+02  0.12933095339E+03  0.13770536822E+03  0.00000000000E+00 0. -1.
         11    1    3    3    0    0 -0.65965627945E+02  0.10017644673E+03  0.22152314053E+03  0.25191126680E+03  0.00000000000E+00 0.  1.
</event>
<event>
 7    1  0.9373890E-006  0.2712550E+03  0.7561462E-02  0.1100563E+00
          2   -1    0    0  501    0  0.00000000000E+00  0.00000000000E+00  0.31603861450E+03  0.31603861450E+03  0.00000000000E+00 0.  1.
         -2   -1    0    0    0  501 -0.00000000000E+00 -0.00000000000E+00 -0.29702736319E+03  0.29702736319E+03  0.00000000000E+00 0. -1.
         23    2    1    2    0    0 -0.11611457592E+03  0.23429277698E+03  0.12554819192E+03  0.30424028121E+03  0.91782896731E+02 0.  0.
          5    1    1    2  502    0  0.98726444011E+02 -0.22589913839E+03 -0.53602833114E+02  0.25232532094E+03  0.41800000000E+01 0. -1.
         -5    1    1    2    0  502  0.17388131910E+02 -0.83936385927E+01 -0.52934107488E+02  0.56500375536E+02  0.41800000000E+01 0. -1.
        -11    1    3    3    0    0 -0.47624672550E+02  0.18697011290E+03  0.99027709482E+02  0.21686959169E+03  0.00000000000E+00 0.  1.
         11    1    3    3    0    0 -0.68489903371E+02  0.47322664076E+02  0.26520482438E+02  0.87370689523E+02  0.00000000000E+00 0. -1.
</event>
<event>
 7    1  0.4687179E-006  0.1210536E+03  0.7561462E-02  0.1241369E+00
          1   -1    0    0  501    0  0.00000000000E+00  0.00000000000E+00  0.18613955933E+03  0.18613955933E+03  0.00000000000E+00 0. -1.
         -1   -1    0    0    0  501 -0.00000000000E+00 -0.00000000000E+00 -0.96913227272E+02  0.96913227272E+02  0.00000000000E+00 0.  1.
         23    2    1    2    0    0 -0.36809653889E+02 -0.55013376351E+02  0.95318964780E+02  0.15103181699E+03  0.96661690963E+02 0.  0.
          5    1    1    2  502    0  0.22245018579E+02 -0.33838160571E+02  0.57408983322E+01  0.41113164267E+02  0.41800000000E+01 0. -1.
         -5    1    1    2    0  502  0.14564635311E+02  0.88851536922E+02 -0.11833531054E+02  0.90907805344E+02  0.41800000000E+01 0.  1.
        -11    1    3    3    0    0  0.29320220037E+02 -0.25451109507E+02  0.57324434823E+02  0.69235288011E+02  0.00000000000E+00 0.  1.
         11    1    3    3    0    0 -0.66129873927E+02 -0.29562266844E+02  0.37994529957E+02  0.81796528980E+02  0.00000000000E+00 0. -1.
</event>
<event>
 7    1  0.4687179E-006  0.1786314E+03  0.7561462E-02  0.1169134E+00
         -1   -1    0    0    0  501 -0.00000000000E+00  0.00000000000E+00  0.21585486920E+03  0.21585486920E+03  0.00000000000E+00 0.  1.
          1   -1    0    0  501    0  0.00000000000E+00 -0.00000000000E+00 -0.15970410496E+03  0.15970410496E+03  0.00000000000E+00 0. -1.
         23    2    1    2    0    0 -0.12844188787E+03 -0.60836483252E+02 -0.24373578168E+02  0.16976821297E+03  0.89603451766E+02 0.  0.
          5    1    1    2  502    0  0.75372543368E+02  0.98536177596E+02  0.51264669110E+02  0.13429794223E+03  0.41800000000E+01 0.  1.
         -5    1    1    2    0  502  0.53069344506E+02 -0.37699694343E+02  0.29259673300E+02  0.71492818950E+02  0.41800000000E+01 0.  1.
        -11    1    3    3    0    0 -0.11070978035E+03 -0.83829523727E+02 -0.17865640565E+02  0.14001151962E+03  0.00000000000E+00 0. -1.
         11    1    3    3    0    0 -0.17732107521E+02  0.22993040474E+02 -0.65079376027E+01  0.29756693352E+02  0.00000000000E+00 0.  1.
</event>
<event>
 7    1  0.4687179E-006  0.2417108E+03  0.7561462E-02  0.1118658E+00
          2   -1    0    0  501    0  0.00000000000E+00  0.00000000000E+00  0.14176083021E+03  0.14176083021E+03  0.00000000000E+00 0. -1.
         -2   -1    0    0    0  501 -0.00000000000E+00 -0.00000000000E+00 -0.49355964014E+03  0.49355964014E+03  0.00000000000E+00 0.  1.
         23    2    1    2    0    0 -0.12025099213E+03  0.19896099642E+03 -0.10435836232E+03  0.27349010031E+03  0.99299486302E+02 0.  0.
          5    1    1    2  502    0  0.19201776301E+02 -0.96163426655E+02 -0.33272088234E+02  0.10363694850E+03  0.41800000000E+01 0. -1.
         -5    1    1    2    0  502  0.10104921582E+03 -0.10279756977E+03 -0.21416835937E+03  0.25819342154E+03  0.41800000000E+01 0. -1.
        -11    1    3    3    0    0 -0.76124450290E+02  0.65259374185E+02 -0.84846572028E+02  0.13134937623E+03  0.00000000000E+00 0.  1.
         11    1    3    3    0    0 -0.44126541835E+02  0.13370162224E+03 -0.19511790291E+02  0.14214072408E+03  0.00000000000E+00 0. -1.
</event>
<event>
 7    1  0.4687179E-006  0.1156740E+03  0.7561462E-02  0.1250409E+00
         -2   -1    0    0    0  501 -0.00000000000E+00  0.00000000000E+00  0.36589037087E+02  0.36589037087E+02  0.00000000000E+00 0.  1.
          2   -1    0    0  501    0  0.00000000000E+00 -0.00000000000E+00 -0.51542084412E+03  0.51542084412E+03  0.00000000000E+00 0. -1.
         23    2    1    2    0    0  0.96891984949E+01  0.50719027861E+02 -0.22386230773E+03  0.24002808001E+03  0.69518673881E+02 0.  0.
          5    1    1    2  502    0 -0.54481036003E+02  0.25711846741E+02 -0.19695451127E+03  0.20600445203E+03  0.41800000000E+01 0. -1.
         -5    1    1    2    0  502  0.44791837508E+02 -0.76430874602E+02 -0.58014988041E+02  0.10597734917E+03  0.41800000000E+01 0.  1.
        -11    1    3    3    0    0  0.41313587314E+01 -0.15387449683E+02 -0.19575541483E+02  0.25239721810E+02  0.00000000000E+00 0. -1.
         11    1    3    3    0    0  0.55578397635E+01  0.66106477543E+02 -0.20428676624E+03  0.21478835820E+03  0.00000000000E+00 0.  1.
</event>
<event>
 7    1  0.4687179E-006  0.9028043E+02  0.7561462E-02  0.1302174E+00
          2   -1    0    0  501    0  0.00000000000E+00  0.00000000000E+00  0.38683582206E+02  0.38683582206E+02  0.00000000000E+00 0. -1.
         -2   -1    0    0    0  501 -0.00000000000E+00 -0.00000000000E+00 -0.31707698788E+03  0.31707698788E+03  0.00000000000E+00 0.  1.
         23    2    1    2    0    0  0.79910232859E+00  0.34367541674E+01 -0.13109261467E+03  0.16248032046E+03  0.95927738807E+02 0.  0.
          5    1    1    2  502    0  0.14899324324E+02  0.47500154571E+02 -0.12633113519E+03  0.13585022145E+03  0.41800000000E+01 0. -1.
         -5    1    1    2    0  502 -0.15698426653E+02 -0.50936908738E+02 -0.20969655816E+02  0.57430028175E+02  0.41800000000E+01 0. -1.
        -11    1    3    3    0    0  0.20248203713E+02  0.34784026193E+02 -0.19065620037E+02  0.44535559940E+02  0.00000000000E+00 0. -1.
         11    1    3    3    0    0 -0.19449101384E+02 -0.31347272026E+02 -0.11202699463E+03  0.11794476052E+03  0.00000000000E+00 0.  1.
</event>
<event>
 7    1  0.4687179E-006  0.1053737E+03  0.7561462E-02  0.1269385E+00
         -1   -1    0    0    0  501 -0.00000000000E+00  0.00000000000E+00  0.22480430283E+02  0.22480430283E+02  0.00000000000E+00 0.  1.
          1   -1    0    0  501    0  0.00000000000E+00 -0.00000000000E+00 -0.70737040449E+03  0.70737040449E+03  0.00000000000E+00 0. -1.
         23    2    1    2    0    0 -0.37096334874E+02  0.45012408629E+02 -0.38086309157E+03  0.39596117649E+03  0.91248582347E+02 0.  0.
          5    1    1    2  502    0 -0.40427443559E+01  0.24359653086E+02 -0.68924056075E+01  0.25975260065E+02  0.41800000000E+01 0.  1.
         -5    1    1    2    0  502  0.41139079230E+02 -0.69372061715E+02 -0.29713447704E+03  0.30791439822E+03  0.41800000000E+01 0.  1.
        -11    1    3    3    0    0  0.28227370529E+02  0.60083832864E+01 -0.15398302229E+03  0.15666415120E+03  0.00000000000E+00 0. -1.
         11    1    3    3    0    0 -0.65323705403E+02  0.39004025342E+02 -0.22688006928E+03  0.23929702530E+03  0.00000000000E+00 0.  1.
</event>
<event>
 7    1  0.4687179E-006  0.1217084E+03  0.7561462E-02  0.1240305E+00
          3   -1    0    0  501    0  0.00000000000E+00  0.00000000000E+00  0.10819892621E+03  0.10819892621E+03  0.00000000000E+00 0. -1.
         -3   -1    0    0    0  501 -0.00000000000E+00 -0.00000000000E+00 -0.18766099861E+03  0.18766099861E+03  0.00000000000E+00 0.  1.
         23    2    1    2    0    0  0.19761823322E+02 -0.83186831857E+02 -0.20312394624E+00  0.12485951100E+03  0.90990535623E+02 0.  0.
          5    1    1    2  502    0  0.51243036076E+02  0.16560103605E+02 -0.26182476112E+02  0.60025663120E+02  0.41800000000E+01 0.  1.
         -5    1    1    2    0  502 -0.71004859397E+02  0.66626728251E+02 -0.53076472344E+02  0.11097475070E+03  0.41800000000E+01 0.  1.
        -11    1    3    3    0    0 -0.73309477514E+01 -0.42062929979E+02  0.42082571779E+02  0.59949776654E+02  0.00000000000E+00 0. -1.
         11    1    3    3    0    0  0.27092771073E+02 -0.41123901878E+02 -0.42285695726E+02  0.64909734348E+02  0.00000000000E+00 0.  1.
</event>
<event>
 7    1  0.4687179E-006  0.8389713E+02  0.7561462E-02  0.1318342E+00
          2   -1    0    0  501    0  0.00000000000E+00  0.00000000000E+00  0.10026274382E+03  0.10026274382E+03  0.00000000000E+00 0. -1.
         -2   -1    0    0    0  501 -0.00000000000E+00 -0.00000000000E+00 -0.11132180330E+03  0.11132180330E+03  0.00000000000E+00 0.  1.
         23    2    1    2    0    0 -0.18054838627E+02  0.16259530107E+02 -0.88457498454E+01  0.84131276675E+02  0.80059196270E+02 0.  0.
          5    1    1    2  502    0 -0.12466764748E+02  0.39007211004E+02 -0.36912775271E+02  0.55290217144E+02  0.41800000000E+01 0.  1.
         -5    1    1    2    0  502  0.30521603374E+02 -0.55266741111E+02  0.34699465642E+02  0.72163053299E+02  0.41800000000E+01 0.  1.
        -11    1    3    3    0    0  0.61791356587E+01  0.33212559146E+02 -0.32029294862E+02  0.46552459998E+02  0.00000000000E+00 0.  1.
         11    1    3    3    0    0 -0.24233974285E+02 -0.16953029039E+02  0.23183545017E+02  0.37578816676E+02  0.00000000000E+00 0. -1.
</event>
<event>
 7    1  0.4687179E-006  0.8814691E+02  0.7561462E-02  0.1307402E+00
          1   -1    0    0  501    0  0.00000000000E+00  0.00000000000E+00  0.41587758896E+02  0.41587758896E+02  0.00000000000E+00 0. -1.
         -1   -1    0    0    0  501 -0.00000000000E+00 -0.00000000000E+00 -0.45709010367E+03  0.45709010367E+03  0.00000000000E+00 0.  1.
         23    2    1    2    0    0  0.50159625494E+01  0.73113628865E+02 -0.11459406577E+03  0.16466689679E+03  0.92804226092E+02 0.  0.
          5    1    1    2  502    0  0.21047719968E+02 -0.15356017343E+02  0.89290753427E-01  0.26387386330E+02  0.41800000000E+01 0.  1.
         -5    1    1    2    0  502 -0.26063682517E+02 -0.57757611523E+02 -0.30099756976E+03  0.30762357945E+03  0.41800000000E+01 0.  1.
        -11    1    3    3    0    0 -0.19564085758E+02  0.20536469267E+02  0.76218609545E+01  0.29369929961E+02  0.00000000000E+00 0. -1.
         11    1    3    3    0    0  0.24580048308E+02  0.52577159599E+02 -0.12221592673E+03  0.13529696682E+03  0.00000000000E+00 0.  1.
</event>
<event>
 7    1  0.4687179E-006  0.5994439E+02  0.7561462E-02  0.1398065E+00
         -2   -1    0    0    0  501 -0.00000000000E+00  0.00000000000E+00  0.49296457746E+02  0.49296457746E+02  0.00000000000E+00 0.  1.
          2   -1    0    0  501    0  0.00000000000E+00 -0.00000000000E+00 -0.35275039757E+03  0.35275039757E+03  0.00000000000E+00 0. -1.
         23    2    1    2    0    0  0.15502733756E+01 -0.14451399250E+02 -0.24767201443E+03  0.26431560781E+03  0.91159571712E+02 0.  0.
          5    1    1    2  502    0  0.14066901873E+02  0.52254202885E+01 -0.93967739094E+02  0.95250150320E+02  0.41800000000E+01 0.  1.
         -5    1    1    2    0  502 -0.15617175249E+02  0.92259789617E+01  0.38185813696E+02  0.42481097186E+02  0.41800000000E+01 0.  1.
        -11    1    3    3    0    0 -0.21690466626E+02 -0.43433034489E+02 -0.18677876473E+03  0.19298500403E+03  0.00000000000E+00 0.  1.
         11    1    3    3    0    0  0.23240740001E+02  0.28981635239E+02 -0.60893249703E+02  0.71330603785E+02  0.00000000000E+00 0. -1.
</event>
<event>
 7    1  0.4687179E-006  0.1072103E+03  0.7561462E-02  0.1265825E+00
         -2   -1    0    0    0  501 -0.00000000000E+00  0.00000000000E+00  0.47557765262E+02  0.47557765262E+02  0.00000000000E+00 0.  1.
          2   -1    0    0  501    0  0.00000000000E+00 -0.00000000000E+00 -0.56922418101E+03  0.56922418101E+03  0.00000000000E+00 0. -1.
         23    2    1    2    0    0  0.17525879495E+02 -0.60122805916E+02 -0.45936400948E+03  0.47245267482E+03  0.90963335974E+02 0.  0.
          5    1    1    2  502    0  0.27133471138E+02 -0.13916936745E+02 -0.47358711666E+02  0.56482088798E+02  0.41800000000E+01 0. -1.
         -5    1    1    2    0  502 -0.44659350633E+02  0.74039742661E+02 -0.14943694600E+02  0.87847182656E+02  0.41800000000E+01 0.  1.
        -11    1    3    3    0    0  0.20527159800E+02 -0.77124588656E+02 -0.43685291664E+03  0.44408336745E+03  0.00000000000E+00 0. -1.
         11    1    3    3    0    0 -0.30012803056E+01  0.17001782740E+02 -0.22511092841E+02  0.28369307371E+02  0.00000000000E+00 0.  1.
</event>
<event>
 7    1  0.4687179E-006  0.1260384E+03  0.7561462E-02  0.1233455E+00
         -1   -1    0    0    0  501 -0.00000000000E+00  0.00000000000E+00  0.51779160298E+02  0.51779160298E+02  0.00000000000E+00 0.  1.
          1   -1    0    0  501    0  0.00000000000E+00 -0.00000000000E+00 -0.33539938083E+03  0.33539938083E+03  0.00000000000E+00 0. -1.
         23    2    1    2    0    0  0.55756233448E+02  0.40062720336E+02 -0.15052401891E+03  0.19204780551E+03  0.97524869678E+02 0.  0.
          5    1    1    2  502    0  0.28924333930E+02  0.17588309451E+02 -0.11314476585E+02  0.35936826558E+02  0.41800000000E+01 0.  1.
         -5    1    1    2    0  502 -0.84680567378E+02 -0.57651029787E+02 -0.12178172504E+03  0.15919390906E+03  0.41800000000E+01 0.  1.
        -11    1    3    3    0    0  0.39791143583E+02 -0.25962557555E+02 -0.39015715183E+02  0.61478577844E+02  0.00000000000E+00 0.  1.
         11    1    3    3    0    0  0.15965089865E+02  0.66025277891E+02 -0.11150830372E+03  0.13056922767E+03  0.00000000000E+00 0. -1.
</event>
<event>
 7    1  0.4687179E-006  0.2151453E+03  0.7561462E-02  0.1137555E+00
          2   -1    0    0  501    0  0.00000000000E+00  0.00000000000E+00  0.51352502385E+03  0.51352502385E+03  0.00000000000E+00 0. -1.
         -2   -1    0    0    0  501 -0.00000000000E+00 -0.00000000000E+00 -0.17876724901E+03  0.17876724901E+03  0.00000000000E+00 0.  1.
         23    2    1    2    0    0 -0.68768732373E+02  0.25817573126E+02  0.24554485816E+03  0.27176824011E+03  0.90388126045E+02 0.  0.
          5    1    1    2  502    0 -0.12334276300E+03 -0.17205458771E+02  0.17093655180E+03  0.21153307576E+03  0.41800000000E+01 0. -1.
         -5    1    1    2    0  502  0.19211149537E+03 -0.86121143552E+01 -0.81723635129E+02  0.20899095700E+03  0.41800000000E+01 0.  1.
        -11    1    3    3    0    0 -0.38899892728E+02  0.57736967736E+02  0.11879544984E+03  0.13769211306E+03  0.00000000000E+00 0.  1.
         11    1    3    3    0    0 -0.29868839645E+02 -0.31919394611E+02  0.12674940833E+03  0.13407612705E+03  0.00000000000E+00 0. -1.
</event>
<event>
 7    1  0.4687179E-006  0.1585356E+03  0.7561462E-02  0.1190360E+00
         -2   -1    0    0    0  501 -0.00000000000E+00  0.00000000000E+00  0.77703584510E+02  0.77703584510E+02  0.00000000000E+00 0.  1.
          2   -1    0    0  501    0  0.00000000000E+00 -0.00000000000E+00 -0.41552016468E+03  0.41552016468E+03  0.00000000000E+00 0. -1.
         23    2    1    2    0    0  0.12705991801E+03  0.48280964376E+02 -0.21890410662E+03  0.27353508344E+03  0.91799562588E+02 0.  0.
          5    1    1    2  502    0 -0.14003413284E+03 -0.12704416273E+02 -0.68399758468E+02  0.15641918013E+03  0.41800000000E+01 0.  1.
         -5    1    1    2    0  502  0.12974214830E+02 -0.35576548103E+02 -0.50512715087E+02  0.63269485621E+02  0.41800000000E+01 0.  1.
        -11    1    3    3    0    0  0.43231338079E+02  0.37882540311E+01 -0.15027683072E+03  0.15641747125E+03  0.00000000000E+00 0. -1.
         11    1    3    3    0    0  0.83828579935E+02  0.44492710345E+02 -0.68627275895E+02  0.11711761219E+03  0.00000000000E+00 0.  1.
</event>
<event>
 7    1  0.4687179E-006  0.1259103E+03  0.7561462E-02  0.1233653E+00
         -1   -1    0    0    0  501 -0.00000000000E+00  0.00000000000E+00  0.44385651971E+02  0.44385651971E+02  0.00000000000E+00 0.  1.
          1   -1    0    0  501    0  0.00000000000E+00 -0.00000000000E+00 -0.41541793102E+03  0.41541793102E+03  0.00000000000E+00 0. -1.
         23    2    1    2    0    0 -0.40597489410E+02  0.64133914367E+02 -0.21593892864E+03  0.24658446447E+03  0.91722200664E+02 0.  0.
          5    1    1    2  502    0  0.74968901948E+01  0.32593610900E+02 -0.78429007181E+02  0.85364678887E+02  0.41800000000E+01 0.  1.
         -5    1    1    2    0  502  0.33100599215E+02 -0.96727525267E+02 -0.76664343226E+02  0.12785443964E+03  0.41800000000E+01 0.  1.
        -11    1    3    3    0    0  0.27468478262E+02  0.25762680166E+02 -0.99212948486E+02  0.10611994221E+03  0.00000000000E+00 0. -1.
         11    1    3    3    0    0 -0.68065967672E+02  0.38371234201E+02 -0.11672598015E+03  0.14046452226E+03  0.00000000000E+00 0.  1.
</event>
<event>
 7    1  0.4687179E-006  0.1533264E+03  0.7561462E-02  0.1196444E+00
          1   -1    0    0  501    0  0.00000000000E+00  0.00000000000E+00  0.82021737137E+03  0.82021737137E+03  0.00000000000E+00 0. -1.
         -1   -1    0    0    0  501 -0.00000000000E+00 -0.00000000000E+00 -0.32923022141E+02  0.32923022141E+02  0.00000000000E+00 0.  1.
         23    2    1    2    0    0 -0.40835020627E+02 -0.11515224079E+03  0.41813532518E+03  0.44466322817E+03  0.89222748503E+02 0.  0.
          5    1    1    2  502    0  0.25575419344E+02  0.13204711778E+03  0.22268655575E+03  0.26018708250E+03  0.41800000000E+01 0. -1.
         -5    1    1    2    0  502  0.15259601284E+02 -0.16894876991E+02  0.14647246829E+03  0.14829008284E+03  0.41800000000E+01 0. -1.
        -11    1    3    3    0    0 -0.61987895237E+02 -0.47605190783E+02  0.18012834239E+03  0.19635420311E+03  0.00000000000E+00 0. -1.
         11    1    3    3    0    0  0.21152874610E+02 -0.67547050008E+02  0.23800698279E+03  0.24830902506E+03  0.00000000000E+00 0.  1.
</event>
<event>
 7    1  0.4687179E-006  0.1015474E+03  0.7561462E-02  0.1277075E+00
         -1   -1    0    0    0  501 -0.00000000000E+00  0.00000000000E+00  0.34032393925E+02  0.34032393925E+02  0.00000000000E+00 0.  1.
          1   -1    0    0  501    0  0.00000000000E+00 -0.00000000000E+00 -0.39453432681E+03  0.39453432681E+03  0.00000000000E+00 0. -1.
         23    2    1    2    0    0 -0.36768740281E+02 -0.28727660929E+02 -0.18679218812E+03  0.20947742415E+03  0.82536361213E+02 0.  0.
          5    1    1    2  502    0 -0.44582544997E+02  0.25495480058E+02 -0.76263641459E+02  0.92039329802E+02  0.41800000000E+01 0. -1.
         -5    1    1    2    0  502  0.81351285278E+02  0.32321808707E+01 -0.97446103306E+02  0.12704996678E+03  0.41800000000E+01 0. -1.
        -11    1    3    3    0    0 -0.24861407261E+02  0.12004200498E+02 -0.15232599300E+03  0.15480761785E+03  0.00000000000E+00 0. -1.
         11    1    3    3    0    0 -0.11907333020E+02 -0.40731861427E+02 -0.34466195115E+02  0.54669806298E+02  0.00000000000E+00 0.  1.
</event>
<event>
 7    1  0.4687179E-006  0.1179879E+03  0.7561462E-02  0.1246454E+00
          2   -1    0    0  501    0  0.00000000000E+00  0.00000000000E+00  0.22705628304E+03  0.22705628304E+03  0.00000000000E+00 0. -1.
         -2   -1    0    0    0  501 -0.00000000000E+00 -0.00000000000E+00 -0.71520725523E+02  0.71520725523E+02  0.00000000000E+00 0.  1.
         23    2    1    2    0    0  0.19849318615E+02 -0.37414394979E+02  0.91158533565E+02  0.13925631533E+03  0.96377438832E+02 0.  0.
          5    1    1    2  502    0  0.52352261972E+02  0.43003218428E+01  0.59716087106E+02  0.79641293063E+02  0.41800000000E+01 0. -1.
         -5    1    1    2    0  502 -0.72201580587E+02  0.33114073136E+02  0.46609368416E+01  0.79679400168E+02  0.41800000000E+01 0.  1.
        -11    1    3    3    0    0  0.49009234372E+01  0.32182723348E+02  0.18076847398E+02  0.37235992594E+02  0.00000000000E+00 0.  1.
         11    1    3    3    0    0  0.14948395178E+02 -0.69597118326E+02  0.73081686167E+02  0.10202032273E+03  0.00000000000E+00 0. -1.
</event>
<event>
 7    1  0.4687179E-006  0.8556637E+02  0.7561462E-02  0.1313958E+00
         -2   -1    0    0    0  501 -0.00000000000E+00  0.00000000000E+00  0.25077936077E+02  0.25077936077E+02  0.00000000000E+00 0.  1.
          2   -1    0    0  501    0  0.00000000000E+00 -0.00000000000E+00 -0.63512049088E+03  0.63512049088E+03  0.00000000000E+00 0. -1.
         23    2    1    2    0    0  0.54296023770E+02 -0.17572355949E+02 -0.34472387200E+03  0.36137075739E+03  0.92181508327E+02 0.  0.
          5    1    1    2  502    0  0.54346415926E+01 -0.57124009008E+01 -0.22006197340E+03  0.22024284640E+03  0.41800000000E+01 0.  1.
         -5    1    1    2    0  502 -0.59730665362E+02  0.23284756850E+02 -0.45256709393E+02  0.78584823161E+02  0.41800000000E+01 0.  1.
        -11    1    3    3    0    0  0.21947829085E+01 -0.40842954011E+02 -0.22569141651E+03  0.22936778207E+03  0.00000000000E+00 0.  1.
         11    1    3    3    0    0  0.52101240861E+02  0.23270598062E+02 -0.11903245549E+03  0.13200297532E+03  0.00000000000E+00 0. -1.
</event>
<event>
 7    1  0.4687179E-006  0.8146225E+02  0.7561462E-02  0.1324952E+00
         -4   -1    0    0    0  501 -0.00000000000E+00  0.00000000000E+00  0.59518060541E+03  0.59518060541E+03  0.00000000000E+00 0.  1.
          4   -1    0    0  501    0  0.00000000000E+00 -0.00000000000E+00 -0.28010597684E+02  0.28010597684E+02  0.00000000000E+00 0. -1.
         23    2    1    2    0    0 -0.13785971838E+02 -0.27471183995E+02  0.88751934385E+02  0.12773714410E+03  0.86574552589E+02 0.  0.
          5    1    1    2  502    0  0.63960386315E+02  0.24571771524E+02  0.17698155013E+03  0.18982793382E+03  0.41800000000E+01 0. -1.
         -5    1    1    2    0  502 -0.50174414477E+02  0.28994124707E+01  0.30143652321E+03  0.30562612517E+03  0.41800000000E+01 0. -1.
        -11    1    3    3    0    0 -0.19708596791E+02 -0.46220473739E+01 -0.12485732435E+02  0.23784146481E+02  0.00000000000E+00 0. -1.
         11    1    3    3    0    0  0.59226249529E+01 -0.22849136621E+02  0.10123766682E+03  0.10395299762E+03  0.00000000000E+00 0.  1.
</event>
<event>
 7    1  0.4687179E-006  0.1093387E+03  0.7561462E-02  0.1261799E+00
          1   -1    0    0  501    0  0.00000000000E+00  0.00000000000E+00  0.60125462089E+03  0.60125462089E+03  0.00000000000E+00 0. -1.
         -1   -1    0    0    0  501 -0.00000000000E+00 -0.00000000000E+00 -0.21799980145E+02  0.21799980145E+02  0.00000000000E+00 0.  1.
         23    2    1    2    0    0 -0.25625813674E+02  0.79714104163E+01  0.31928524070E+03  0.33313048484E+03  0.91173621683E+02 0.  0.
          5    1    1    2  502    0 -0.48312074100E+02  0.12796113476E+02  0.86540294435E+02  0.10002245740E+03  0.41800000000E+01 0. -1.
         -5    1    1    2    0  502  0.73937887774E+02 -0.20767523892E+02  0.17362910561E+03  0.18990165879E+03  0.41800000000E+01 0. -1.
        -11    1    3    3    0    0  0.16566953810E+02  0.36904184474E+02  0.98248917181E+02  0.10625080008E+03  0.00000000000E+00 0.  1.
         11    1    3    3    0    0 -0.42192767484E+02 -0.28932774058E+02  0.22103632352E+03  0.22687968476E+03  0.00000000000E+00 0. -1.
</event>
<event>
 7    1  0.4687179E-006  0.8652780E+02  0.7561462E-02  0.1311485E+00
         -2   -1    0    0    0  501 -0.00000000000E+00  0.00000000000E+00  0.30530218074E+03  0.30530218074E+03  0.00000000000E+00 0.  1.
          2   -1    0    0  501    0  0.00000000000E+00 -0.00000000000E+00 -0.50196114520E+02  0.50196114520E+02  0.00000000000E+00 0. -1.
         23    2    1    2    0    0  0.53902514252E+02 -0.20475395225E+02  0.81811197034E+02  0.13413117681E+03  0.89293772343E+02 0.  0.
          5    1    1    2  502    0  0.11856345868E+02  0.83652178269E+01 -0.15136221374E+02  0.21380537976E+02  0.41800000000E+01 0. -1.
         -5    1    1    2    0  502 -0.65758860120E+02  0.12110177398E+02  0.18843109056E+03  0.19998658048E+03  0.41800000000E+01 0. -1.
        -11    1    3    3    0    0 -0.30705173047E+01  0.20534087589E+02 -0.60924610476E+01  0.21637812072E+02  0.00000000000E+00 0. -1.
         11    1    3    3    0    0  0.56973031557E+02 -0.41009482814E+02  0.87903658082E+02  0.11249336474E+03  0.00000000000E+00 0.  1.
</event>
<event>
 7    1  0.4687179E-006  0.1060862E+03  0.7561462E-02  0.1267994E+00
         -2   -1    0    0    0  501 -0.00000000000E+00  0.00000000000E+00  0.10273830043E+03  0.10273830043E+03  0.00000000000E+00 0.  1.
          2   -1    0    0  501    0  0.00000000000E+00 -0.00000000000E+00 -0.20916578211E+03  0.20916578211E+03  0.00000000000E+00 0. -1.
         23    2    1    2    0    0  0.61388193824E+02  0.53476742879E+02 -0.88714726951E+02  0.16160826681E+03  0.10778987314E+03 0.  0.
          5    1    1    2  502    0 -0.47087312708E+02 -0.69585275676E+02  0.36582955304E+02  0.91733912092E+02  0.41800000000E+01 0.  1.
         -5    1    1    2    0  502 -0.14300881115E+02  0.16108532797E+02 -0.54295710037E+02  0.58561903641E+02  0.41800000000E+01 0.  1.
        -11    1    3    3    0    0  0.70892756690E+02  0.23542911474E+02 -0.81556762610E+01  0.75143640363E+02  0.00000000000E+00 0.  1.
         11    1    3    3    0    0 -0.95045628660E+01  0.29933831404E+02 -0.80559050690E+02  0.86464626442E+02  0.00000000000E+00 0. -1.
</event>
<event>
 7    1  0.4687179E-006  0.1421580E+03  0.7561462E-02  0.1210454E+00
          1   -1    0    0  501    0  0.00000000000E+00  0.00000000000E+00  0.29249653039E+03  0.29249653039E+03  0.00000000000E+00 0. -1.
         -1   -1    0    0    0  501 -0.00000000000E+00 -0.00000000000E+00 -0.13562920842E+03  0.13562920842E+03  0.00000000000E+00 0.  1.
         23    2    1    2    0    0  0.12437582572E+03 -0.47909852933E+02  0.18334315394E+03  0.24342986208E+03  0.88761960439E+02 0.  0.
          5    1    1    2  502    0  0.11230495341E+01  0.14543853361E+02 -0.50356921327E+02  0.52593505648E+02  0.41800000000E+01 0.  1.
         -5    1    1    2    0  502 -0.12549887526E+03  0.33365999572E+02  0.23881089349E+02  0.13210237109E+03  0.41800000000E+01 0.  1.
        -11    1    3    3    0    0  0.29918837431E+02 -0.31318931469E+02  0.86864805210E+01  0.44175414491E+02  0.00000000000E+00 0.  1.
         11    1    3    3    0    0  0.94456988292E+02 -0.16590921464E+02  0.17465667342E+03  0.19925444759E+03  0.00000000000E+00 0. -1.
</event>
<event>
 7    1  0.4687179E-006  0.1349396E+03  0.7561462E-02  0.1220305E+00
         -2   -1    0    0    0  501 -0.00000000000E+00  0.00000000000E+00  0.57500205825E+03  0.57500205825E+03  0.00000000000E+00 0.  1.
          2   -1    0    0  501    0  0.00000000000E+00 -0.00000000000E+00 -0.37786082172E+02  0.37786082172E+02  0.00000000000E+00 0. -1.
         23    2    1    2    0    0  0.84419484882E+02  0.52867338683E+02  0.25336066490E+03  0.28698690834E+03  0.90819899348E+02 0.  0.
          5    1    1    2  502    0 -0.95892547222E+02  0.45285064266E+01  0.13421580196E+03  0.16506738587E+03  0.41800000000E+01 0. -1.
         -5    1    1    2    0  502  0.11473062340E+02 -0.57395845109E+02  0.14963950922E+03  0.16073384620E+03  0.41800000000E+01 0. -1.
        -11    1    3    3    0    0  0.42750217506E+00 -0.10115866897E+02 -0.24970092702E+01  0.10428258554E+02  0.00000000000E+00 0. -1.
         11    1    3    3    0    0  0.83991982707E+02  0.62983205579E+02  0.25585767417E+03  0.27655864979E+03  0.00000000000E+00 0.  1.
</event>
<event>
 7    1  0.4687179E-006  0.2937658E+03  0.7561462E-02  0.1088399E+00
          1   -1    0    0  501    0  0.00000000000E+00  0.00000000000E+00  0.13986549653E+04  0.13986549653E+04  0.00000000000E+00 0. -1.
         -1   -1    0    0    0  501 -0.00000000000E+00 -0.00000000000E+00 -0.68524096529E+02  0.68524096529E+02  0.00000000000E+00 0.  1.
         23    2    1    2    0    0  0.16879576061E+03  0.22949766063E+03  0.52820368903E+03  0.60700706692E+03  0.91089281229E+02 0.  0.
          5    1    1    2  502    0 -0.14524286423E+03 -0.11878480342E+03  0.38768211095E+03  0.43072057146E+03  0.41800000000E+01 0. -1.
         -5    1    1    2    0  502 -0.23552896380E+02 -0.11071285721E+03  0.41424506878E+03  0.42945142343E+03  0.41800000000E+01 0. -1.
        -11    1    3    3    0    0  0.93548474997E+02  0.15264124576E+03  0.40890903184E+03  0.44638241834E+03  0.00000000000E+00 0.  1.
         11    1    3    3    0    0  0.75247285610E+02  0.76856414867E+02  0.11929465718E+03  0.16062464858E+03  0.00000000000E+00 0. -1.
</event>
<event>
 7    1  0.4687179E-006  0.1148603E+03  0.7561462E-02  0.1251825E+00
         -3   -1    0    0    0  501 -0.00000000000E+00  0.00000000000E+00  0.24598938831E+03  0.24598938831E+03  0.00000000000E+00 0.  1.
          3   -1    0    0  501    0  0.00000000000E+00 -0.00000000000E+00 -0.59598105403E+02  0.59598105403E+02  0.00000000000E+00 0. -1.
         23    2    1    2    0    0 -0.25619787570E+02  0.44438254938E+02  0.78362323826E+02  0.13252528759E+03  0.93761218204E+02 0.  0.
          5    1    1    2  502    0 -0.26818525363E+02 -0.62416712458E+02  0.93416160887E+02  0.11558170622E+03  0.41800000000E+01 0. -1.
         -5    1    1    2    0  502  0.52438312933E+02  0.17978457520E+02  0.14612798193E+02  0.57480499903E+02  0.41800000000E+01 0. -1.
        -11    1    3    3    0    0 -0.44447259501E+02 -0.12437567077E+02  0.26103988989E+02  0.53025184517E+02  0.00000000000E+00 0. -1.
         11    1    3    3    0    0  0.18827471930E+02  0.56875822015E+02  0.52258334837E+02  0.79500103076E+02  0.00000000000E+00 0.  1.
</event>
<event>
 7    1  0.4687179E-006  0.8856737E+02  0.7561462E-02  0.1306359E+00
          1   -1    0    0  501    0  0.00000000000E+00  0.00000000000E+00  0.25824093100E+03  0.25824093100E+03  0.00000000000E+00 0. -1.
         -1   -1    0    0    0  501 -0.00000000000E+00 -0.00000000000E+00 -0.49568825519E+02  0.49568825519E+02  0.00000000000E+00 0.  1.
         23    2    1    2    0    0  0.15400114491E+02  0.27093397355E+02  0.86575629647E+02  0.13025383389E+03  0.92192764831E+02 0.  0.
          5    1    1    2  502    0 -0.28172654270E+02  0.21000442069E+02  0.12261286153E+03  0.12761701778E+03  0.41800000000E+01 0.  1.
         -5    1    1    2    0  502  0.12772539778E+02 -0.48093839424E+02 -0.51638569701E+00  0.49938904845E+02  0.41800000000E+01 0.  1.
        -11    1    3    3    0    0  0.97514861208E+01  0.58801659728E+02  0.34063848444E+02  0.68651820363E+02  0.00000000000E+00 0.  1.
         11    1    3    3    0    0  0.56486283707E+01 -0.31708262373E+02  0.52511781203E+02  0.61602013524E+02  0.00000000000E+00 0. -1.
</event>
<event>
 7    1  0.4687179E-006  0.1844752E+03  0.7561462E-02  0.1163541E+00
          2   -1    0    0  501    0  0.00000000000E+00  0.00000000000E+00  0.81145836641E+03  0.81145836641E+03  0.00000000000E+00 0. -1.
         -2   -1    0    0    0  501 -0.00000000000E+00 -0.00000000000E+00 -0.51989022434E+02  0.51989022434E+02  0.00000000000E+00 0.  1.
         23    2    1    2    0    0 -0.79407044486E+02  0.15470524820E+03  0.34467877169E+03  0.39660978344E+03  0.90866232069E+02 0.  0.
          5    1    1    2  502    0  0.61025416948E+02 -0.33552825900E+02  0.61952423318E+02  0.93303101741E+02  0.41800000000E+01 0. -1.
         -5    1    1    2    0  502  0.18381627538E+02 -0.12115242230E+03  0.35283814897E+03  0.37353450367E+03  0.41800000000E+01 0. -1.
        -11    1    3    3    0    0 -0.56533883010E+02  0.76697738289E+02  0.97159129604E+02  0.13608276692E+03  0.00000000000E+00 0. -1.
         11    1    3    3    0    0 -0.22873161476E+02  0.78007509914E+02  0.24751964208E+03  0.26052701652E+03  0.00000000000E+00 0.  1.
</event>
<event>
 7    1  0.4687179E-006  0.6952823E+02  0.7561462E-02  0.1361705E+00
          2   -1    0    0  501    0  0.00000000000E+00  0.00000000000E+00  0.27256177848E+03  0.27256177848E+03  0.00000000000E+00 0. -1.
         -2   -1    0    0    0  501 -0.00000000000E+00 -0.00000000000E+00 -0.42522920616E+02  0.42522920616E+02  0.00000000000E+00 0.  1.
         23    2    1    2    0    0  0.74512004809E+01  0.51085785534E+01  0.10100243706E+03  0.13514197852E+03  0.89332212020E+02 0.  0.
          5    1    1    2  502    0  0.18387233825E+02  0.17098092086E+02  0.14123787065E+03  0.14351321761E+03  0.41800000000E+01 0.  1.
         -5    1    1    2    0  502 -0.25838434306E+02 -0.22206670639E+02 -0.12201449844E+02  0.36429502969E+02  0.41800000000E+01 0.  1.
        -11    1    3    3    0    0  0.42413960373E+02  0.11010089077E+02  0.23067918599E+02  0.49520651899E+02  0.00000000000E+00 0.  1.
         11    1    3    3    0    0 -0.34962759892E+02 -0.59015105235E+01  0.77934518459E+02  0.85621326625E+02  0.00000000000E+00 0. -1.
</event>
<event>
 6    1  0.4687179E-006  0.5420114E+02  0.7561462E-02  0.1423915E+00
          1   -1    0    0  501    0  0.00000000000E+00  0.00000000000E+00  0.25456733709E+02  0.25456733709E+02  0.00000000000E+00 0. -1.
         -1   -1    0    0    0  501 -0.00000000000E+00 -0.00000000000E+00 -0.27140844532E+03  0.27140844532E+03  0.00000000000E+00 0.  1.
          5    1    1    2  502    0 -0.13265497447E+02 -0.20933752709E+02  0.46026995540E+01  0.25550981746E+02  0.41800000000E+01 0. -1.
         -5    1    1    2    0  502  0.33535437403E+02 -0.69691148773E+01 -0.19189845468E+03  0.19497610991E+03  0.41800000000E+01 0.  1.
        -11    1    1    2    0    0  0.78324239422E+01  0.16820380063E+02 -0.24637756556E+02  0.30843007285E+02  0.00000000000E+00 0. -1.
         11    1    1    2    0    0 -0.28102363898E+02  0.11082487523E+02 -0.34018199923E+02  0.45495080089E+02  0.00000000000E+00 0.  1.
</event>
<event>
 7    1  0.4687179E-006  0.1678117E+03  0.7561462E-02  0.1180149E+00
          1   -1    0    0  501    0  0.00000000000E+00  0.00000000000E+00  0.17457972324E+03  0.17457972324E+03  0.00000000000E+00 0. -1.
         -1   -1    0    0    0  501 -0.00000000000E+00 -0.00000000000E+00 -0.17660505586E+03  0.17660505586E+03  0.00000000000E+00 0.  1.
         23    2    1    2    0    0 -0.51458809521E+01  0.13067384028E+03  0.27911624831E+02  0.15874522037E+03  0.85550298456E+02 0.  0.
          5    1    1    2  502    0  0.54826132064E+01  0.24651898172E+02 -0.26750128089E+02  0.37024544343E+02  0.41800000000E+01 0. -1.
         -5    1    1    2    0  502 -0.33673225434E+00 -0.15532573845E+03 -0.31868293662E+01  0.15541501438E+03  0.41800000000E+01 0.  1.
        -11    1    3    3    0    0  0.20082932248E+02  0.12766590433E+03  0.14589101263E+02  0.13005671521E+03  0.00000000000E+00 0. -1.
         11    1    3    3    0    0 -0.25228813200E+02  0.30079359513E+01  0.13322523569E+02  0.28688505161E+02  0.00000000000E+00 0.  1.
</event>
<event>
 7    1  0.4687179E-006  0.1127826E+03  0.7561462E-02  0.1255502E+00
          1   -1    0    0  501    0  0.00000000000E+00  0.00000000000E+00  0.24428266899E+02  0.24428266899E+02  0.00000000000E+00 0. -1.
         -1   -1    0    0    0  501 -0.00000000000E+00 -0.00000000000E+00 -0.66442926368E+03  0.66442926368E+03  0.00000000000E+00 0.  1.
         23    2    1    2    0    0  0.45819584384E+02 -0.39018576660E+02 -0.20533215353E+03  0.23256141148E+03  0.91113298707E+02 0.  0.
          5    1    1    2  502    0 -0.87736100309E+02  0.14993584201E+02 -0.30914439442E+03  0.32172994867E+03  0.41800000000E+01 0.  1.
         -5    1    1    2    0  502  0.41916515925E+02  0.24024992460E+02 -0.12552444882E+03  0.13456617042E+03  0.41800000000E+01 0.  1.
        -11    1    3    3    0    0  0.34096592458E+02  0.11593078117E+02 -0.15875142147E+03  0.16278510649E+03  0.00000000000E+00 0.  1.
         11    1    3    3    0    0  0.11722991925E+02 -0.50611654777E+02 -0.46580732058E+02  0.69776304990E+02  0.00000000000E+00 0. -1.
</event>
<event>
 7    1  0.4687179E-006  0.1275551E+03  0.7561462E-02  0.1231129E+00
         -2   -1    0    0    0  501 -0.00000000000E+00  0.00000000000E+00  0.15916517372E+03  0.15916517372E+03  0.00000000000E+00 0.  1.
          2   -1    0    0  501    0  0.00000000000E+00 -0.00000000000E+00 -0.13174208286E+03  0.13174208286E+03  0.00000000000E+00 0. -1.
         23    2    1    2    0    0  0.89924047941E+02 -0.17857493619E+02 -0.12182797966E+02  0.13083958495E+03  0.92549186632E+02 0.  0.
          5    1    1    2  502    0  0.88260935183E+01  0.35598960484E+02  0.46549429871E+02  0.59409660289E+02  0.41800000000E+01 0.  1.
         -5    1    1    2    0  502 -0.98750141460E+02 -0.17741466865E+02 -0.69435410405E+01  0.10065801134E+03  0.41800000000E+01 0.  1.
        -11    1    3    3    0    0 -0.12378531664E+02 -0.85676794864E+01  0.18292604788E+02  0.23690769677E+02  0.00000000000E+00 0.  1.
         11    1    3    3    0    0  0.10230257961E+03 -0.92898141326E+01 -0.30475402755E+02  0.10714881527E+03  0.00000000000E+00 0. -1.
</event>
<event>
 7    1  0.4687179E-006  0.2144546E+03  0.7561462E-02  0.1138086E+00
          1   -1    0    0  501    0  0.00000000000E+00  0.00000000000E+00  0.28589962559E+03  0.28589962559E+03  0.00000000000E+00 0. -1.
         -1   -1    0    0    0  501 -0.00000000000E+00 -0.00000000000E+00 -0.67631777924E+03  0.67631777924E+03  0.00000000000E+00 0.  1.
         23    2    1    2    0    0 -0.45403235787E+02 -0.19514273579E+03  0.21945767374E+03  0.31088091296E+03  0.91340737488E+02 0.  0.
          5    1    1    2  502    0 -0.31284274939E+02  0.22809395242E+02 -0.12984041853E+03  0.13555434724E+03  0.41800000000E+01 0. -1.
         -5    1    1    2    0  502  0.76687510726E+02  0.17233334055E+03 -0.48003540886E+03  0.51578214463E+03  0.41800000000E+01 0.  1.
        -11    1    3    3    0    0 -0.36706318902E+02 -0.18106206531E+03  0.22701371339E+03  0.29268763454E+03  0.00000000000E+00 0. -1.
         11    1    3    3    0    0 -0.86969168845E+01 -0.14080670480E+02 -0.75560396516E+01  0.18193278420E+02  0.00000000000E+00 0.  1.
</event>
<event>
 7    1  0.4687179E-006  0.1387566E+03  0.7561462E-02  0.1215012E+00
         -1   -1    0    0    0  501 -0.00000000000E+00  0.00000000000E+00  0.15696362627E+03  0.15696362627E+03  0.00000000000E+00 0.  1.
          1   -1    0    0  501    0  0.00000000000E+00 -0.00000000000E+00 -0.14851226645E+03  0.14851226645E+03  0.00000000000E+00 0. -1.
         23    2    1    2    0    0  0.69375980836E+02 -0.81061305007E+02  0.16568413872E+02  0.14086670878E+03  0.90470743429E+02 0.  0.
          5    1    1    2  502    0 -0.96054277466E+02  0.35977576853E+02 -0.31081651429E+02  0.10725834099E+03  0.41800000000E+01 0.  1.
         -5    1    1    2    0  502  0.26678296630E+02  0.45083728153E+02  0.22964597373E+02  0.57350842956E+02  0.41800000000E+01 0.  1.
        -11    1    3    3    0    0  0.35743712348E+02 -0.13279048515E+01 -0.26201007499E+02  0.44338122397E+02  0.00000000000E+00 0. -1.
         11    1    3    3    0    0  0.33632268488E+02 -0.79733400155E+02  0.42769421370E+02  0.96528586379E+02  0.00000000000E+00 0.  1.
</event>
<event>
 7    1  0.4687179E-006  0.7170407E+02  0.7561462E-02  0.1354392E+00
          1   -1    0    0  501    0  0.00000000000E+00  0.00000000000E+00  0.12130986064E+02  0.12130986064E+02  0.00000000000E+00 0. -1.
         -1   -1    0    0    0  501 -0.00000000000E+00 -0.00000000000E+00 -0.21382343513E+04  0.21382343513E+04  0.00000000000E+00 0.  1.
         23    2    1    2    0    0 -0.46330026728E+02  0.78948508238E+01 -0.25170395922E+03  0.27120887309E+03  0.89389986637E+02 0.  0.
          5    1    1    2  502    0  0.40136926345E+02 -0.93214102170E+01 -0.18698180167E+04  0.18702766505E+04  0.41800000000E+01 0.  1.
         -5    1    1    2    0  502  0.61931003831E+01  0.14265593931E+01 -0.45813893228E+01  0.88798137472E+01  0.41800000000E+01 0.  1.
        -11    1    3    3    0    0  0.18713960466E+02  0.20899505254E+02 -0.36629498313E+02  0.46138073029E+02  0.00000000000E+00 0. -1.
         11    1    3    3    0    0 -0.65043987193E+02 -0.13004654430E+02 -0.21507446091E+03  0.22507080006E+03  0.00000000000E+00 0.  1.
</event>
<event>
 7    1  0.4687179E-006  0.7599362E+02  0.7561462E-02  0.1340821E+00
          1   -1    0    0  501    0  0.00000000000E+00  0.00000000000E+00  0.43899579825E+03  0.43899579825E+03  0.00000000000E+00 0. -1.
         -1   -1    0    0    0  501 -0.00000000000E+00 -0.00000000000E+00 -0.32043990992E+02  0.32043990992E+02  0.00000000000E+00 0.  1.
         23    2    1    2    0    0  0.59843137895E+01  0.48234516094E+02  0.19763977947E+03  0.22239948896E+03  0.89653051858E+02 0.  0.
          5    1    1    2  502    0  0.94917030527E+01  0.13402315148E+02  0.17591160035E+03  0.17672599700E+03  0.41800000000E+01 0. -1.
         -5    1    1    2    0  502 -0.15476016842E+02 -0.61636831242E+02  0.33400427437E+02  0.71914303277E+02  0.41800000000E+01 0. -1.
        -11    1    3    3    0    0 -0.20886484606E+02  0.36454004608E+02  0.28580617688E+02  0.50813299426E+02  0.00000000000E+00 0.  1.
         11    1    3    3    0    0  0.26870798395E+02  0.11780511486E+02  0.16905916178E+03  0.17158618954E+03  0.00000000000E+00 0. -1.
</event>
<event>
 7    1  0.4687179E-006  0.1083124E+03  0.7561462E-02  0.1263727E+00
          1   -1    0    0  501    0  0.00000000000E+00  0.00000000000E+00  0.39165384466E+03  0.39165384466E+03  0.00000000000E+00 0. -1.
         -1   -1    0    0    0  501 -0.00000000000E+00 -0.00000000000E+00 -0.32694716524E+02  0.32694716524E+02  0.00000000000E+00 0.  1.
         23    2    1    2    0    0  0.22999183845E+02 -0.24833975077E+02  0.13851443650E+03  0.16863682600E+03  0.90035777285E+02 0.  0.
          5    1    1    2  502    0  0.78650502485E+00  0.72259620607E+02  0.15712473708E+03  0.17299632009E+03  0.41800000000E+01 0. -1.
         -5    1    1    2    0  502 -0.23785688870E+02 -0.47425645529E+02  0.63319954559E+02  0.82715415094E+02  0.41800000000E+01 0. -1.
        -11    1    3    3    0    0 -0.30733424931E+02 -0.20851892267E+02  0.31000083870E+02  0.48377164231E+02  0.00000000000E+00 0.  1.
         11    1    3    3    0    0  0.53732608775E+02 -0.39820828105E+01  0.10751435262E+03  0.12025966177E+03  0.00000000000E+00 0. -1.
</event>
<event>
 7    1  0.4687179E-006  0.1216593E+03  0.7561462E-02  0.1240385E+00
         -3   -1    0    0    0  501 -0.00000000000E+00  0.00000000000E+00  0.25939751624E+03  0.25939751624E+03  0.00000000000E+00 0.  1.
          3   -1    0    0  501    0  0.00000000000E+00 -0.00000000000E+00 -0.80864808737E+02  0.80864808737E+02  0.00000000000E+00 0. -1.
         23    2    1    2    0    0 -0.60032956655E+02  0.42605171367E+02  0.11193521286E+02  0.11874796970E+03  0.92502047963E+02 0.  0.
          5    1    1    2  502    0  0.88397229710E+02 -0.38351156217E+02  0.67939825216E+02  0.11797530951E+03  0.41800000000E+01 0. -1.
         -5    1    1    2    0  502 -0.28364273055E+02 -0.42540151499E+01  0.99399360998E+02  0.10353904576E+03  0.41800000000E+01 0. -1.
        -11    1    3    3    0    0  0.17639753107E+02  0.35806440261E+02 -0.42136568128E+00  0.39917910803E+02  0.00000000000E+00 0.  1.
         11    1    3    3    0    0 -0.77672709763E+02  0.67987311059E+01  0.11614886967E+02  0.78830058897E+02  0.00000000000E+00 0. -1.
</event>
<event>
 7    1  0.4687179E-006  0.2242463E+03  0.7561462E-02  0.1130756E+00
         -1   -1    0    0    0  501 -0.00000000000E+00  0.00000000000E+00  0.11943101761E+03  0.11943101761E+03  0.00000000000E+00 0.  1.
          1   -1    0    0  501    0  0.00000000000E+00 -0.00000000000E+00 -0.69518765461E+03  0.69518765461E+03  0.00000000000E+00 0. -1.
         23    2    1    2    0    0  0.99083877234E+00 -0.19565435117E+03 -0.53582972676E+03  0.57898738289E+03  0.99152844509E+02 0.  0.
          5    1    1    2  502    0 -0.61639060179E+02  0.11663402231E+03 -0.30675450971E+02  0.13550396523E+03  0.41800000000E+01 0. -1.
         -5    1    1    2    0  502  0.60648221407E+02  0.79020328858E+02 -0.92514592603E+01  0.10012732410E+03  0.41800000000E+01 0. -1.
        -11    1    3    3    0    0 -0.38015966535E+02 -0.15829501006E+03 -0.43738617978E+03  0.46670032589E+03  0.00000000000E+00 0. -1.
         11    1    3    3    0    0  0.39006805308E+02 -0.37359341109E+02 -0.98443546985E+02  0.11228705701E+03  0.00000000000E+00 0.  1.
</event>
<event>
 7    1  0.4687179E-006  0.1145835E+03  0.7561462E-02  0.1252310E+00
         -1   -1    0    0    0  501 -0.00000000000E+00  0.00000000000E+00  0.97241462416E+02  0.97241462416E+02  0.00000000000E+00 0.  1.
          1   -1    0    0  501    0  0.00000000000E+00 -0.00000000000E+00 -0.21735953553E+03  0.21735953553E+03  0.00000000000E+00 0. -1.
         23    2    1    2    0    0 -0.36686189958E+01 -0.37493253059E+02 -0.15080985946E+03  0.18041281049E+03  0.91574918455E+02 0.  0.
          5    1    1    2  502    0 -0.29339819840E+02  0.74622620647E+02  0.24513490281E+02  0.83950843630E+02  0.41800000000E+01 0.  1.
         -5    1    1    2    0  502  0.33008438836E+02 -0.37129367588E+02  0.61782960640E+01  0.50237343821E+02  0.41800000000E+01 0.  1.
        -11    1    3    3    0    0  0.33404285276E+02 -0.49792092208E+02 -0.91905897294E+02  0.10973510231E+03  0.00000000000E+00 0. -1.
         11    1    3    3    0    0 -0.37072904272E+02  0.12298839149E+02 -0.58903962164E+02  0.70677708184E+02  0.00000000000E+00 0.  1.
</event>
<event>
 6    1  0.4687179E-006  0.7700419E+02  0.7561462E-02  0.1337775E+00
         -1   -1    0    0    0  501 -0.00000000000E+00  0.00000000000E+00  0.30416896604E+02  0.30416896604E+02  0.00000000000E+00 0.  1.
          1   -1    0    0  501    0  0.00000000000E+00 -0.00000000000E+00 -0.34539636586E+03  0.34539636586E+03  0.00000000000E+00 0. -1.
          5    1    1    2  502    0  0.53745675638E+02 -0.13116658023E+02 -0.13841028436E+03  0.14911580595E+03  0.41800000000E+01 0.  1.
         -5    1    1    2    0  502 -0.24241951532E+02  0.32688556365E+02 -0.20085103008E+00  0.40911204730E+02  0.41800000000E+01 0.  1.
        -11    1    1    2    0    0 -0.17806498068E+02  0.13623854815E+02 -0.54343688784E+02  0.58787050480E+02  0.00000000000E+00 0.  1.
         11    1    1    2    0    0 -0.11697226037E+02 -0.33195753157E+02 -0.12202464509E+03  0.12699920131E+03  0.00000000000E+00 0. -1.
</event>
<event>
 7    1  0.4756323E-006  0.1759440E+03  0.7561462E-02  0.1171787E+00
          2   -1    0    0  501    0  0.00000000000E+00  0.00000000000E+00  0.11907419255E+04  0.11907419255E+04  0.00000000000E+00 0. -1.
         -2   -1    0    0    0  501 -0.00000000000E+00 -0.00000000000E+00 -0.31664587619E+02  0.31664587619E+02  0.00000000000E+00 0.  1.
         23    2    1    2    0    0  0.15279273536E+03 -0.14850073251E+02  0.69872561900E+03  0.72127057618E+03  0.91910874012E+02 0.  0.
          5    1    1    2  502    0 -0.12472305089E+03 -0.43687587379E+02  0.32845578549E+03  0.35406937192E+03  0.41800000000E+01 0. -1.
         -5    1    1    2    0  502 -0.28069684475E+02  0.58537660630E+02  0.13189593336E+03  0.14706656498E+03  0.41800000000E+01 0. -1.
        -11    1    3    3    0    0  0.11651763954E+03 -0.33699597171E+01  0.64492892972E+03  0.65537854813E+03  0.00000000000E+00 0. -1.
         11    1    3    3    0    0  0.36275095823E+02 -0.11480113534E+02  0.53796689276E+02  0.65892028052E+02  0.00000000000E+00 0.  1.
</event>
<event>
 7    1  0.4687179E-006  0.1919673E+03  0.7561462E-02  0.1156699E+00
          4   -1    0    0  501    0  0.00000000000E+00  0.00000000000E+00  0.34990899910E+03  0.34990899910E+03  0.00000000000E+00 0. -1.
         -4   -1    0    0    0  501 -0.00000000000E+00 -0.00000000000E+00 -0.13000393969E+03  0.13000393969E+03  0.00000000000E+00 0.  1.
         23    2    1    2    0    0  0.12212546082E+03 -0.13346242161E+03  0.11253576074E+03  0.23516425797E+03  0.99554430434E+02 0.  0.
          5    1    1    2  502    0  0.14080081722E+02  0.96805451519E+01  0.48307282689E+02  0.51410384326E+02  0.41800000000E+01 0. -1.
         -5    1    1    2    0  502 -0.13620554254E+03  0.12378187646E+03  0.59062015977E+02  0.19333829649E+03  0.41800000000E+01 0. -1.
        -11    1    3    3    0    0  0.11083886972E+03 -0.10972741951E+03  0.13047405273E+03  0.20334414196E+03  0.00000000000E+00 0.  1.
         11    1    3    3    0    0  0.11286591095E+02 -0.23735002109E+02 -0.17938291990E+02  0.31820116015E+02  0.00000000000E+00 0. -1.
</event>
<event>
 7    1  0.4687179E-006  0.1100812E+03  0.7561462E-02  0.1260420E+00
          2   -1    0    0  501    0  0.00000000000E+00  0.00000000000E+00  0.16612707041E+03  0.16612707041E+03  0.00000000000E+00 0. -1.
         -2   -1    0    0    0  501 -0.00000000000E+00 -0.00000000000E+00 -0.87655960098E+02  0.87655960098E+02  0.00000000000E+00 0.  1.
         23    2    1    2    0    0  0.35325142835E+02  0.24129714048E+02  0.74921826332E+02  0.12730714950E+03  0.93614750103E+02 0.  0.
          5    1    1    2  502    0  0.14220829554E+02 -0.56535327434E+02  0.24725981866E+02  0.63461183574E+02  0.41800000000E+01 0. -1.
         -5    1    1    2    0  502 -0.49545972389E+02  0.32405613387E+02 -0.21176697889E+02  0.63014697431E+02  0.41800000000E+01 0.  1.
        -11    1    3    3    0    0  0.24382880564E+02  0.60052632171E+02  0.40935187089E+02  0.76658548364E+02  0.00000000000E+00 0. -1.
         11    1    3    3    0    0  0.10942262271E+02 -0.35922918123E+02  0.33986639243E+02  0.50648601137E+02  0.00000000000E+00 0.  1.
</event>
<event>
 7    1  0.4687179E-006  0.1004132E+03  0.7561462E-02  0.1279430E+00
          2   -1    0    0  501    0  0.00000000000E+00  0.00000000000E+00  0.37170747055E+03  0.37170747055E+03  0.00000000000E+00 0. -1.
         -2   -1    0    0    0  501 -0.00000000000E+00 -0.00000000000E+00 -0.31003173376E+02  0.31003173376E+02  0.00000000000E+00 0.  1.
         23    2    1    2    0    0 -0.16730958393E+02 -0.13546314258E+02  0.20324499432E+03  0.22402801526E+03  0.91742009480E+02 0.  0.
          5    1    1    2  502    0  0.29573545295E+02 -0.42579868591E+02  0.90011015216E+02  0.10395717893E+03  0.41800000000E+01 0. -1.
         -5    1    1    2    0  502 -0.12842586902E+02  0.56126182849E+02  0.47448287634E+02  0.74725449741E+02  0.41800000000E+01 0.  1.
        -11    1    3    3    0    0 -0.49981837072E+02 -0.25043454175E+02  0.15122494895E+03  0.16122761494E+03  0.00000000000E+00 0.  1.
         11    1    3    3    0    0  0.33250878680E+02  0.11497139918E+02  0.52020045371E+02  0.62800400314E+02  0.00000000000E+00 0. -1.
</event>
<event>
 7    1  0.4687179E-006  0.1110222E+03  0.7561462E-02  0.1258688E+00
         -2   -1    0    0    0  501 -0.00000000000E+00  0.00000000000E+00  0.32198725584E+02  0.32198725584E+02  0.00000000000E+00 0.  1.
          2   -1    0    0  501    0  0.00000000000E+00 -0.00000000000E+00 -0.55809680720E+03  0.55809680720E+03  0.00000000000E+00 0. -1.
         23    2    1    2    0    0 -0.57125393401E+02 -0.49353242746E+02 -0.27655964178E+03  0.30130379145E+03  0.92734492708E+02 0.  0.
          5    1    1    2  502    0  0.20187644123E+02 -0.17751988220E+02  0.93843381322E+00  0.27221813294E+02  0.41800000000E+01 0. -1.
         -5    1    1    2    0  502  0.36937749279E+02  0.67105230966E+02 -0.25027687365E+03  0.26176992804E+03  0.41800000000E+01 0. -1.
        -11    1    3    3    0    0  0.84914423042E+01  0.20558986567E+02 -0.35716490170E+02  0.42076646624E+02  0.00000000000E+00 0.  1.
         11    1    3    3    0    0 -0.65616835706E+02 -0.69912229313E+02 -0.24084315161E+03  0.25922714483E+03  0.00000000000E+00 0. -1.
</event>
<event>
 7    1  0.4687179E-006  0.9986176E+02  0.7561462E-02  0.1280587E+00
          1   -1    0    0  501    0  0.00000000000E+00  0.00000000000E+00  0.38295728305E+03  0.38295728305E+03  0.00000000000E+00 0. -1.
         -1   -1    0    0    0  501 -0.00000000000E+00 -0.00000000000E+00 -0.75465664309E+02  0.75465664309E+02  0.00000000000E+00 0.  1.
         23    2    1    2    0    0 -0.17181108312E+02  0.30732925133E+02  0.30285116079E+03  0.31768338335E+03  0.89242385084E+02 0.  0.
          5    1    1    2  502    0 -0.22593392060E+02  0.26737796956E+02  0.47116662744E+02  0.58845759906E+02  0.41800000000E+01 0. -1.
         -5    1    1    2    0  502  0.39774500372E+02 -0.57470722089E+02 -0.42476204790E+02  0.81893804104E+02  0.41800000000E+01 0.  1.
        -11    1    3    3    0    0 -0.53167241143E+02  0.15548904364E+02  0.20423814413E+03  0.21161697350E+03  0.00000000000E+00 0. -1.
         11    1    3    3    0    0  0.35986132831E+02  0.15184020769E+02  0.98613016658E+02  0.10606640984E+03  0.00000000000E+00 0.  1.
</event>
<event>
 7    1  0.4687179E-006  0.9766175E+02  0.7561462E-02  0.1285291E+00
         -1   -1    0    0    0  501 -0.00000000000E+00  0.00000000000E+00  0.43472444819E+03  0.43472444819E+03  0.00000000000E+00 0.  1.
          1   -1    0    0  501    0  0.00000000000E+00 -0.00000000000E+00 -0.25938763155E+02  0.25938763155E+02  0.00000000000E+00 0. -1.
         23    2    1    2    0    0 -0.17544671782E+02  0.10941964021E+02  0.16536069230E+03  0.18619759989E+03  0.83053269416E+02 0.  0.
          5    1    1    2  502    0  0.26430857746E+02 -0.63119447112E+02  0.17434025349E+03  0.18733566461E+03  0.41800000000E+01 0.  1.
         -5    1    1    2    0  502 -0.88861859640E+01  0.52177483091E+02  0.69084739237E+02  0.87129946850E+02  0.41800000000E+01 0.  1.
        -11    1    3    3    0    0  0.16865714713E+02  0.29941768623E+02  0.31263951624E+02  0.46458546170E+02  0.00000000000E+00 0. -1.
         11    1    3    3    0    0 -0.34410386495E+02 -0.18999804601E+02  0.13409674068E+03  0.13973905372E+03  0.00000000000E+00 0.  1.
</event>
<event>
 7    1  0.4687179E-006  0.1204237E+03  0.7561462E-02  0.1242400E+00
          1   -1    0    0  501    0  0.00000000000E+00  0.00000000000E+00  0.44870034274E+02  0.44870034274E+02  0.00000000000E+00 0. -1.
         -1   -1    0    0    0  501 -0.00000000000E+00 -0.00000000000E+00 -0.53675077191E+03  0.53675077191E+03  0.00000000000E+00 0.  1.
         23    2    1    2    0    0 -0.62306742276E+02  0.39052290188E+02 -0.72427702770E+02  0.13777840201E+03  0.91268310101E+02 0.  0.
          5    1    1    2  502    0  0.90135752822E+02 -0.30269741264E+02 -0.19001219750E+03  0.21251545537E+03  0.41800000000E+01 0.  1.
         -5    1    1    2    0  502 -0.27829010546E+02 -0.87825489242E+01 -0.22944083737E+03  0.23132694881E+03  0.41800000000E+01 0.  1.
        -11    1    3    3    0    0  0.22520873296E+02  0.17900229099E+02 -0.26068278100E+02  0.38822198018E+02  0.00000000000E+00 0. -1.
         11    1    3    3    0    0 -0.84827615572E+02  0.21152061088E+02 -0.46359424670E+02  0.98956203988E+02  0.00000000000E+00 0.  1.
</event>
<event>
 7    1  0.4687179E-006  0.1340901E+03  0.7561462E-02  0.1221510E+00
          1   -1    0    0  501    0  0.00000000000E+00  0.00000000000E+00  0.17991660851E+03  0.17991660851E+03  0.00000000000E+00 0. -1.
         -1   -1    0    0    0  501 -0.00000000000E+00 -0.00000000000E+00 -0.15383498338E+03  0.15383498338E+03  0.00000000000E+00 0.  1.
         23    2    1    2    0    0  0.55885779280E+02  0.94996241857E+02  0.73812313107E+02  0.16033585881E+03  0.90065663602E+02 0.  0.
          5    1    1    2  502    0 -0.46462072126E+02 -0.12116665263E+03 -0.59629355588E+02  0.14287482040E+03  0.41800000000E+01 0. -1.
         -5    1    1    2    0  502 -0.94237071543E+01  0.26170410777E+02  0.11898667612E+02  0.30540912686E+02  0.41800000000E+01 0. -1.
        -11    1    3    3    0    0  0.42716810407E+02  0.72544247126E+02  0.22827738771E+01  0.84217603498E+02  0.00000000000E+00 0.  1.
         11    1    3    3    0    0  0.13168968873E+02  0.22451994731E+02  0.71529539230E+02  0.76118255307E+02  0.00000000000E+00 0. -1.
</event>
<event>
 7    1  0.4687179E-006  0.1593991E+03  0.7561462E-02  0.1189377E+00
          1   -1    0    0  501    0  0.00000000000E+00  0.00000000000E+00  0.36341768414E+03  0.36341768414E+03  0.00000000000E+00 0. -1.
         -1   -1    0    0    0  501 -0.00000000000E+00 -0.00000000000E+00 -0.10846140068E+03  0.10846140068E+03  0.00000000000E+00 0.  1.
         23    2    1    2    0    0  0.14345837155E+03 -0.63261663892E+02  0.18586567506E+03  0.25973900045E+03  0.91301460590E+02 0.  0.
          5    1    1    2  502    0 -0.17739964493E+02  0.16946110748E+02 -0.34636083925E+02  0.42649826721E+02  0.41800000000E+01 0.  1.
         -5    1    1    2    0  502 -0.12571840706E+03  0.46315553144E+02  0.10372669232E+03  0.16949025764E+03  0.41800000000E+01 0.  1.
        -11    1    3    3    0    0  0.59598038568E+02 -0.97537213284E+01  0.15323380809E+02  0.62304632896E+02  0.00000000000E+00 0.  1.
         11    1    3    3    0    0  0.83860332981E+02 -0.53507942564E+02  0.17054229425E+03  0.19743436756E+03  0.00000000000E+00 0. -1.
</event>
<event>
 7    1  0.4687179E-006  0.1061219E+03  0.7561462E-02  0.1267925E+00
         -2   -1    0    0    0  501 -0.00000000000E+00  0.00000000000E+00  0.59219287664E+03  0.59219287664E+03  0.00000000000E+00 0.  1.
          2   -1    0    0  501    0  0.00000000000E+00 -0.00000000000E+00 -0.21870859477E+02  0.21870859477E+02  0.00000000000E+00 0. -1.
         23    2    1    2    0    0  0.13061911350E+02  0.27885841954E+02  0.21101462220E+03  0.23236066187E+03  0.92282569818E+02 0.  0.
          5    1    1    2  502    0  0.32342741321E+02 -0.53572281886E+02  0.10700887004E+03  0.12403391863E+03  0.41800000000E+01 0.  1.
         -5    1    1    2    0  502 -0.45404652671E+02  0.25686439932E+02  0.25229852491E+03  0.25766915561E+03  0.41800000000E+01 0.  1.
        -11    1    3    3    0    0 -0.26606859956E+02  0.46344369199E+02  0.12104562516E+03  0.13231692607E+03  0.00000000000E+00 0.  1.
         11    1    3    3    0    0  0.39668771306E+02 -0.18458527244E+02  0.89968997039E+02  0.10004373580E+03  0.00000000000E+00 0. -1.
</event>
<event>
 7    1  0.4687179E-006  0.8788628E+02  0.7561462E-02  0.1308053E+00
         -1   -1    0    0    0  501 -0.00000000000E+00  0.00000000000E+00  0.31957119757E+03  0.31957119757E+03  0.00000000000E+00 0.  1.
          1   -1    0    0  501    0  0.00000000000E+00 -0.00000000000E+00 -0.40907187747E+02  0.40907187747E+02  0.00000000000E+00 0. -1.
         23    2    1    2    0    0 -0.13109979189E+02  0.30534426785E+02  0.10484247799E+03  0.14376102711E+03  0.92580046179E+02 0.  0.
          5    1    1    2  502    0  0.33125226420E+02  0.16198164419E+02  0.15946434278E+03  0.16372541090E+03  0.41800000000E+01 0.  1.
         -5    1    1    2    0  502 -0.20015247232E+02 -0.46732591204E+02  0.14357189053E+02  0.52991947312E+02  0.41800000000E+01 0.  1.
        -11    1    3    3    0    0  0.29221339561E+01 -0.27392679224E+02  0.61806001749E+01  0.28232916258E+02  0.00000000000E+00 0. -1.
         11    1    3    3    0    0 -0.16032113145E+02  0.57927106009E+02  0.98661877819E+02  0.11552811085E+03  0.00000000000E+00 0.  1.
</event>
<event>
 7    1  0.4687179E-006  0.2925824E+03  0.7561462E-02  0.1089009E+00
          2   -1    0    0  501    0  0.00000000000E+00  0.00000000000E+00  0.10356879527E+04  0.10356879527E+04  0.00000000000E+00 0. -1.
         -2   -1    0    0    0  501 -0.00000000000E+00 -0.00000000000E+00 -0.12841344659E+03  0.12841344659E+03  0.00000000000E+00 0.  1.
         23    2    1    2    0    0 -0.27618470346E+03 -0.82948482415E+02  0.75780409879E+03  0.81603902629E+03  0.92163979588E+02 0.  0.
          5    1    1    2  502    0  0.20750245020E+03  0.31346576658E+02  0.48506029486E+02  0.21543022537E+03  0.41800000000E+01 0. -1.
         -5    1    1    2    0  502  0.68682253265E+02  0.51601905757E+02  0.10096437781E+03  0.13263214760E+03  0.41800000000E+01 0. -1.
        -11    1    3    3    0    0 -0.19548477929E+03 -0.69341164719E+02  0.41950626326E+03  0.46798290671E+03  0.00000000000E+00 0.  1.
         11    1    3    3    0    0 -0.80699924168E+02 -0.13607317696E+02  0.33829783553E+03  0.34805611958E+03  0.00000000000E+00 0. -1.
</event>
<event>
 7    1  0.4687179E-006  0.1273891E+03  0.7561462E-02  0.1231382E+00
          2   -1    0    0  501    0  0.00000000000E+00  0.00000000000E+00  0.10756974163E+04  0.10756974163E+04  0.00000000000E+00 0. -1.
         -2   -1    0    0    0  501 -0.00000000000E+00 -0.00000000000E+00 -0.20223955836E+02  0.20223955836E+02  0.00000000000E+00 0.  1.
         23    2    1    2    0    0 -0.36745248688E+02 -0.87752118703E+02  0.39768232070E+03  0.41883635451E+03  0.90675333042E+02 0.  0.
          5    1    1    2  502    0  0.75323983101E+01 -0.18989076460E+02  0.33834333717E+03  0.33898526259E+03  0.41800000000E+01 0. -1.
         -5    1    1    2    0  502  0.29212850378E+02  0.10674119516E+03  0.31944780261E+03  0.33809975505E+03  0.41800000000E+01 0.  1.
        -11    1    3    3    0    0 -0.34681587327E+02  0.71596373405E+00  0.55939175558E+02  0.65821854013E+02  0.00000000000E+00 0.  1.
         11    1    3    3    0    0 -0.20636613612E+01 -0.88468082437E+02  0.34174314514E+03  0.35301450050E+03  0.00000000000E+00 0. -1.
</event>
<event>
 7    1  0.4687179E-006  0.1250367E+03  0.7561462E-02  0.1235012E+00
          2   -1    0    0  501    0  0.00000000000E+00  0.00000000000E+00  0.26736160028E+03  0.26736160028E+03  0.00000000000E+00 0. -1.
         -2   -1    0    0    0  501 -0.00000000000E+00 -0.00000000000E+00 -0.93993808789E+02  0.93993808789E+02  0.00000000000E+00 0.  1.
         23    2    1    2    0    0  0.15324274738E+01 -0.11226968314E+03  0.51495605520E+02  0.15372949904E+03  0.91510280296E+02 0.  0.
          5    1    1    2  502    0  0.37641319101E+02  0.47555557488E+02 -0.37681027953E+01  0.60910351751E+02  0.41800000000E+01 0. -1.
         -5    1    1    2    0  502 -0.39173746575E+02  0.64714125656E+02  0.12564028877E+03  0.14671555828E+03  0.41800000000E+01 0. -1.
        -11    1    3    3    0    0  0.88084107537E+01 -0.77177135098E+02 -0.14132517147E+02  0.78953317365E+02  0.00000000000E+00 0.  1.
         11    1    3    3    0    0 -0.72759832799E+01 -0.35092548046E+02  0.65628122667E+02  0.74776181675E+02  0.00000000000E+00 0. -1.
</event>
<event>
 7    1  0.4687179E-006  0.6766232E+02  0.7561462E-02  0.1368228E+00
         -2   -1    0    0    0  501 -0.00000000000E+00  0.00000000000E+00  0.46743348345E+02  0.46743348345E+02  0.00000000000E+00 0.  1.
          2   -1    0    0  501    0  0.00000000000E+00 -0.00000000000E+00 -0.31028962421E+03  0.31028962421E+03  0.00000000000E+00 0. -1.
         23    2    1    2    0    0  0.70166788454E+00 -0.83205810049E+01 -0.19127173426E+03  0.21232093975E+03  0.91790962101E+02 0.  0.
          5    1    1    2  502    0 -0.25947274013E+01  0.25234603860E+02  0.30821677494E+02  0.40136841503E+02  0.41800000000E+01 0.  1.
         -5    1    1    2    0  502  0.18930595168E+01 -0.16914022855E+02 -0.10309621910E+03  0.10457519130E+03  0.41800000000E+01 0.  1.
        -11    1    3    3    0    0 -0.14862053062E+02  0.39286103184E+02 -0.82838066044E+02  0.92878542789E+02  0.00000000000E+00 0.  1.
         11    1    3    3    0    0  0.15563720947E+02 -0.47606684189E+02 -0.10843366822E+03  0.11944239696E+03  0.00000000000E+00 0. -1.
</event>
<event>
 7    1  0.4687179E-006  0.6676933E+02  0.7561462E-02  0.1371437E+00
          1   -1    0    0  501    0  0.00000000000E+00  0.00000000000E+00  0.88955835476E+02  0.88955835476E+02  0.00000000000E+00 0. -1.
         -1   -1    0    0    0  501 -0.00000000000E+00 -0.00000000000E+00 -0.13502404629E+03  0.13502404629E+03  0.00000000000E+00 0.  1.
         23    2    1    2    0    0 -0.14555529066E+02 -0.56822481680E+01 -0.43517896507E+01  0.91202318271E+02  0.89748389480E+02 0.  0.
          5    1    1    2  502    0  0.28731179066E+02  0.43660950060E+02 -0.66802554265E+02  0.84922393201E+02  0.41800000000E+01 0. -1.
         -5    1    1    2    0  502 -0.14175650001E+02 -0.37978701892E+02  0.25086133099E+02  0.47855170297E+02  0.41800000000E+01 0. -1.
        -11    1    3    3    0    0 -0.61442320874E+01 -0.21541617368E+02 -0.43057598353E+02  0.48536065382E+02  0.00000000000E+00 0.  1.
         11    1    3    3    0    0 -0.84112969782E+01  0.15859369200E+02  0.38705808703E+02  0.42666252889E+02  0.00000000000E+00 0. -1.
</event>
<event>
 7    1  0.4687179E-006  0.9986913E+02  0.7561462E-02  0.1280571E+00
         -2   -1    0    0    0  501 -0.00000000000E+00  0.00000000000E+00  0.56836770112E+02  0.56836770112E+02  0.00000000000E+00 0.  1.
          2   -1    0    0  501    0  0.00000000000E+00 -0.00000000000E+00 -0.43895876952E+03  0.43895876952E+03  0.00000000000E+00 0. -1.
         23    2    1    2    0    0  0.30752085530E+02  0.72261881302E+02 -0.30961161499E+03  0.33125677342E+03  0.87773729227E+02 0.  0.
          5    1    1    2  502    0 -0.55152016009E+02 -0.56757011852E+02 -0.97816408114E+02  0.12589132361E+03  0.41800000000E+01 0. -1.
         -5    1    1    2    0  502  0.24399930479E+02 -0.15504869451E+02  0.25306023702E+02  0.38647442602E+02  0.41800000000E+01 0. -1.
        -11    1    3    3    0    0  0.32474772132E+02  0.18275063357E+02 -0.34136163314E+02  0.50535793370E+02  0.00000000000E+00 0.  1.
         11    1    3    3    0    0 -0.17226866019E+01  0.53986817945E+02 -0.27547545168E+03  0.28072098005E+03  0.00000000000E+00 0. -1.
</event>
<event>
 7    1  0.4687179E-006  0.9202141E+02  0.7561462E-02  0.1298029E+00
          3   -1    0    0  501    0  0.00000000000E+00  0.00000000000E+00  0.29318647382E+03  0.29318647382E+03  0.00000000000E+00 0. -1.
         -3   -1    0    0    0  501 -0.00000000000E+00 -0.00000000000E+00 -0.70189405389E+02  0.70189405389E+02  0.00000000000E+00 0.  1.
         23    2    1    2    0    0 -0.32036341800E+01  0.44997577431E+01  0.21941572556E+03  0.23811323804E+03  0.92326282372E+02 0.  0.
          5    1    1    2  502    0  0.32966402560E+02  0.32747209144E+02  0.42855976684E+02  0.63350379178E+02  0.41800000000E+01 0.  1.
         -5    1    1    2    0  502 -0.29762768380E+02 -0.37246966887E+02 -0.39274633810E+02  0.61912261990E+02  0.41800000000E+01 0.  1.
        -11    1    3    3    0    0 -0.13851191809E+02  0.45295243610E+02  0.85833589334E+02  0.98035298062E+02  0.00000000000E+00 0. -1.
         11    1    3    3    0    0  0.10647557629E+02 -0.40795485867E+02  0.13358213623E+03  0.14007793998E+03  0.00000000000E+00 0.  1.
</event>
<event>
 7    1  0.4687179E-006  0.9404179E+02  0.7561462E-02  0.1293349E+00
          3   -1    0    0  501    0  0.00000000000E+00  0.00000000000E+00  0.21216417811E+03  0.21216417811E+03  0.00000000000E+00 0. -1.
         -3   -1    0    0    0  501 -0.00000000000E+00 -0.00000000000E+00 -0.67164928479E+02  0.67164928479E+02  0.00000000000E+00 0.  1.
         23    2    1    2    0    0  0.34068636021E+02 -0.29931000757E+02  0.89912869113E+02  0.13532062912E+03  0.90392543208E+02 0.  0.
          5    1    1    2  502    0 -0.51739088271E+02  0.64455832938E+02  0.84202349939E+01  0.83185698363E+02  0.41800000000E+01 0.  1.
         -5    1    1    2    0  502  0.17670452250E+02 -0.34524832180E+02  0.46666145527E+02  0.60822779106E+02  0.41800000000E+01 0.  1.
        -11    1    3    3    0    0  0.18096568773E+02 -0.42369481206E+02  0.10187346979E+03  0.11180725641E+03  0.00000000000E+00 0.  1.
         11    1    3    3    0    0  0.15972067248E+02  0.12438480449E+02 -0.11960600673E+02  0.23513372716E+02  0.00000000000E+00 0. -1.
</event>
<event>
 7    1  0.4687179E-006  0.1416323E+03  0.7561462E-02  0.1211149E+00
         -1   -1    0    0    0  501 -0.00000000000E+00  0.00000000000E+00  0.16887901524E+03  0.16887901524E+03  0.00000000000E+00 0.  1.
          1   -1    0    0  501    0  0.00000000000E+00 -0.00000000000E+00 -0.22564097062E+03  0.22564097062E+03  0.00000000000E+00 0. -1.
         23    2    1    2    0    0  0.45749544635E+02  0.33178550757E+02 -0.10281883971E+03  0.14827766405E+03  0.90668157552E+02 0.  0.
          5    1    1    2  502    0 -0.12439758290E+03 -0.15646891374E+02  0.89974555164E+02  0.15437770829E+03  0.41800000000E+01 0. -1.
         -5    1    1    2    0  502  0.78648038266E+02 -0.17531659383E+02 -0.43917670840E+02  0.91864613513E+02  0.41800000000E+01 0.  1.
        -11    1    3    3    0    0 -0.31456675545E+01  0.27757982104E+02 -0.94299888621E+02  0.98350748796E+02  0.00000000000E+00 0. -1.
         11    1    3    3    0    0  0.48895212190E+02  0.54205686531E+01 -0.85189510875E+01  0.49926915259E+02  0.00000000000E+00 0.  1.
</event>
<event>
 7    1  0.4687179E-006  0.1019433E+03  0.7561462E-02  0.1276262E+00
          2   -1    0    0  501    0  0.00000000000E+00  0.00000000000E+00  0.49707162908E+03  0.49707162908E+03  0.00000000000E+00 0.  1.
         -2   -1    0    0    0  501 -0.00000000000E+00 -0.00000000000E+00 -0.40556142338E+02  0.40556142338E+02  0.00000000000E+00 0. -1.
         23    2    1    2    0    0 -0.14242180276E+02  0.35853286378E+02  0.37737240722E+03  0.38467654856E+03  0.63857775113E+02 0.  0.
          5    1    1    2  502    0 -0.42485819340E+02 -0.55369078151E+02  0.51088337701E+02  0.86592553429E+02  0.41800000000E+01 0.  1.
         -5    1    1    2    0  502  0.56727999616E+02  0.19515791773E+02  0.28054741821E+02  0.66358669423E+02  0.41800000000E+01 0.  1.
        -11    1    3    3    0    0 -0.30094057690E+02 -0.45465497927E+01  0.12905720440E+03  0.13259745635E+03  0.00000000000E+00 0. -1.
         11    1    3    3    0    0  0.15851877414E+02  0.40399836171E+02  0.24831520282E+03  0.25207909221E+03  0.00000000000E+00 0.  1.
</event>
<event>
 7    1  0.4687179E-006  0.8551235E+02  0.7561462E-02  0.1314098E+00
         -4   -1    0    0    0  501 -0.00000000000E+00  0.00000000000E+00  0.30241812911E+02  0.30241812911E+02  0.00000000000E+00 0.  1.
          4   -1    0    0  501    0  0.00000000000E+00 -0.00000000000E+00 -0.46137372907E+03  0.46137372907E+03  0.00000000000E+00 0. -1.
         23    2    1    2    0    0 -0.68009464602E+01 -0.50222284271E+02 -0.21183022412E+03  0.23411418866E+03  0.85842173617E+02 0.  0.
          5    1    1    2  502    0  0.25387307463E+02  0.11376741031E+02  0.54226600290E+01  0.28650013238E+02  0.41800000000E+01 0.  1.
         -5    1    1    2    0  502 -0.18586361003E+02  0.38845543240E+02 -0.22472435207E+03  0.22885134008E+03  0.41800000000E+01 0.  1.
        -11    1    3    3    0    0  0.18802919771E+02  0.18446320385E+02 -0.59632459100E+02  0.65190848330E+02  0.00000000000E+00 0.  1.
         11    1    3    3    0    0 -0.25603866231E+02 -0.68668604656E+02 -0.15219776502E+03  0.16892334033E+03  0.00000000000E+00 0. -1.
</event>
<event>
 7    1  0.4687179E-006  0.1273717E+03  0.7561462E-02  0.1231409E+00
          3   -1    0    0  501    0  0.00000000000E+00  0.00000000000E+00  0.32595287590E+02  0.32595287590E+02  0.00000000000E+00 0. -1.
         -3   -1    0    0    0  501 -0.00000000000E+00 -0.00000000000E+00 -0.52629503739E+03  0.52629503739E+03  0.00000000000E+00 0.  1.
         23    2    1    2    0    0  0.25760287576E+02 -0.64849625121E+02 -0.17201251939E+03  0.20675522816E+03  0.91051365983E+02 0.  0.
          5    1    1    2  502    0 -0.18160845971E+02  0.10266608562E+03 -0.24005759354E+03  0.26175420165E+03  0.41800000000E+01 0. -1.
         -5    1    1    2    0  502 -0.75994416058E+01 -0.37816460504E+02 -0.81629636864E+02  0.90380895173E+02  0.41800000000E+01 0. -1.
        -11    1    3    3    0    0  0.54977773201E+02 -0.61019868973E+02 -0.10317058911E+03  0.13187171953E+03  0.00000000000E+00 0. -1.
         11    1    3    3    0    0 -0.29217485625E+02 -0.38297561482E+01 -0.68841930283E+02  0.74883508621E+02  0.00000000000E+00 0.  1.
</event>
<event>
 7    1  0.4687179E-006  0.1211785E+03  0.7561462E-02  0.1241165E+00
         -3   -1    0    0    0  501 -0.00000000000E+00  0.00000000000E+00  0.11386455647E+03  0.11386455647E+03  0.00000000000E+00 0.  1.
          3   -1    0    0  501    0  0.00000000000E+00 -0.00000000000E+00 -0.16014877873E+03  0.16014877873E+03  0.00000000000E+00 0. -1.
         23    2    1    2    0    0  0.68055916557E+02 -0.11810100638E+02 -0.64547303411E+02  0.12996258658E+03  0.89178659321E+02 0.  0.
          5    1    1    2  502    0 -0.96617058846E+02  0.28378772696E+02  0.35137474606E+02  0.10673483649E+03  0.41800000000E+01 0.  1.
         -5    1    1    2    0  502  0.28561142289E+02 -0.16568672057E+02 -0.16874393457E+02  0.37315912118E+02  0.41800000000E+01 0.  1.
        -11    1    3    3    0    0 -0.12380543264E+02  0.18559833154E+02  0.23245829815E+00  0.22311416250E+02  0.00000000000E+00 0.  1.
         11    1    3    3    0    0  0.80436459821E+02 -0.30369933792E+02 -0.64779761709E+02  0.10765117033E+03  0.00000000000E+00 0. -1.
</event>
<event>
 7    1  0.4687179E-006  0.1458531E+03  0.7561462E-02  0.1205663E+00
         -2   -1    0    0    0  501 -0.00000000000E+00  0.00000000000E+00  0.91006575971E+02  0.91006575971E+02  0.00000000000E+00 0.  1.
          2   -1    0    0  501    0  0.00000000000E+00 -0.00000000000E+00 -0.31626367959E+03  0.31626367959E+03  0.00000000000E+00 0. -1.
         23    2    1    2    0    0  0.83100598568E+02 -0.78674208762E+02 -0.17755412697E+03  0.23114827170E+03  0.93854754266E+02 0.  0.
          5    1    1    2  502    0 -0.51283706671E+02  0.95101556969E+02 -0.74408783131E+02  0.13125724405E+03  0.41800000000E+01 0.  1.
         -5    1    1    2    0  502 -0.31816891897E+02 -0.16427348207E+02  0.26705806481E+02  0.44864739817E+02  0.41800000000E+01 0.  1.
        -11    1    3    3    0    0  0.50494516616E+02  0.11371996295E+02 -0.71279425809E+02  0.88089585375E+02  0.00000000000E+00 0.  1.
         11    1    3    3    0    0  0.32606081952E+02 -0.90046205057E+02 -0.10627470116E+03  0.14305868632E+03  0.00000000000E+00 0. -1.
</event>
<event>
 7    1  0.4687179E-006  0.1254041E+03  0.7561462E-02  0.1234439E+00
          1   -1    0    0  501    0  0.00000000000E+00  0.00000000000E+00  0.47764591199E+03  0.47764591199E+03  0.00000000000E+00 0. -1.
         -1   -1    0    0    0  501 -0.00000000000E+00 -0.00000000000E+00 -0.46558176033E+02  0.46558176033E+02  0.00000000000E+00 0.  1.
         23    2    1    2    0    0  0.58069255570E+02 -0.81841090866E+02  0.22924251054E+03  0.26640738450E+03  0.91382510800E+02 0.  0.
          5    1    1    2  502    0 -0.33719819701E+02  0.10061276398E+03  0.82476227397E+02  0.13446097948E+03  0.41800000000E+01 0.  1.
         -5    1    1    2    0  502 -0.24349435869E+02 -0.18771673112E+02  0.11936899802E+03  0.12333572405E+03  0.41800000000E+01 0.  1.
        -11    1    3    3    0    0  0.57525926521E+02 -0.36259235691E+02  0.20237463470E+03  0.21349345930E+03  0.00000000000E+00 0. -1.
         11    1    3    3    0    0  0.54332904886E+00 -0.45581855175E+02  0.26867875844E+02  0.52913925199E+02  0.00000000000E+00 0.  1.
</event>
<event>
 7    1  0.4687179E-006  0.1601609E+03  0.7561462E-02  0.1188515E+00
         -1   -1    0    0    0  501 -0.00000000000E+00  0.00000000000E+00  0.54778563223E+03  0.54778563223E+03  0.00000000000E+00 0.  1.
          1   -1    0    0  501    0  0.00000000000E+00 -0.00000000000E+00 -0.55250040458E+02  0.55250040458E+02  0.00000000000E+00 0. -1.
         23    2    1    2    0    0  0.46568021495E+02 -0.12726061752E+03  0.23848809708E+03  0.28910668605E+03  0.91335962628E+02 0.  0.
          5    1    1    2  502    0  0.32358925526E+02  0.89910936327E+02  0.15162598676E+03  0.17927350277E+03  0.41800000000E+01 0.  1.
         -5    1    1    2    0  502 -0.78926947021E+02  0.37349681195E+02  0.10242150793E+03  0.13465548388E+03  0.41800000000E+01 0.  1.
        -11    1    3    3    0    0  0.39115081046E+02 -0.76190510992E+02  0.21683758974E+03  0.23313842209E+03  0.00000000000E+00 0.  1.
         11    1    3    3    0    0  0.74529404493E+01 -0.51070106530E+02  0.21650507345E+02  0.55968263959E+02  0.00000000000E+00 0. -1.
</event>
<event>
 7    1  0.4687179E-006  0.9349184E+02  0.7561462E-02  0.1294609E+00
          4   -1    0    0  501    0  0.00000000000E+00  0.00000000000E+00  0.79387000495E+02  0.79387000495E+02  0.00000000000E+00 0. -1.
         -4   -1    0    0    0  501 -0.00000000000E+00 -0.00000000000E+00 -0.16675946967E+03  0.16675946967E+03  0.00000000000E+00 0.  1.
         23    2    1    2    0    0 -0.28597195582E+02 -0.71892202795E+01 -0.48537035688E+01  0.93416541956E+02  0.88507668534E+02 0.  0.
          5    1    1    2  502    0 -0.40950923633E+02 -0.27647497253E+02 -0.22810428470E+02  0.54581593031E+02  0.41800000000E+01 0. -1.
         -5    1    1    2    0  502  0.69548119215E+02  0.34836717532E+02 -0.59708337138E+02  0.98148335180E+02  0.41800000000E+01 0. -1.
        -11    1    3    3    0    0 -0.25162186417E+02  0.19970163692E+02 -0.38434214578E+02  0.50091235895E+02  0.00000000000E+00 0.  1.
         11    1    3    3    0    0 -0.34350091646E+01 -0.27159383972E+02  0.33580511010E+02  0.43325306062E+02  0.00000000000E+00 0. -1.
</event>
<event>
 7    1  0.4687179E-006  0.9260348E+02  0.7561462E-02  0.1296667E+00
          3   -1    0    0  501    0  0.00000000000E+00  0.00000000000E+00  0.45686628475E+03  0.45686628475E+03  0.00000000000E+00 0. -1.
         -3   -1    0    0    0  501 -0.00000000000E+00 -0.00000000000E+00 -0.45602921816E+02  0.45602921816E+02  0.00000000000E+00 0.  1.
         23    2    1    2    0    0  0.53748083356E+02 -0.53400532819E+02  0.27105890032E+03  0.29987421273E+03  0.10349465035E+03 0.  0.
          5    1    1    2  502    0 -0.27183146404E+02  0.34856040333E+02 -0.12747658827E+02  0.46193529868E+02  0.41800000000E+01 0. -1.
         -5    1    1    2    0  502 -0.26564936952E+02  0.18544492486E+02  0.15295212145E+03  0.15640146397E+03  0.41800000000E+01 0. -1.
        -11    1    3    3    0    0  0.58436305873E+02 -0.40586301037E+01  0.22398567492E+03  0.23151858865E+03  0.00000000000E+00 0. -1.
         11    1    3    3    0    0 -0.46882225176E+01 -0.49341902715E+02  0.47073225399E+02  0.68355624080E+02  0.00000000000E+00 0.  1.
</event>
<event>
 7    1  0.4687179E-006  0.1878593E+03  0.7561462E-02  0.1160406E+00
          2   -1    0    0  501    0  0.00000000000E+00  0.00000000000E+00  0.54586623218E+03  0.54586623218E+03  0.00000000000E+00 0. -1.
         -2   -1    0    0    0  501 -0.00000000000E+00 -0.00000000000E+00 -0.82994445197E+02  0.82994445197E+02  0.00000000000E+00 0.  1.
         23    2    1    2    0    0  0.17378694376E+03 -0.46600058730E+02  0.27021523446E+03  0.33707899173E+03  0.90733160630E+02 0.  0.
          5    1    1    2  502    0 -0.11445000126E+02  0.29307895771E+02 -0.83242384276E+01  0.32813200512E+02  0.41800000000E+01 0. -1.
         -5    1    1    2    0  502 -0.16234194363E+03  0.17292162959E+02  0.20098079095E+03  0.25896848513E+03  0.41800000000E+01 0. -1.
        -11    1    3    3    0    0  0.45688139529E+02 -0.19792931788E+02  0.15470741681E+03  0.16252246324E+03  0.00000000000E+00 0. -1.
         11    1    3    3    0    0  0.12809880423E+03 -0.26807126941E+02  0.11550781765E+03  0.17455652849E+03  0.00000000000E+00 0.  1.
</event>
<event>
 7    1  0.4687179E-006  0.1517595E+03  0.7561462E-02  0.1198327E+00
         -1   -1    0    0    0  501 -0.00000000000E+00  0.00000000000E+00  0.69680875597E+02  0.69680875597E+02  0.00000000000E+00 0.  1.
          1   -1    0    0  501    0  0.00000000000E+00 -0.00000000000E+00 -0.47542623586E+03  0.47542623586E+03  0.00000000000E+00 0. -1.
         23    2    1    2    0    0  0.54955770915E+02 -0.11255152657E+03 -0.30429964643E+03  0.34108175416E+03  0.89724608163E+02 0.  0.
          5    1    1    2  502    0  0.33607195658E+02  0.49259706752E+02 -0.76336518889E+01  0.60263648666E+02  0.41800000000E+01 0.  1.
         -5    1    1    2    0  502 -0.88562966573E+02  0.63291819817E+02 -0.93812061946E+02  0.14376170864E+03  0.41800000000E+01 0.  1.
        -11    1    3    3    0    0  0.37643421060E+02 -0.24146914243E+02 -0.34038429193E+02  0.56202449044E+02  0.00000000000E+00 0.  1.
         11    1    3    3    0    0  0.17312349855E+02 -0.88404612327E+02 -0.27026121724E+03  0.28487930511E+03  0.00000000000E+00 0. -1.
</event>
<event>
 7    1  0.4687179E-006  0.1310160E+03  0.7561462E-02  0.1225956E+00
          1   -1    0    0  501    0  0.00000000000E+00  0.00000000000E+00  0.51254493034E+03  0.51254493034E+03  0.00000000000E+00 0. -1.
         -1   -1    0    0    0  501 -0.00000000000E+00 -0.00000000000E+00 -0.43973662049E+02  0.43973662049E+02  0.00000000000E+00 0.  1.
         23    2    1    2    0    0 -0.10013179166E+03 -0.28211247352E+02  0.22508159235E+03  0.26367623076E+03  0.89672633923E+02 0.  0.
          5    1    1    2  502    0 -0.20438989589E+01  0.21773466905E+02  0.15753344717E+03  0.15909909101E+03  0.41800000000E+01 0. -1.
         -5    1    1    2    0  502  0.10217569062E+03  0.64377804478E+01  0.85956228783E+02  0.13374327063E+03  0.41800000000E+01 0. -1.
        -11    1    3    3    0    0  0.17079741027E+02 -0.19956621158E+01  0.26111016263E+02  0.31264762771E+02  0.00000000000E+00 0.  1.
         11    1    3    3    0    0 -0.11721153269E+03 -0.26215585237E+02  0.19897057608E+03  0.23241146799E+03  0.00000000000E+00 0. -1.
</event>
<event>
 7    1  0.4687179E-006  0.7781986E+02  0.7561462E-02  0.1335355E+00
          4   -1    0    0  501    0  0.00000000000E+00  0.00000000000E+00  0.92226115654E+02  0.92226115654E+02  0.00000000000E+00 0. -1.
         -4   -1    0    0    0  501 -0.00000000000E+00 -0.00000000000E+00 -0.20950483341E+03  0.20950483341E+03  0.00000000000E+00 0.  1.
         23    2    1    2    0    0  0.43643752333E+02  0.10938641946E+02  0.30778037437E+02  0.10347554304E+03  0.87951517400E+02 0.  0.
          5    1    1    2  502    0 -0.61353222564E+02  0.44831704224E+01 -0.15509824905E+02  0.63579429099E+02  0.41800000000E+01 0. -1.
         -5    1    1    2    0  502  0.17709470231E+02 -0.15421812368E+02 -0.13254693029E+03  0.13467597693E+03  0.41800000000E+01 0.  1.
        -11    1    3    3    0    0  0.56448518476E+02  0.95206894539E+01  0.52854773933E+02  0.77914734764E+02  0.00000000000E+00 0. -1.
         11    1    3    3    0    0 -0.12804766143E+02  0.14179524921E+01 -0.22076736496E+02  0.25560808273E+02  0.00000000000E+00 0.  1.
</event>
<event>
 7    1  0.4687179E-006  0.1794886E+03  0.7561462E-02  0.1168299E+00
          2   -1    0    0  501    0  0.00000000000E+00  0.00000000000E+00  0.90761882987E+02  0.90761882987E+02  0.00000000000E+00 0. -1.
         -2   -1    0    0    0  501 -0.00000000000E+00 -0.00000000000E+00 -0.43648871715E+03  0.43648871715E+03  0.00000000000E+00 0.  1.
         23    2    1    2    0    0  0.13853584352E+03 -0.63106690710E+02 -0.78371020019E+02  0.19513202468E+03  0.93594101986E+02 0.  0.
          5    1    1    2  502    0 -0.86543048024E+02  0.97639671215E+02 -0.20989620587E+03  0.24717826400E+03  0.41800000000E+01 0. -1.
         -5    1    1    2    0  502 -0.51992795496E+02 -0.34532980506E+02 -0.57459608269E+02  0.84940311446E+02  0.41800000000E+01 0. -1.
        -11    1    3    3    0    0  0.12642806207E+03 -0.29030994736E+02 -0.89147075365E+02  0.15739775914E+03  0.00000000000E+00 0. -1.
         11    1    3    3    0    0  0.12107781446E+02 -0.34075695974E+02  0.10776055346E+02  0.37734265548E+02  0.00000000000E+00 0.  1.
</event>
<event>
 7    1  0.4687179E-006  0.1104285E+03  0.7561462E-02  0.1259778E+00
         -1   -1    0    0    0  501 -0.00000000000E+00  0.00000000000E+00  0.17801413938E+03  0.17801413938E+03  0.00000000000E+00 0.  1.
          1   -1    0    0  501    0  0.00000000000E+00 -0.00000000000E+00 -0.12659747993E+03  0.12659747993E+03  0.00000000000E+00 0. -1.
         23    2    1    2    0    0  0.10175615413E+02 -0.89473321687E+02 -0.29256065814E+02  0.13064451161E+03  0.90016957197E+02 0.  0.
          5    1    1    2  502    0 -0.11583147091E+02  0.14872276130E+02 -0.32820698483E+02  0.38079187790E+02  0.41800000000E+01 0.  1.
         -5    1    1    2    0  502  0.14075316781E+01  0.74601045557E+02  0.11349342375E+03  0.13588791991E+03  0.41800000000E+01 0.  1.
        -11    1    3    3    0    0  0.49980565473E+02 -0.52568808715E+02 -0.10938646691E+02  0.73356598655E+02  0.00000000000E+00 0.  1.
         11    1    3    3    0    0 -0.39804950060E+02 -0.36904512971E+02 -0.18317419124E+02  0.57287912951E+02  0.00000000000E+00 0. -1.
</event>
<event>
 7    1  0.4687179E-006  0.1314456E+03  0.7561462E-02  0.1225326E+00
          1   -1    0    0  501    0  0.00000000000E+00  0.00000000000E+00  0.68360926448E+03  0.68360926448E+03  0.00000000000E+00 0. -1.
         -1   -1    0    0    0  501 -0.00000000000E+00 -0.00000000000E+00 -0.56584892815E+02  0.56584892815E+02  0.00000000000E+00 0.  1.
         23    2    1    2    0    0 -0.99252577080E+02  0.59681096030E+02  0.51434379381E+03  0.53584567680E+03  0.95750424738E+02 0.  0.
          5    1    1    2  502    0  0.13245374824E+02 -0.19254879245E+02  0.10639843448E+03  0.10901508882E+03  0.41800000000E+01 0.  1.
         -5    1    1    2    0  502  0.86007202256E+02 -0.40426216785E+02  0.62821433736E+01  0.95333391678E+02  0.41800000000E+01 0.  1.
        -11    1    3    3    0    0 -0.48543669632E+02  0.76496589105E+02  0.39221642114E+03  0.40254432926E+03  0.00000000000E+00 0. -1.
         11    1    3    3    0    0 -0.50708907448E+02 -0.16815493076E+02  0.12212737266E+03  0.13330134754E+03  0.00000000000E+00 0.  1.
</event>
<event>
 7    1  0.4687179E-006  0.8772871E+02  0.7561462E-02  0.1308447E+00
         -2   -1    0    0    0  501 -0.00000000000E+00  0.00000000000E+00  0.17171919283E+03  0.17171919283E+03  0.00000000000E+00 0.  1.
          2   -1    0    0  501    0  0.00000000000E+00 -0.00000000000E+00 -0.94268825497E+02  0.94268825497E+02  0.00000000000E+00 0. -1.
         23    2    1    2    0    0  0.60901977842E+02 -0.21074547474E+02  0.16831047563E+02  0.11277762677E+03  0.91007260597E+02 0.  0.
          5    1    1    2  502    0 -0.21298712308E+02  0.46017410945E+02  0.85910665642E+02  0.99846643044E+02  0.41800000000E+01 0.  1.
         -5    1    1    2    0  502 -0.39603265535E+02 -0.24942863472E+02 -0.25291345874E+02  0.53363748512E+02  0.41800000000E+01 0.  1.
        -11    1    3    3    0    0  0.17267942125E+01  0.10414366637E+02  0.40374308925E+02  0.41731590814E+02  0.00000000000E+00 0.  1.
         11    1    3    3    0    0  0.59175183630E+02 -0.31488914110E+02 -0.23543261361E+02  0.71046035956E+02  0.00000000000E+00 0. -1.
</event>
<event>
 7    1  0.4687179E-006  0.1137485E+03  0.7561462E-02  0.1253782E+00
         -1   -1    0    0    0  501 -0.00000000000E+00  0.00000000000E+00  0.18267134126E+02  0.18267134126E+02  0.00000000000E+00 0.  1.
          1   -1    0    0  501    0  0.00000000000E+00 -0.00000000000E+00 -0.90428227624E+03  0.90428227624E+03  0.00000000000E+00 0. -1.
         23    2    1    2    0    0  0.67291424262E+02 -0.13703034783E+02 -0.40684198656E+03  0.42257896504E+03  0.91305370764E+02 0.  0.
          5    1    1    2  502    0  0.21648927937E+02  0.12479793250E+02 -0.20099080804E+02  0.32339863474E+02  0.41800000000E+01 0.  1.
         -5    1    1    2    0  502 -0.88940352199E+02  0.12232415324E+01 -0.45907407476E+03  0.46763058185E+03  0.41800000000E+01 0.  1.
        -11    1    3    3    0    0  0.66528925996E+00  0.32199606838E+02 -0.90710898637E+02  0.96258632974E+02  0.00000000000E+00 0. -1.
         11    1    3    3    0    0  0.66626135002E+02 -0.45902641621E+02 -0.31613108792E+03  0.32632033207E+03  0.00000000000E+00 0.  1.
</event>
<event>
 7    1  0.4687179E-006  0.6412004E+02  0.7561462E-02  0.1381312E+00
          1   -1    0    0  501    0  0.00000000000E+00  0.00000000000E+00  0.59811201797E+02  0.59811201797E+02  0.00000000000E+00 0. -1.
         -1   -1    0    0    0  501 -0.00000000000E+00 -0.00000000000E+00 -0.21374753942E+03  0.21374753942E+03  0.00000000000E+00 0.  1.
         23    2    1    2    0    0 -0.56728018348E-01 -0.15402962713E+02 -0.16048461676E+02  0.86755035277E+02  0.83854806334E+02 0.  0.
          5    1    1    2  502    0  0.27280191351E+01  0.29093693379E+02  0.15077714357E+02  0.33146567742E+02  0.41800000000E+01 0.  1.
         -5    1    1    2    0  502 -0.26712911167E+01 -0.13690730666E+02 -0.15296559030E+03  0.15365713820E+03  0.41800000000E+01 0.  1.
        -11    1    3    3    0    0 -0.47273429711E+01  0.34105354264E+02  0.22408854725E+00  0.34432153240E+02  0.00000000000E+00 0.  1.
         11    1    3    3    0    0  0.46706149528E+01 -0.49508316977E+02 -0.16272550223E+02  0.52322882038E+02  0.00000000000E+00 0. -1.
</event>
<event>
 7    1  0.4687179E-006  0.1184458E+03  0.7561462E-02  0.1245683E+00
          1   -1    0    0  501    0  0.00000000000E+00  0.00000000000E+00  0.26244287121E+02  0.26244287121E+02  0.00000000000E+00 0. -1.
         -1   -1    0    0    0  501 -0.00000000000E+00 -0.00000000000E+00 -0.82540876727E+03  0.82540876727E+03  0.00000000000E+00 0.  1.
         23    2    1    2    0    0 -0.17253875112E+02  0.78398492054E+02 -0.19575570695E+03  0.23021005302E+03  0.90732309261E+02 0.  0.
          5    1    1    2  502    0 -0.11778010773E+02  0.29161198613E+02 -0.75585795035E+02  0.81974275559E+02  0.41800000000E+01 0.  1.
         -5    1    1    2    0  502  0.29031885885E+02 -0.10755969067E+03 -0.52782297817E+03  0.53946872582E+03  0.41800000000E+01 0.  1.
        -11    1    3    3    0    0  0.32743270827E+01  0.72143753974E+02 -0.19585980618E+03  0.20874986498E+03  0.00000000000E+00 0.  1.
         11    1    3    3    0    0 -0.20528202195E+02  0.62547380800E+01  0.10409922543E+00  0.21460188034E+02  0.00000000000E+00 0. -1.
</event>
<event>
 7    1  0.4687179E-006  0.8284701E+02  0.7561462E-02  0.1321161E+00
          1   -1    0    0  501    0  0.00000000000E+00  0.00000000000E+00  0.13610641449E+03  0.13610641449E+03  0.00000000000E+00 0. -1.
         -1   -1    0    0    0  501 -0.00000000000E+00 -0.00000000000E+00 -0.86909606557E+02  0.86909606557E+02  0.00000000000E+00 0.  1.
         23    2    1    2    0    0  0.80297614808E+01  0.37018968458E+01  0.37537407340E+02  0.97076198644E+02  0.89087318310E+02 0.  0.
          5    1    1    2  502    0 -0.75979262889E+00  0.39910993687E+02  0.52173029069E+02  0.65825238809E+02  0.41800000000E+01 0. -1.
         -5    1    1    2    0  502 -0.72699688519E+01 -0.43612890533E+02 -0.40513628480E+02  0.60114583591E+02  0.41800000000E+01 0. -1.
        -11    1    3    3    0    0  0.34963260537E+02 -0.24078622890E+02 -0.10020865925E+01  0.42464265509E+02  0.00000000000E+00 0.  1.
         11    1    3    3    0    0 -0.26933499056E+02  0.27780519736E+02  0.38539493933E+02  0.54611933136E+02  0.00000000000E+00 0. -1.
</event>
<event>
 7    1  0.4687179E-006  0.1237211E+03  0.7561462E-02  0.1237082E+00
          2   -1    0    0  501    0  0.00000000000E+00  0.00000000000E+00  0.18655750031E+03  0.18655750031E+03  0.00000000000E+00 0. -1.
         -2   -1    0    0    0  501 -0.00000000000E+00 -0.00000000000E+00 -0.11610243734E+03  0.11610243734E+03  0.00000000000E+00 0.  1.
         23    2    1    2    0    0 -0.34010699942E+02  0.63200005452E+02  0.92460606374E+02  0.15677033922E+03  0.10429289107E+03 0.  0.
          5    1    1    2  502    0  0.66876462312E+02 -0.74754300195E+02 -0.37983494357E+02  0.10733538490E+03  0.41800000000E+01 0. -1.
         -5    1    1    2    0  502 -0.32865762371E+02  0.11554294743E+02  0.15977950954E+02  0.38554213517E+02  0.41800000000E+01 0. -1.
        -11    1    3    3    0    0 -0.45661634465E+01 -0.21662920520E+02 -0.65474215336E+01  0.23086807983E+02  0.00000000000E+00 0.  1.
         11    1    3    3    0    0 -0.29444536495E+02  0.84862925972E+02  0.99008027908E+02  0.13368353124E+03  0.00000000000E+00 0. -1.
</event>
<event>
 7    1  0.4687179E-006  0.1131947E+03  0.7561462E-02  0.1254766E+00
          2   -1    0    0  501    0  0.00000000000E+00  0.00000000000E+00  0.33453607135E+02  0.33453607135E+02  0.00000000000E+00 0.  1.
         -2   -1    0    0    0  501 -0.00000000000E+00 -0.00000000000E+00 -0.55784389998E+03  0.55784389998E+03  0.00000000000E+00 0. -1.
         23    2    1    2    0    0  0.86002403694E+02  0.77819957608E+01 -0.21277817962E+03  0.24458975646E+03  0.84217708019E+02 0.  0.
          5    1    1    2  502    0 -0.87162171577E+02 -0.25619529556E+02 -0.10346912451E+03  0.13775680229E+03  0.41800000000E+01 0.  1.
         -5    1    1    2    0  502  0.11597678832E+01  0.17837533795E+02 -0.20814298871E+03  0.20895094837E+03  0.41800000000E+01 0.  1.
        -11    1    3    3    0    0  0.89869659560E+02  0.29838468028E+02 -0.14476430986E+03  0.17298437875E+03  0.00000000000E+00 0.  1.
         11    1    3    3    0    0 -0.38672558663E+01 -0.22056472267E+02 -0.68013869758E+02  0.71605377705E+02  0.00000000000E+00 0. -1.
</event>
<event>
 7    1  0.4687179E-006  0.1123303E+03  0.7561462E-02  0.1256314E+00
          1   -1    0    0  501    0  0.00000000000E+00  0.00000000000E+00  0.84894080679E+02  0.84894080679E+02  0.00000000000E+00 0. -1.
         -1   -1    0    0    0  501 -0.00000000000E+00 -0.00000000000E+00 -0.16780080827E+03  0.16780080827E+03  0.00000000000E+00 0.  1.
         23    2    1    2    0    0  0.50403562602E+02  0.15291670695E+02 -0.15758823546E+02  0.10126491804E+03  0.85040512637E+02 0.  0.
          5    1    1    2  502    0 -0.70987146055E+02  0.35444444213E+02 -0.50108508640E+02  0.93935182805E+02  0.41800000000E+01 0. -1.
         -5    1    1    2    0  502  0.20583583452E+02 -0.50736114909E+02 -0.17039395405E+02  0.57494788107E+02  0.41800000000E+01 0. -1.
        -11    1    3    3    0    0  0.27753662012E+02  0.45040466151E+02 -0.30508243096E+02  0.61070960718E+02  0.00000000000E+00 0.  1.
         11    1    3    3    0    0  0.22649900591E+02 -0.29748795456E+02  0.14749419550E+02  0.40193957318E+02  0.00000000000E+00 0. -1.
</event>
<event>
 7    1  0.4687179E-006  0.1097914E+03  0.7561462E-02  0.1260957E+00
         -1   -1    0    0    0  501 -0.00000000000E+00  0.00000000000E+00  0.74643571332E+02  0.74643571332E+02  0.00000000000E+00 0.  1.
          1   -1    0    0  501    0  0.00000000000E+00 -0.00000000000E+00 -0.26340986098E+03  0.26340986098E+03  0.00000000000E+00 0. -1.
         23    2    1    2    0    0  0.46736872261E+02  0.78770054983E+02 -0.71509481694E+02  0.14366701414E+03  0.84484011438E+02 0.  0.
          5    1    1    2  502    0 -0.62439267862E+02 -0.79574023465E+02 -0.29941324094E+02  0.10556818967E+03  0.41800000000E+01 0. -1.
         -5    1    1    2    0  502  0.15702395601E+02  0.80396848180E+00 -0.87315483864E+02  0.88818228508E+02  0.41800000000E+01 0. -1.
        -11    1    3    3    0    0  0.47000032403E+02  0.35729096357E+02  0.13382157133E+01  0.59053892282E+02  0.00000000000E+00 0.  1.
         11    1    3    3    0    0 -0.26316014223E+00  0.43040958626E+02 -0.72847697407E+02  0.84613121856E+02  0.00000000000E+00 0. -1.
</event>
<event>
 7    1  0.4687179E-006  0.1111764E+03  0.7561462E-02  0.1258407E+00
         -2   -1    0    0    0  501 -0.00000000000E+00  0.00000000000E+00  0.57056396277E+02  0.57056396277E+02  0.00000000000E+00 0.  1.
          2   -1    0    0  501    0  0.00000000000E+00 -0.00000000000E+00 -0.22795360399E+03  0.22795360399E+03  0.00000000000E+00 0. -1.
         23    2    1    2    0    0 -0.26558950738E+02  0.26673598153E+02 -0.75425503318E+02  0.12262290987E+03  0.89053426498E+02 0.  0.
          5    1    1    2  502    0  0.24413786318E+02  0.48911723465E+02 -0.31350177455E+02  0.63156121486E+02  0.41800000000E+01 0.  1.
         -5    1    1    2    0  502  0.21451644201E+01 -0.75585321618E+02 -0.64121526941E+02  0.99230968915E+02  0.41800000000E+01 0.  1.
        -11    1    3    3    0    0  0.17512640675E+02  0.41703997578E+02 -0.56461604666E+02  0.72345205777E+02  0.00000000000E+00 0.  1.
         11    1    3    3    0    0 -0.44071591413E+02 -0.15030399426E+02 -0.18963898653E+02  0.50277704091E+02  0.00000000000E+00 0. -1.
</event>
<event>
 7    1  0.4687179E-006  0.1053012E+03  0.7561462E-02  0.1269527E+00
         -2   -1    0    0    0  501 -0.00000000000E+00  0.00000000000E+00  0.74917470397E+03  0.74917470397E+03  0.00000000000E+00 0. -1.
          2   -1    0    0  501    0  0.00000000000E+00 -0.00000000000E+00 -0.19459996233E+02  0.19459996233E+02  0.00000000000E+00 0.  1.
         23    2    1    2    0    0  0.59610116800E+02  0.15641579077E+02  0.29967851091E+03  0.31655417496E+03  0.81248450823E+02 0.  0.
          5    1    1    2  502    0  0.13423711832E+02 -0.43352807011E+02  0.69183483102E+02  0.82846174620E+02  0.41800000000E+01 0. -1.
         -5    1    1    2    0  502 -0.73033828632E+02  0.27711227934E+02  0.36085271372E+03  0.36923435062E+03  0.41800000000E+01 0. -1.
        -11    1    3    3    0    0  0.17744723806E+02  0.36083983650E+02  0.22477473047E+03  0.22834318154E+03  0.00000000000E+00 0. -1.
         11    1    3    3    0    0  0.41865392994E+02 -0.20442404573E+02  0.74903780446E+02  0.88210993422E+02  0.00000000000E+00 0.  1.
</event>
<event>
 7    1  0.4687179E-006  0.1083054E+03  0.7561462E-02  0.1263741E+00
          2   -1    0    0  501    0  0.00000000000E+00  0.00000000000E+00  0.16983356274E+03  0.16983356274E+03  0.00000000000E+00 0. -1.
         -2   -1    0    0    0  501 -0.00000000000E+00 -0.00000000000E+00 -0.95913162687E+02  0.95913162687E+02  0.00000000000E+00 0.  1.
         23    2    1    2    0    0  0.23145890012E+02 -0.61955876073E+02  0.47851967664E+02  0.12186616341E+03  0.90483634827E+02 0.  0.
          5    1    1    2  502    0  0.43159345339E+02  0.36484428651E+02 -0.18867196523E+02  0.59726762249E+02  0.41800000000E+01 0. -1.
         -5    1    1    2    0  502 -0.66305235351E+02  0.25471447423E+02  0.44935628908E+02  0.84153799760E+02  0.41800000000E+01 0. -1.
        -11    1    3    3    0    0  0.32926535681E+02 -0.79059823797E+01  0.56884730250E+02  0.66200708795E+02  0.00000000000E+00 0. -1.
         11    1    3    3    0    0 -0.97806456697E+01 -0.54049893694E+02 -0.90327625858E+01  0.55665454619E+02  0.00000000000E+00 0.  1.
</event>
<event>
 7    1  0.4687179E-006  0.8498702E+02  0.7561462E-02  0.1315466E+00
         -1   -1    0    0    0  501 -0.00000000000E+00  0.00000000000E+00  0.11667581035E+03  0.11667581035E+03  0.00000000000E+00 0.  1.
          1   -1    0    0  501    0  0.00000000000E+00 -0.00000000000E+00 -0.13246112570E+03  0.13246112570E+03  0.00000000000E+00 0. -1.
         23    2    1    2    0    0  0.53001684356E+02 -0.25960415289E+02 -0.48941497310E+01  0.11039887329E+03  0.93171008449E+02 0.  0.
          5    1    1    2  502    0  0.24905749905E+02 -0.62930339049E+01  0.34239844430E+02  0.43008580546E+02  0.41800000000E+01 0.  1.
         -5    1    1    2    0  502 -0.77907434261E+02  0.32253449194E+02 -0.45131010045E+02  0.95729482218E+02  0.41800000000E+01 0.  1.
        -11    1    3    3    0    0  0.41390398738E+02 -0.16542910966E+02  0.41960442575E+02  0.61216923739E+02  0.00000000000E+00 0.  1.
         11    1    3    3    0    0  0.11611285618E+02 -0.94175043228E+01 -0.46854592306E+02  0.49181949550E+02  0.00000000000E+00 0. -1.
</event>
<event>
 7    1  0.4687179E-006  0.1351817E+03  0.7561462E-02  0.1219963E+00
          1   -1    0    0  501    0  0.00000000000E+00  0.00000000000E+00  0.23431042392E+03  0.23431042392E+03  0.00000000000E+00 0. -1.
         -1   -1    0    0    0  501 -0.00000000000E+00 -0.00000000000E+00 -0.10914623845E+03  0.10914623845E+03  0.00000000000E+00 0.  1.
         23    2    1    2    0    0 -0.38501419458E+02  0.84881484833E+02  0.13589092625E+03  0.18708513319E+03  0.88584860202E+02 0.  0.
          5    1    1    2  502    0 -0.35912430481E+02 -0.60800427220E+02  0.17919621001E+02  0.72972459394E+02  0.41800000000E+01 0. -1.
         -5    1    1    2    0  502  0.74413849939E+02 -0.24081057614E+02 -0.28646361781E+02  0.83399069790E+02  0.41800000000E+01 0. -1.
        -11    1    3    3    0    0 -0.23850713876E+01  0.85149782459E+02  0.63710877088E+02  0.10637316333E+03  0.00000000000E+00 0.  1.
         11    1    3    3    0    0 -0.36116348070E+02 -0.26829762606E+00  0.72180049158E+02  0.80711969856E+02  0.00000000000E+00 0. -1.
</event>
<event>
 7    1  0.4687179E-006  0.1501130E+03  0.7561462E-02  0.1200334E+00
          1   -1    0    0  501    0  0.00000000000E+00  0.00000000000E+00  0.17188295630E+03  0.17188295630E+03  0.00000000000E+00 0. -1.
         -1   -1    0    0    0  501 -0.00000000000E+00 -0.00000000000E+00 -0.22645326657E+03  0.22645326657E+03  0.00000000000E+00 0.  1.
         23    2    1    2    0    0 -0.36302774123E+01  0.14784422061E+03  0.47248062980E+02  0.17932553433E+03  0.89745057386E+02 0.  0.
          5    1    1    2  502    0  0.11085260948E+02 -0.13527411437E+03 -0.21762768489E+02  0.13752475967E+03  0.41800000000E+01 0.  1.
         -5    1    1    2    0  502 -0.74549835354E+01 -0.12570106243E+02 -0.80055604761E+02  0.81485928872E+02  0.41800000000E+01 0.  1.
        -11    1    3    3    0    0  0.79651961090E+01  0.41374641323E+02 -0.26057941890E+02  0.49541110496E+02  0.00000000000E+00 0.  1.
         11    1    3    3    0    0 -0.11595473521E+02  0.10646957929E+03  0.73306004870E+02  0.12978442384E+03  0.00000000000E+00 0. -1.
</event>
<event>
 7    1  0.4687179E-006  0.1052992E+03  0.7561462E-02  0.1269531E+00
          1   -1    0    0  501    0  0.00000000000E+00  0.00000000000E+00  0.27261741950E+03  0.27261741950E+03  0.00000000000E+00 0. -1.
         -1   -1    0    0    0  501 -0.00000000000E+00 -0.00000000000E+00 -0.86093150193E+02  0.86093150193E+02  0.00000000000E+00 0.  1.
         23    2    1    2    0    0 -0.73552151868E+02  0.40337095997E+02  0.16737278724E+03  0.20694741632E+03  0.88184935523E+02 0.  0.
          5    1    1    2  502    0  0.84109768399E+02 -0.25480739478E+02  0.60232853269E+02  0.10662640497E+03  0.41800000000E+01 0. -1.
         -5    1    1    2    0  502 -0.10557616531E+02 -0.14856356520E+02 -0.41081371207E+02  0.45136748400E+02  0.41800000000E+01 0. -1.
        -11    1    3    3    0    0 -0.77317987774E+02  0.15578132623E+02  0.16360189937E+03  0.18162139447E+03  0.00000000000E+00 0. -1.
         11    1    3    3    0    0  0.37658359055E+01  0.24758963375E+02  0.37708878683E+01  0.25326021850E+02  0.00000000000E+00 0.  1.
</event>
<event>
 7    1  0.4687179E-006  0.8193744E+02  0.7561462E-02  0.1323641E+00
          1   -1    0    0  501    0  0.00000000000E+00  0.00000000000E+00  0.54486902363E+02  0.54486902363E+02  0.00000000000E+00 0. -1.
         -1   -1    0    0    0  501 -0.00000000000E+00 -0.00000000000E+00 -0.25033101007E+03  0.25033101007E+03  0.00000000000E+00 0.  1.
         23    2    1    2    0    0 -0.43977045513E+02  0.71181716500E+00 -0.93916088324E+02  0.13757105428E+03  0.90394004858E+02 0.  0.
          5    1    1    2  502    0 -0.35902259637E+02  0.10632025168E+02 -0.71684765534E+02  0.80982653796E+02  0.41800000000E+01 0.  1.
         -5    1    1    2    0  502  0.79879305150E+02 -0.11343842333E+02 -0.30243253853E+02  0.86264204359E+02  0.41800000000E+01 0.  1.
        -11    1    3    3    0    0 -0.29101478419E+02  0.58275403659E+01 -0.11067533961E+03  0.11458571931E+03  0.00000000000E+00 0.  1.
         11    1    3    3    0    0 -0.14875567094E+02 -0.51157232009E+01  0.16759251282E+02  0.22985334972E+02  0.00000000000E+00 0. -1.
</event>
<event>
 7    1  0.4687179E-006  0.1147332E+03  0.7561462E-02  0.1252048E+00
         -1   -1    0    0    0  501 -0.00000000000E+00  0.00000000000E+00  0.18408839241E+03  0.18408839241E+03  0.00000000000E+00 0.  1.
          1   -1    0    0  501    0  0.00000000000E+00 -0.00000000000E+00 -0.74902701027E+02  0.74902701027E+02  0.00000000000E+00 0. -1.
         23    2    1    2    0    0 -0.44275065270E+02 -0.10812550417E+02  0.54629165270E+02  0.11552293549E+03  0.91016538466E+02 0.  0.
          5    1    1    2  502    0  0.87334246259E+02 -0.16950787518E+01  0.32197051500E+02  0.93189411346E+02  0.41800000000E+01 0. -1.
         -5    1    1    2    0  502 -0.43059180990E+02  0.12507629168E+02  0.22359474611E+02  0.50278746601E+02  0.41800000000E+01 0. -1.
        -11    1    3    3    0    0 -0.10987256037E+01  0.34427747222E+02  0.32716736599E+01  0.34600300941E+02  0.00000000000E+00 0.  1.
         11    1    3    3    0    0 -0.43176339666E+02 -0.45240297638E+02  0.51357491610E+02  0.80922634546E+02  0.00000000000E+00 0. -1.
</event>
<event>
 7    1  0.4687179E-006  0.1642809E+03  0.7561462E-02  0.1183947E+00
          1   -1    0    0  501    0  0.00000000000E+00  0.00000000000E+00  0.21769472793E+03  0.21769472793E+03  0.00000000000E+00 0. -1.
         -1   -1    0    0    0  501 -0.00000000000E+00 -0.00000000000E+00 -0.13971749167E+03  0.13971749167E+03  0.00000000000E+00 0.  1.
         23    2    1    2    0    0  0.12610043706E+03  0.24352299747E+01  0.89555374709E+02  0.17933047873E+03  0.90730396735E+02 0.  0.
          5    1    1    2  502    0 -0.10669573377E+03  0.52653635808E+02 -0.10496229510E+02  0.11951580734E+03  0.41800000000E+01 0. -1.
         -5    1    1    2    0  502 -0.19404703285E+02 -0.55088865783E+02 -0.10819089430E+01  0.58565933526E+02  0.41800000000E+01 0. -1.
        -11    1    3    3    0    0  0.86518628185E+02  0.40953328620E+02  0.76608831311E+02  0.12260326742E+03  0.00000000000E+00 0.  1.
         11    1    3    3    0    0  0.39581808874E+02 -0.38518098645E+02  0.12946543398E+02  0.56727211309E+02  0.00000000000E+00 0. -1.
</event>
<event>
 7    1  0.4687179E-006  0.7194134E+02  0.7561462E-02  0.1353613E+00
         -1   -1    0    0    0  501 -0.00000000000E+00  0.00000000000E+00  0.50563321462E+02  0.50563321462E+02  0.00000000000E+00 0.  1.
          1   -1    0    0  501    0  0.00000000000E+00 -0.00000000000E+00 -0.36881132715E+03  0.36881132715E+03  0.00000000000E+00 0. -1.
         23    2    1    2    0    0  0.48482381435E+02 -0.27541560777E+02 -0.23956006496E+03  0.26141607880E+03  0.88545257654E+02 0.  0.
          5    1    1    2  502    0 -0.20859110805E+02  0.24964076644E+02 -0.11066198885E+03  0.11542034397E+03  0.41800000000E+01 0. -1.
         -5    1    1    2    0  502 -0.27623270629E+02  0.25774841329E+01  0.31974048118E+02  0.42538225842E+02  0.41800000000E+01 0. -1.
        -11    1    3    3    0    0  0.21429387714E+02 -0.45679678635E+02 -0.57644413683E+02  0.76607637523E+02  0.00000000000E+00 0.  1.
         11    1    3    3    0    0  0.27052993721E+02  0.18138117858E+02 -0.18191565128E+03  0.18480844128E+03  0.00000000000E+00 0. -1.
</event>
<event>
 7    1  0.4687179E-006  0.1714675E+03  0.7561462E-02  0.1176326E+00
         -2   -1    0    0    0  501 -0.00000000000E+00  0.00000000000E+00  0.97266313281E+03  0.97266313281E+03  0.00000000000E+00 0.  1.
          2   -1    0    0  501    0  0.00000000000E+00 -0.00000000000E+00 -0.33805269714E+02  0.33805269714E+02  0.00000000000E+00 0. -1.
         23    2    1    2    0    0  0.20852349022E+02 -0.14320052642E+03  0.45997682637E+03  0.49079889386E+03  0.91453060027E+02 0.  0.
          5    1    1    2  502    0 -0.41915813328E+02  0.17824369624E+02  0.47570907552E+02  0.65993236053E+02  0.41800000000E+01 0. -1.
         -5    1    1    2    0  502  0.21063464305E+02  0.12537615680E+03  0.43131012918E+03  0.44967627261E+03  0.41800000000E+01 0. -1.
        -11    1    3    3    0    0  0.45629125571E+02 -0.13707590621E+03  0.36787936331E+03  0.39523037221E+03  0.00000000000E+00 0. -1.
         11    1    3    3    0    0 -0.24776776549E+02 -0.61246202085E+01  0.92097463056E+02  0.95568521649E+02  0.00000000000E+00 0.  1.
</event>
<event>
 7    1  0.4687179E-006  0.1145304E+03  0.7561462E-02  0.1252403E+00
         -2   -1    0    0    0  501 -0.00000000000E+00  0.00000000000E+00  0.21479275226E+02  0.21479275226E+02  0.00000000000E+00 0.  1.
          2   -1    0    0  501    0  0.00000000000E+00 -0.00000000000E+00 -0.66069460910E+03  0.66069460910E+03  0.00000000000E+00 0. -1.
         23    2    1    2    0    0 -0.22065078861E+02  0.37462237112E+02 -0.35379512564E+03  0.36752176751E+03  0.89504032059E+02 0.  0.
          5    1    1    2  502    0  0.39616830917E+02 -0.76791641095E+02 -0.15869281057E+03  0.18074105776E+03  0.41800000000E+01 0.  1.
         -5    1    1    2    0  502 -0.17551752056E+02  0.39329403983E+02 -0.12672739767E+03  0.13391105906E+03  0.41800000000E+01 0.  1.
        -11    1    3    3    0    0 -0.45804063199E+02  0.53653411510E+02 -0.23986637863E+03  0.25002515947E+03  0.00000000000E+00 0.  1.
         11    1    3    3    0    0  0.23738984338E+02 -0.16191174398E+02 -0.11392874701E+03  0.11749660804E+03  0.00000000000E+00 0. -1.
</event>
<event>
 7    1  0.4687179E-006  0.2014941E+03  0.7561462E-02  0.1148485E+00
          2   -1    0    0  501    0  0.00000000000E+00  0.00000000000E+00  0.77780923992E+03  0.77780923992E+03  0.00000000000E+00 0. -1.
         -2   -1    0    0    0  501 -0.00000000000E+00 -0.00000000000E+00 -0.65109531169E+02  0.65109531169E+02  0.00000000000E+00 0.  1.
         23    2    1    2    0    0  0.15927378045E+03 -0.83464533332E+02  0.49402429244E+03  0.53340191383E+03  0.90128434421E+02 0.  0.
          5    1    1    2  502    0  0.40628034635E+01  0.37731201354E+02  0.86128599020E+02  0.94211240819E+02  0.41800000000E+01 0. -1.
         -5    1    1    2    0  502 -0.16333658391E+03  0.45733331978E+02  0.13254681730E+03  0.21530561645E+03  0.41800000000E+01 0. -1.
        -11    1    3    3    0    0  0.10558408553E+02  0.13848781678E+02  0.95069622923E+02  0.96651445659E+02  0.00000000000E+00 0.  1.
         11    1    3    3    0    0  0.14871537190E+03 -0.97313315010E+02  0.39895466951E+03  0.43675046817E+03  0.00000000000E+00 0. -1.
</event>
<event>
 7    1  0.4687179E-006  0.1012199E+03  0.7561462E-02  0.1277751E+00
         -1   -1    0    0    0  501 -0.00000000000E+00  0.00000000000E+00  0.11694093791E+03  0.11694093791E+03  0.00000000000E+00 0.  1.
          1   -1    0    0  501    0  0.00000000000E+00 -0.00000000000E+00 -0.21840062652E+03  0.21840062652E+03  0.00000000000E+00 0. -1.
         23    2    1    2    0    0  0.20248140651E+01  0.78262832097E+02 -0.14246619228E+03  0.18218067014E+03  0.82243600777E+02 0.  0.
          5    1    1    2  502    0 -0.31530772204E+02 -0.86860826022E+02 -0.10439629567E+02  0.93088403996E+02  0.41800000000E+01 0.  1.
         -5    1    1    2    0  502  0.29505958139E+02  0.85979939248E+01  0.51446133243E+02  0.60072490301E+02  0.41800000000E+01 0.  1.
        -11    1    3    3    0    0 -0.34205910409E+01  0.51378235416E+02 -0.17722256007E+02  0.54456421803E+02  0.00000000000E+00 0.  1.
         11    1    3    3    0    0  0.54454051059E+01  0.26884596681E+02 -0.12474393628E+03  0.12772424834E+03  0.00000000000E+00 0. -1.
</event>
<event>
 7    1  0.4687179E-006  0.9922059E+02  0.7561462E-02  0.1281944E+00
         -2   -1    0    0    0  501 -0.00000000000E+00  0.00000000000E+00  0.18501150600E+03  0.18501150600E+03  0.00000000000E+00 0. -1.
          2   -1    0    0  501    0  0.00000000000E+00 -0.00000000000E+00 -0.81478399789E+02  0.81478399789E+02  0.00000000000E+00 0.  1.
         23    2    1    2    0    0  0.46256304296E+02  0.29043626704E+02  0.57492031751E+02  0.12243910918E+03  0.93288926468E+02 0.  0.
          5    1    1    2  502    0 -0.88329411791E+01  0.48430066036E+02  0.25031498889E+02  0.55385381490E+02  0.41800000000E+01 0.  1.
         -5    1    1    2    0  502 -0.37423363117E+02 -0.77473692740E+02  0.21009575575E+02  0.88665415127E+02  0.41800000000E+01 0.  1.
        -11    1    3    3    0    0  0.33208801991E+02  0.24818367391E+01  0.79081761921E+02  0.85807395438E+02  0.00000000000E+00 0. -1.
         11    1    3    3    0    0  0.13047502305E+02  0.26561789965E+02 -0.21589730170E+02  0.36631713738E+02  0.00000000000E+00 0.  1.
</event>
<event>
 7    1  0.4687179E-006  0.3041858E+03  0.7561462E-02  0.1083167E+00
         -1   -1    0    0    0  501 -0.00000000000E+00  0.00000000000E+00  0.11142407644E+03  0.11142407644E+03  0.00000000000E+00 0.  1.
          1   -1    0    0  501    0  0.00000000000E+00 -0.00000000000E+00 -0.90143357586E+03  0.90143357586E+03  0.00000000000E+00 0. -1.
         23    2    1    2    0    0  0.26088461568E+03  0.14100661978E+03 -0.34935292421E+03  0.46717455660E+03  0.90889774806E+02 0.  0.
          5    1    1    2  502    0 -0.73875567607E+02 -0.57626844582E+02 -0.54216809752E+02  0.10832999384E+03  0.41800000000E+01 0.  1.
         -5    1    1    2    0  502 -0.18700904807E+03 -0.83379775193E+02 -0.38643976546E+03  0.43735310185E+03  0.41800000000E+01 0.  1.
        -11    1    3    3    0    0  0.11505785872E+03  0.11305444338E+03 -0.19345654416E+03  0.25188301352E+03  0.00000000000E+00 0. -1.
         11    1    3    3    0    0  0.14582675696E+03  0.27952176394E+02 -0.15589638004E+03  0.21529154308E+03  0.00000000000E+00 0.  1.
</event>
<event>
 7    1  0.4687179E-006  0.1243682E+03  0.7561462E-02  0.1236060E+00
          2   -1    0    0  501    0  0.00000000000E+00  0.00000000000E+00  0.27984769431E+03  0.27984769431E+03  0.00000000000E+00 0. -1.
         -2   -1    0    0    0  501 -0.00000000000E+00 -0.00000000000E+00 -0.65166368829E+02  0.65166368829E+02  0.00000000000E+00 0.  1.
         23    2    1    2    0    0 -0.65216051528E+00 -0.63244398191E+02  0.16144176990E+03  0.19507202647E+03  0.89383282702E+02 0.  0.
          5    1    1    2  502    0  0.49790927484E+02 -0.10170911527E+02  0.26957180049E+02  0.57677949489E+02  0.41800000000E+01 0.  1.
         -5    1    1    2    0  502 -0.49138766969E+02  0.73415309719E+02  0.26282375536E+02  0.92264087185E+02  0.41800000000E+01 0.  1.
        -11    1    3    3    0    0  0.36023834522E+02 -0.63063981973E+02  0.10170786863E+03  0.12497708997E+03  0.00000000000E+00 0.  1.
         11    1    3    3    0    0 -0.36675995038E+02 -0.18041621831E+00  0.59733901272E+02  0.70094936501E+02  0.00000000000E+00 0. -1.
</event>
<event>
 7    1  0.4687179E-006  0.2384220E+03  0.7561462E-02  0.1120848E+00
         -2   -1    0    0    0  501 -0.00000000000E+00  0.00000000000E+00  0.35325730099E+02  0.35325730099E+02  0.00000000000E+00 0.  1.
          2   -1    0    0  501    0  0.00000000000E+00 -0.00000000000E+00 -0.19139710946E+04  0.19139710946E+04  0.00000000000E+00 0. -1.
         23    2    1    2    0    0  0.19524189788E+03  0.10669007738E+03 -0.62373985401E+03  0.66869644968E+03  0.92743544422E+02 0.  0.
          5    1    1    2  502    0 -0.18319730376E+03 -0.46925285553E+02 -0.82724641530E+03  0.84859727702E+03  0.41800000000E+01 0. -1.
         -5    1    1    2    0  502 -0.12044594116E+02 -0.59764791823E+02 -0.42765909521E+03  0.43200309803E+03  0.41800000000E+01 0. -1.
        -11    1    3    3    0    0  0.10070356139E+03  0.30686416771E+02 -0.17853318522E+03  0.20726061293E+03  0.00000000000E+00 0.  1.
         11    1    3    3    0    0  0.94538336492E+02  0.76003660605E+02 -0.44520666880E+03  0.46143583675E+03  0.00000000000E+00 0. -1.
</event>
<event>
 7    1  0.4687179E-006  0.1123295E+03  0.7561462E-02  0.1256316E+00
         -2   -1    0    0    0  501 -0.00000000000E+00  0.00000000000E+00  0.46923726511E+02  0.46923726511E+02  0.00000000000E+00 0. -1.
          2   -1    0    0  501    0  0.00000000000E+00 -0.00000000000E+00 -0.31752036381E+03  0.31752036381E+03  0.00000000000E+00 0.  1.
         23    2    1    2    0    0 -0.52242454783E+02  0.98894244889E+01 -0.13847210154E+03  0.17489164719E+03  0.92657922249E+02 0.  0.
          5    1    1    2  502    0 -0.40023913303E+02 -0.11028624335E+02 -0.27421733697E+02  0.49929631180E+02  0.41800000000E+01 0. -1.
         -5    1    1    2    0  502  0.92266368086E+02  0.11391998457E+01 -0.10470280207E+03  0.13962281195E+03  0.41800000000E+01 0. -1.
        -11    1    3    3    0    0 -0.66665325427E+02 -0.84887277583E+01 -0.51029514389E+02  0.84382080159E+02  0.00000000000E+00 0.  1.
         11    1    3    3    0    0  0.14422870644E+02  0.18378152247E+02 -0.87442587146E+02  0.90509567033E+02  0.00000000000E+00 0. -1.
</event>
<event>
 7    1  0.4687179E-006  0.1109980E+03  0.7561462E-02  0.1258733E+00
          1   -1    0    0  501    0  0.00000000000E+00  0.00000000000E+00  0.65477209617E+03  0.65477209617E+03  0.00000000000E+00 0. -1.
         -1   -1    0    0    0  501 -0.00000000000E+00 -0.00000000000E+00 -0.21417436298E+02  0.21417436298E+02  0.00000000000E+00 0.  1.
         23    2    1    2    0    0  0.49448456141E+02  0.93707257131E+01  0.28931072680E+03  0.30666731468E+03  0.88380908209E+02 0.  0.
          5    1    1    2  502    0 -0.10677371741E+02 -0.63725540962E+02  0.12940269961E+03  0.14469789875E+03  0.41800000000E+01 0. -1.
         -5    1    1    2    0  502 -0.38771084400E+02  0.54354815248E+02  0.21464123346E+03  0.22482431903E+03  0.41800000000E+01 0. -1.
        -11    1    3    3    0    0  0.21621915288E+02 -0.33123763378E+02  0.20042975631E+03  0.20429581037E+03  0.00000000000E+00 0. -1.
         11    1    3    3    0    0  0.27826540853E+02  0.42494489091E+02  0.88880970496E+02  0.10237150431E+03  0.00000000000E+00 0.  1.
</event>
<event>
 7    1  0.4687179E-006  0.9866002E+02  0.7561462E-02  0.1283139E+00
          1   -1    0    0  501    0  0.00000000000E+00  0.00000000000E+00  0.24882490712E+03  0.24882490712E+03  0.00000000000E+00 0. -1.
         -1   -1    0    0    0  501 -0.00000000000E+00 -0.00000000000E+00 -0.57529731038E+02  0.57529731038E+02  0.00000000000E+00 0.  1.
         23    2    1    2    0    0  0.14474872837E+02 -0.45036317225E+02  0.74501156402E+02  0.13273027183E+03  0.99141872805E+02 0.  0.
          5    1    1    2  502    0 -0.18296761668E+02  0.64804003397E+02  0.13187011290E+03  0.14812673432E+03  0.41800000000E+01 0. -1.
         -5    1    1    2    0  502  0.38218888314E+01 -0.19767686172E+02 -0.15076093222E+02  0.25497632002E+02  0.41800000000E+01 0.  1.
        -11    1    3    3    0    0  0.54212806975E+02 -0.43525341617E+02  0.53729588308E+02  0.87865536263E+02  0.00000000000E+00 0.  1.
         11    1    3    3    0    0 -0.39737934138E+02 -0.15109756074E+01  0.20771568094E+02  0.44864735572E+02  0.00000000000E+00 0. -1.
</event>
<event>
 7    1  0.4687179E-006  0.1639495E+03  0.7561462E-02  0.1184309E+00
          4   -1    0    0  501    0  0.00000000000E+00  0.00000000000E+00  0.13886702900E+03  0.13886702900E+03  0.00000000000E+00 0. -1.
         -4   -1    0    0    0  501 -0.00000000000E+00 -0.00000000000E+00 -0.22024643868E+03  0.22024643868E+03  0.00000000000E+00 0.  1.
         23    2    1    2    0    0 -0.12935864913E+03 -0.32439175216E+02 -0.75210533660E+01  0.16191074606E+03  0.91501711742E+02 0.  0.
          5    1    1    2  502    0  0.42721673759E+02  0.63217963830E+02 -0.72233872211E+02  0.10515159083E+03  0.41800000000E+01 0. -1.
         -5    1    1    2    0  502  0.86636975375E+02 -0.30778788614E+02 -0.16244841006E+01  0.92051130788E+02  0.41800000000E+01 0. -1.
        -11    1    3    3    0    0 -0.14223227988E+03 -0.24510446760E+02  0.14388519345E+01  0.14433590591E+03  0.00000000000E+00 0. -1.
         11    1    3    3    0    0  0.12873630742E+02 -0.79287284563E+01 -0.89599053006E+01  0.17574840153E+02  0.00000000000E+00 0.  1.
</event>
<event>
 7    1  0.4687179E-006  0.1674933E+03  0.7561462E-02  0.1180487E+00
          1   -1    0    0  501    0  0.00000000000E+00  0.00000000000E+00  0.55521268932E+03  0.55521268932E+03  0.00000000000E+00 0. -1.
         -1   -1    0    0    0  501 -0.00000000000E+00 -0.00000000000E+00 -0.67338668684E+02  0.67338668684E+02  0.00000000000E+00 0.  1.
         23    2    1    2    0    0  0.56169898749E+02  0.14193494480E+03  0.30849803717E+03  0.35586008224E+03  0.90359134087E+02 0.  0.
          5    1    1    2  502    0 -0.51414560205E+02 -0.14288271893E+03  0.88943005940E+02  0.17603198311E+03  0.41800000000E+01 0.  1.
         -5    1    1    2    0  502 -0.47553385433E+01  0.94777413244E+00  0.90432977527E+02  0.90659292656E+02  0.41800000000E+01 0.  1.
        -11    1    3    3    0    0  0.19861464214E+02  0.13882019823E+03  0.23125345156E+03  0.27045089028E+03  0.00000000000E+00 0. -1.
         11    1    3    3    0    0  0.36308434534E+02  0.31147465729E+01  0.77244585609E+02  0.85409191955E+02  0.00000000000E+00 0.  1.
</event>
<event>
 7    1  0.4687179E-006  0.1711538E+03  0.7561462E-02  0.1176650E+00
          1   -1    0    0  501    0  0.00000000000E+00  0.00000000000E+00  0.48854482104E+03  0.48854482104E+03  0.00000000000E+00 0. -1.
         -1   -1    0    0    0  501 -0.00000000000E+00 -0.00000000000E+00 -0.95494106837E+02  0.95494106837E+02  0.00000000000E+00 0.  1.
         23    2    1    2    0    0 -0.63035932873E+02 -0.15340574042E+03  0.30274777984E+03  0.35752358185E+03  0.93059353925E+02 0.  0.
          5    1    1    2  502    0  0.21672092674E+02  0.11707306628E+03 -0.17790259812E+01  0.11914872967E+03  0.41800000000E+01 0. -1.
         -5    1    1    2    0  502  0.41363840199E+02  0.36332674141E+02  0.92081960344E+02  0.10736661635E+03  0.41800000000E+01 0. -1.
        -11    1    3    3    0    0 -0.55863690441E+02 -0.10417231678E+03  0.12126817783E+03  0.16934755519E+03  0.00000000000E+00 0.  1.
         11    1    3    3    0    0 -0.71722424322E+01 -0.49233423639E+02  0.18147960201E+03  0.18817602666E+03  0.00000000000E+00 0. -1.
</event>
<event>
 7    1  0.4687179E-006  0.1660545E+03  0.7561462E-02  0.1182026E+00
         -1   -1    0    0    0  501 -0.00000000000E+00  0.00000000000E+00  0.38445073060E+02  0.38445073060E+02  0.00000000000E+00 0.  1.
          1   -1    0    0  501    0  0.00000000000E+00 -0.00000000000E+00 -0.11131553821E+04  0.11131553821E+04  0.00000000000E+00 0. -1.
         23    2    1    2    0    0  0.14307026597E+03 -0.17228240433E+02 -0.79543134059E+03  0.81335510286E+03  0.89830910522E+02 0.  0.
          5    1    1    2  502    0 -0.26192198368E+02 -0.28794255936E+02 -0.16088817169E+03  0.16558265797E+03  0.41800000000E+01 0. -1.
         -5    1    1    2    0  502 -0.11687806760E+03  0.46022496369E+02 -0.11839079679E+03  0.17266269436E+03  0.41800000000E+01 0. -1.
        -11    1    3    3    0    0  0.31814276922E+02 -0.42597303978E+02 -0.19179850933E+03  0.19903101945E+03  0.00000000000E+00 0.  1.
         11    1    3    3    0    0  0.11125598905E+03  0.25369063545E+02 -0.60363283126E+03  0.61432408341E+03  0.00000000000E+00 0. -1.
</event>
<event>
 7    1  0.4687179E-006  0.1770101E+03  0.7561462E-02  0.1170728E+00
          2   -1    0    0  501    0  0.00000000000E+00  0.00000000000E+00  0.56552331076E+02  0.56552331076E+02  0.00000000000E+00 0. -1.
         -2   -1    0    0    0  501 -0.00000000000E+00 -0.00000000000E+00 -0.71638348963E+03  0.71638348963E+03  0.00000000000E+00 0.  1.
         23    2    1    2    0    0 -0.10831168054E+02  0.15513470521E+03 -0.18665837007E+03  0.25938667745E+03  0.90862590541E+02 0.  0.
          5    1    1    2  502    0  0.59928973187E+02 -0.86351233678E+02 -0.18075541491E+03  0.20913634262E+03  0.41800000000E+01 0. -1.
         -5    1    1    2    0  502 -0.49097805133E+02 -0.68783471528E+02 -0.29241737357E+03  0.30441280064E+03  0.41800000000E+01 0. -1.
        -11    1    3    3    0    0 -0.32262488007E+02  0.99256134060E+02 -0.62742685855E+02  0.12177558421E+03  0.00000000000E+00 0. -1.
         11    1    3    3    0    0  0.21431319953E+02  0.55878571146E+02 -0.12391568422E+03  0.13761109324E+03  0.00000000000E+00 0.  1.
</event>
<event>
 7    1  0.4687179E-006  0.1181387E+03  0.7561462E-02  0.1246200E+00
         -2   -1    0    0    0  501 -0.00000000000E+00  0.00000000000E+00  0.25543077784E+02  0.25543077784E+02  0.00000000000E+00 0.  1.
          2   -1    0    0  501    0  0.00000000000E+00 -0.00000000000E+00 -0.61772429922E+03  0.61772429922E+03  0.00000000000E+00 0. -1.
         23    2    1    2    0    0 -0.55468133699E+02  0.14525311329E+02 -0.33523466414E+03  0.35179445346E+03  0.89940863432E+02 0.  0.
          5    1    1    2  502    0 -0.36652779308E+02 -0.68837031662E+00 -0.12189434915E+03  0.12735621241E+03  0.41800000000E+01 0. -1.
         -5    1    1    2    0  502  0.92120913006E+02 -0.13836941013E+02 -0.13505220814E+03  0.16411671113E+03  0.41800000000E+01 0. -1.
        -11    1    3    3    0    0  0.16256827066E+02 -0.20621659109E+02 -0.68633144612E+02  0.73485003845E+02  0.00000000000E+00 0.  1.
         11    1    3    3    0    0 -0.71724960764E+02  0.35146970438E+02 -0.26660151953E+03  0.27830944961E+03  0.00000000000E+00 0. -1.
</event>
<event>
 7    1  0.4687179E-006  0.1461829E+03  0.7561462E-02  0.1205243E+00
          2   -1    0    0  501    0  0.00000000000E+00  0.00000000000E+00  0.90333549792E+03  0.90333549792E+03  0.00000000000E+00 0. -1.
         -2   -1    0    0    0  501 -0.00000000000E+00 -0.00000000000E+00 -0.38138655945E+02  0.38138655945E+02  0.00000000000E+00 0.  1.
         23    2    1    2    0    0  0.11497226590E+03 -0.58112587320E+02  0.60349631580E+03  0.62409369429E+03  0.93217172976E+02 0.  0.
          5    1    1    2  502    0 -0.61386689179E+02  0.64801329848E+02  0.24486633083E+03  0.26066171628E+03  0.41800000000E+01 0.  1.
         -5    1    1    2    0  502 -0.53585576716E+02 -0.66887425275E+01  0.16834195347E+02  0.56718743301E+02  0.41800000000E+01 0.  1.
        -11    1    3    3    0    0  0.45783800852E+02 -0.64789962188E+02  0.42878838599E+03  0.43606579272E+03  0.00000000000E+00 0. -1.
         11    1    3    3    0    0  0.69188465044E+02  0.66773748680E+01  0.17470792982E+03  0.18802790158E+03  0.00000000000E+00 0.  1.
</event>
<event>
 7    1  0.4687179E-006  0.8074706E+02  0.7561462E-02  0.1326945E+00
          2   -1    0    0  501    0  0.00000000000E+00  0.00000000000E+00  0.32610897630E+03  0.32610897630E+03  0.00000000000E+00 0. -1.
         -2   -1    0    0    0  501 -0.00000000000E+00 -0.00000000000E+00 -0.41474635334E+02  0.41474635334E+02  0.00000000000E+00 0.  1.
         23    2    1    2    0    0 -0.14021977267E+02  0.88527136130E+01  0.17655557317E+03  0.20144026376E+03  0.95557956570E+02 0.  0.
          5    1    1    2  502    0 -0.38175007908E+02  0.99768282066E+01 -0.51195493519E+01  0.40006880851E+02  0.41800000000E+01 0.  1.
         -5    1    1    2    0  502  0.52196985175E+02 -0.18829541820E+02  0.11319831715E+03  0.12613646702E+03  0.41800000000E+01 0.  1.
        -11    1    3    3    0    0  0.25658722423E+02  0.74826851946E+00  0.62965174927E+01  0.26430589753E+02  0.00000000000E+00 0.  1.
         11    1    3    3    0    0 -0.39680699690E+02  0.81044450936E+01  0.17025905567E+03  0.17500967401E+03  0.00000000000E+00 0. -1.
</event>
<event>
 7    1  0.4687179E-006  0.9416362E+02  0.7561462E-02  0.1293071E+00
         -3   -1    0    0    0  501 -0.00000000000E+00  0.00000000000E+00  0.31801986511E+03  0.31801986511E+03  0.00000000000E+00 0.  1.
          3   -1    0    0  501    0  0.00000000000E+00 -0.00000000000E+00 -0.62503053780E+02  0.62503053780E+02  0.00000000000E+00 0. -1.
         23    2    1    2    0    0 -0.27555142637E+02 -0.60571536307E+02  0.26801504995E+02  0.11645577325E+03  0.91735650411E+02 0.  0.
          5    1    1    2  502    0  0.45810914982E+02  0.45801404707E+02  0.45420336372E+02  0.79226813395E+02  0.41800000000E+01 0. -1.
         -5    1    1    2    0  502 -0.18255772345E+02  0.14770131601E+02  0.18329496997E+03  0.18484033225E+03  0.41800000000E+01 0.  1.
        -11    1    3    3    0    0  0.95026513244E+00 -0.69641179913E+02 -0.85229144344E+01  0.70167207540E+02  0.00000000000E+00 0. -1.
         11    1    3    3    0    0 -0.28505407769E+02  0.90696436059E+01  0.35324419429E+02  0.46288565707E+02  0.00000000000E+00 0.  1.
</event>
<event>
 7    1  0.4687179E-006  0.1080818E+03  0.7561462E-02  0.1264164E+00
          3   -1    0    0  501    0  0.00000000000E+00  0.00000000000E+00  0.38803586808E+03  0.38803586808E+03  0.00000000000E+00 0. -1.
         -3   -1    0    0    0  501 -0.00000000000E+00 -0.00000000000E+00 -0.56815516392E+02  0.56815516392E+02  0.00000000000E+00 0.  1.
         23    2    1    2    0    0 -0.21003348917E+02 -0.92269551216E+02  0.20567306112E+03  0.24394476529E+03  0.90845086222E+02 0.  0.
          5    1    1    2  502    0  0.63180171087E+00  0.21319319682E+02  0.12509603156E+03  0.12697008340E+03  0.41800000000E+01 0.  1.
         -5    1    1    2    0  502  0.20371547206E+02  0.70950231534E+02  0.45125900332E+00  0.73936535793E+02  0.41800000000E+01 0.  1.
        -11    1    3    3    0    0  0.26170359918E+02 -0.53020403520E+02  0.14943226284E+03  0.16070486024E+03  0.00000000000E+00 0. -1.
         11    1    3    3    0    0 -0.47173708835E+02 -0.39249147697E+02  0.56240798285E+02  0.83239905045E+02  0.00000000000E+00 0.  1.
</event>
<event>
 7    1  0.4687179E-006  0.1045513E+03  0.7561462E-02  0.1271006E+00
         -1   -1    0    0    0  501 -0.00000000000E+00  0.00000000000E+00  0.57861598478E+03  0.57861598478E+03  0.00000000000E+00 0.  1.
          1   -1    0    0  501    0  0.00000000000E+00 -0.00000000000E+00 -0.22331228660E+02  0.22331228660E+02  0.00000000000E+00 0. -1.
         23    2    1    2    0    0  0.38589139996E+01  0.29874043624E+02  0.26744575245E+03  0.28474866526E+03  0.92990441242E+02 0.  0.
          5    1    1    2  502    0 -0.55538465867E+02 -0.22716334267E+02  0.22867724668E+03  0.23645572225E+03  0.41800000000E+01 0. -1.
         -5    1    1    2    0  502  0.51679551867E+02 -0.71577093570E+01  0.60161756993E+02  0.79742825940E+02  0.41800000000E+01 0. -1.
        -11    1    3    3    0    0 -0.27723047369E+01  0.62883043591E+02  0.15266890028E+03  0.16513556842E+03  0.00000000000E+00 0.  1.
         11    1    3    3    0    0  0.66312187366E+01 -0.33008999967E+02  0.11477685217E+03  0.11961309684E+03  0.00000000000E+00 0. -1.
</event>
<event>
 7    1  0.4687179E-006  0.1747457E+03  0.7561462E-02  0.1172987E+00
         -1   -1    0    0    0  501 -0.00000000000E+00  0.00000000000E+00  0.22471141043E+03  0.22471141043E+03  0.00000000000E+00 0.  1.
          1   -1    0    0  501    0  0.00000000000E+00 -0.00000000000E+00 -0.20638661338E+03  0.20638661338E+03  0.00000000000E+00 0. -1.
         23    2    1    2    0    0  0.62395469308E+02  0.14563743181E+03 -0.80047815599E+02  0.20078124691E+03  0.93818975664E+02 0.  0.
          5    1    1    2  502    0 -0.45544127221E+02 -0.93051473555E+01  0.78677484160E+02  0.91479353984E+02  0.41800000000E+01 0. -1.
         -5    1    1    2    0  502 -0.16851342086E+02 -0.13633228446E+03  0.19695128494E+02  0.13883742292E+03  0.41800000000E+01 0.  1.
        -11    1    3    3    0    0 -0.41049487046E+01  0.42306532837E+02 -0.64040413359E+02  0.76862655872E+02  0.00000000000E+00 0.  1.
         11    1    3    3    0    0  0.66500418012E+02  0.10333089898E+03 -0.16007402240E+02  0.12391859104E+03  0.00000000000E+00 0. -1.
</event>
<event>
 7    1  0.4687179E-006  0.1610371E+03  0.7561462E-02  0.1187531E+00
          3   -1    0    0  501    0  0.00000000000E+00  0.00000000000E+00  0.91028073777E+02  0.91028073777E+02  0.00000000000E+00 0. -1.
         -3   -1    0    0    0  501 -0.00000000000E+00 -0.00000000000E+00 -0.55130280833E+03  0.55130280833E+03  0.00000000000E+00 0.  1.
         23    2    1    2    0    0 -0.51668871526E+02  0.10933161168E+03 -0.17570556765E+02  0.16666570860E+03  0.11333869754E+03 0.  0.
          5    1    1    2  502    0 -0.67009438536E+01 -0.96756390997E+02 -0.36437174188E+03  0.37708214029E+03  0.41800000000E+01 0. -1.
         -5    1    1    2    0  502  0.58369815379E+02 -0.12575220687E+02 -0.78332435909E+02  0.98583033216E+02  0.41800000000E+01 0. -1.
        -11    1    3    3    0    0  0.27711727338E+02  0.72531242554E+02 -0.12159331678E+01  0.77654359002E+02  0.00000000000E+00 0. -1.
         11    1    3    3    0    0 -0.79380598864E+02  0.36800369129E+02 -0.16354623597E+02  0.89011349597E+02  0.00000000000E+00 0.  1.
</event>
<event>
 7    1  0.4687179E-006  0.1430206E+03  0.7561462E-02  0.1209321E+00
         -2   -1    0    0    0  501 -0.00000000000E+00  0.00000000000E+00  0.38046967642E+02  0.38046967642E+02  0.00000000000E+00 0.  1.
          2   -1    0    0  501    0  0.00000000000E+00 -0.00000000000E+00 -0.60710261525E+03  0.60710261525E+03  0.00000000000E+00 0. -1.
         23    2    1    2    0    0  0.20139978071E+02 -0.92991546993E+02 -0.35957277054E+03  0.38326136680E+03  0.92431874590E+02 0.  0.
          5    1    1    2  502    0  0.20148043682E+02  0.10967714534E+03 -0.16709828354E+03  0.20093364237E+03  0.41800000000E+01 0.  1.
         -5    1    1    2    0  502 -0.40288021753E+02 -0.16685598347E+02 -0.42384593530E+02  0.60954573722E+02  0.41800000000E+01 0.  1.
        -11    1    3    3    0    0  0.25899829284E+01  0.18044583607E+02 -0.30674833798E+02  0.35682775084E+02  0.00000000000E+00 0. -1.
         11    1    3    3    0    0  0.17549995143E+02 -0.11103613060E+03 -0.32889793674E+03  0.34757859171E+03  0.00000000000E+00 0.  1.
</event>
<event>
 7    1  0.4687179E-006  0.9266362E+02  0.7561462E-02  0.1296527E+00
         -1   -1    0    0    0  501 -0.00000000000E+00  0.00000000000E+00  0.43448266261E+03  0.43448266261E+03  0.00000000000E+00 0.  1.
          1   -1    0    0  501    0  0.00000000000E+00 -0.00000000000E+00 -0.40141159244E+02  0.40141159244E+02  0.00000000000E+00 0. -1.
         23    2    1    2    0    0 -0.37928304619E+02  0.61494813626E+02  0.16916574590E+03  0.20636822933E+03  0.93544791918E+02 0.  0.
          5    1    1    2  502    0  0.32637212545E+02 -0.48324467534E+02  0.18888675532E+02  0.61438556855E+02  0.41800000000E+01 0. -1.
         -5    1    1    2    0  502  0.52910920736E+01 -0.13170346093E+02  0.20628708193E+03  0.20681703567E+03  0.41800000000E+01 0.  1.
        -11    1    3    3    0    0 -0.47927996586E+02  0.78713180725E+02  0.15955879494E+03  0.18426032323E+03  0.00000000000E+00 0. -1.
         11    1    3    3    0    0  0.99996919674E+01 -0.17218367098E+02  0.96069509642E+01  0.22107906093E+02  0.00000000000E+00 0.  1.
</event>
<event>
 7    1  0.4687179E-006  0.1771943E+03  0.7561462E-02  0.1170546E+00
          4   -1    0    0  501    0  0.00000000000E+00  0.00000000000E+00  0.74742129872E+02  0.74742129872E+02  0.00000000000E+00 0.  1.
         -4   -1    0    0    0  501 -0.00000000000E+00 -0.00000000000E+00 -0.52594827218E+03  0.52594827218E+03  0.00000000000E+00 0. -1.
         23    2    1    2    0    0  0.15281240108E+03 -0.18795065510E+02 -0.12064861189E+03  0.21517704815E+03  0.89667107064E+02 0.  0.
          5    1    1    2  502    0 -0.36352611809E+02  0.45686130168E+02 -0.38883597051E+02  0.70271910425E+02  0.41800000000E+01 0. -1.
         -5    1    1    2    0  502 -0.11645978928E+03 -0.26891064659E+02 -0.29167393336E+03  0.31524144347E+03  0.41800000000E+01 0. -1.
        -11    1    3    3    0    0 -0.75646133954E+01 -0.13877274766E+02 -0.21059387211E+02  0.26330589064E+02  0.00000000000E+00 0. -1.
         11    1    3    3    0    0  0.16037701448E+03 -0.49177907436E+01 -0.99589224678E+02  0.18884645909E+03  0.00000000000E+00 0.  1.
</event>
<event>
 7    1  0.4687179E-006  0.2233480E+03  0.7561462E-02  0.1131411E+00
          2   -1    0    0  501    0  0.00000000000E+00  0.00000000000E+00  0.12522444521E+04  0.12522444521E+04  0.00000000000E+00 0. -1.
         -2   -1    0    0    0  501 -0.00000000000E+00 -0.00000000000E+00 -0.47765852107E+02  0.47765852107E+02  0.00000000000E+00 0.  1.
         23    2    1    2    0    0 -0.20618502302E+03 -0.18740356057E+02  0.44009365078E+03  0.49826536798E+03  0.10827045216E+03 0.  0.
          5    1    1    2  502    0  0.95659262301E+02  0.69139140008E+02  0.43122931905E+03  0.44710973278E+03  0.41800000000E+01 0. -1.
         -5    1    1    2    0  502  0.11052576072E+03 -0.50398783951E+02  0.33315563012E+03  0.35463520339E+03  0.41800000000E+01 0. -1.
        -11    1    3    3    0    0 -0.17445238877E+03 -0.16654470451E+02  0.24866122197E+03  0.30420948480E+03  0.00000000000E+00 0.  1.
         11    1    3    3    0    0 -0.31732634247E+02 -0.20858856061E+01  0.19143242881E+03  0.19405588318E+03  0.00000000000E+00 0. -1.
</event>
<event>
 7    1  0.4687179E-006  0.9271496E+02  0.7561462E-02  0.1296407E+00
         -2   -1    0    0    0  501 -0.00000000000E+00  0.00000000000E+00  0.31557475660E+03  0.31557475660E+03  0.00000000000E+00 0.  1.
          2   -1    0    0  501    0  0.00000000000E+00 -0.00000000000E+00 -0.92712043516E+02  0.92712043516E+02  0.00000000000E+00 0. -1.
         23    2    1    2    0    0  0.15806063754E+02 -0.64062450317E+01 -0.55359664764E+02  0.10796002427E+03  0.91103253124E+02 0.  0.
          5    1    1    2  502    0  0.29878993227E+02 -0.27647190287E+02  0.47786451232E+02  0.62913740060E+02  0.41800000000E+01 0. -1.
         -5    1    1    2    0  502 -0.45685056981E+02  0.34053435318E+02  0.23043592662E+03  0.23741303579E+03  0.41800000000E+01 0.  1.
        -11    1    3    3    0    0  0.36557400760E+02  0.28778893218E+02 -0.11301436379E+02  0.47878917171E+02  0.00000000000E+00 0.  1.
         11    1    3    3    0    0 -0.20751337006E+02 -0.35185138250E+02 -0.44058228385E+02  0.60081107094E+02  0.00000000000E+00 0. -1.
</event>
<event>
 7    1  0.4687179E-006  0.1779017E+03  0.7561462E-02  0.1169849E+00
          1   -1    0    0  501    0  0.00000000000E+00  0.00000000000E+00  0.21693151957E+03  0.21693151957E+03  0.00000000000E+00 0. -1.
         -1   -1    0    0    0  501 -0.00000000000E+00 -0.00000000000E+00 -0.19440072176E+03  0.19440072176E+03  0.00000000000E+00 0.  1.
         23    2    1    2    0    0 -0.55754739069E+02 -0.14344883450E+03  0.91551721370E+02  0.20133517137E+03  0.92021597974E+02 0.  0.
          5    1    1    2  502    0 -0.26335626513E+02 -0.25296002820E+01  0.42958337850E+01  0.27127305235E+02  0.41800000000E+01 0.  1.
         -5    1    1    2    0  502  0.82090365582E+02  0.14597843479E+03 -0.73316757351E+02  0.18286976473E+03  0.41800000000E+01 0.  1.
        -11    1    3    3    0    0 -0.57984827267E+02 -0.84404557663E+02  0.13272525467E+02  0.10325952489E+03  0.00000000000E+00 0.  1.
         11    1    3    3    0    0  0.22300881980E+01 -0.59044276841E+02  0.78279195903E+02  0.98075646479E+02  0.00000000000E+00 0. -1.
</event>
<event>
 7    1  0.4687179E-006  0.1078142E+03  0.7561462E-02  0.1264672E+00
         -2   -1    0    0    0  501 -0.00000000000E+00  0.00000000000E+00  0.37794230992E+02  0.37794230992E+02  0.00000000000E+00 0.  1.
          2   -1    0    0  501    0  0.00000000000E+00 -0.00000000000E+00 -0.47752374041E+03  0.47752374041E+03  0.00000000000E+00 0. -1.
         23    2    1    2    0    0 -0.82306448503E+02  0.34209495921E+01 -0.20897495297E+03  0.24021879768E+03  0.85138037487E+02 0.  0.
          5    1    1    2  502    0  0.15100924862E+02  0.33477618265E+02 -0.17834494052E+03  0.18213505721E+03  0.41800000000E+01 0.  1.
         -5    1    1    2    0  502  0.67205523641E+02 -0.36898567858E+02 -0.52409615932E+02  0.92964116518E+02  0.41800000000E+01 0.  1.
        -11    1    3    3    0    0 -0.63689437168E+02 -0.24571456844E+02 -0.72158024123E+02  0.99332176779E+02  0.00000000000E+00 0.  1.
         11    1    3    3    0    0 -0.18617011336E+02  0.27992406436E+02 -0.13681692885E+03  0.14088662090E+03  0.00000000000E+00 0. -1.
</event>
<event>
 7    1  0.4687179E-006  0.1585133E+03  0.7561462E-02  0.1190386E+00
          1   -1    0    0  501    0  0.00000000000E+00  0.00000000000E+00  0.43122172313E+03  0.43122172313E+03  0.00000000000E+00 0. -1.
         -1   -1    0    0    0  501 -0.00000000000E+00 -0.00000000000E+00 -0.93238564234E+02  0.93238564234E+02  0.00000000000E+00 0.  1.
         23    2    1    2    0    0  0.28038921722E+02  0.13245702595E+03  0.29621340388E+03  0.33839942082E+03  0.91873513710E+02 0.  0.
          5    1    1    2  502    0  0.37600441000E+02 -0.42128908130E+02  0.47886141643E+02  0.74156544047E+02  0.41800000000E+01 0. -1.
         -5    1    1    2    0  502 -0.65639362723E+02 -0.90328117821E+02 -0.61163866232E+01  0.11190432250E+03  0.41800000000E+01 0.  1.
        -11    1    3    3    0    0  0.43279697459E+02  0.56368772040E+02  0.21334462380E+03  0.22486996059E+03  0.00000000000E+00 0. -1.
         11    1    3    3    0    0 -0.15240775737E+02  0.76088253911E+02  0.82868780080E+02  0.11352946023E+03  0.00000000000E+00 0.  1.
</event>
<event>
 7    1  0.4687179E-006  0.1222222E+03  0.7561462E-02  0.1239475E+00
          2   -1    0    0  501    0  0.00000000000E+00  0.00000000000E+00  0.61075230728E+02  0.61075230728E+02  0.00000000000E+00 0. -1.
         -2   -1    0    0    0  501 -0.00000000000E+00 -0.00000000000E+00 -0.80569743904E+03  0.80569743904E+03  0.00000000000E+00 0.  1.
         23    2    1    2    0    0 -0.59689098484E+02  0.29377676172E+02 -0.23165979805E+01  0.11106695437E+03  0.88908185184E+02 0.  0.
          5    1    1    2  502    0  0.31626264595E+02  0.48529559789E+02 -0.34313709713E+03  0.34801706655E+03  0.41800000000E+01 0.  1.
         -5    1    1    2    0  502  0.28062833889E+02 -0.77907235961E+02 -0.39916851320E+03  0.40768864884E+03  0.41800000000E+01 0.  1.
        -11    1    3    3    0    0  0.52970423684E+01  0.37582242840E+02  0.18653724788E+02  0.42290011624E+02  0.00000000000E+00 0.  1.
         11    1    3    3    0    0 -0.64986140852E+02 -0.82045666676E+01 -0.20970322768E+02  0.68776942750E+02  0.00000000000E+00 0. -1.
</event>
<event>
 7    1  0.4687179E-006  0.1100147E+03  0.7561462E-02  0.1260543E+00
         -2   -1    0    0    0  501 -0.00000000000E+00  0.00000000000E+00  0.10103762010E+04  0.10103762010E+04  0.00000000000E+00 0. -1.
          2   -1    0    0  501    0  0.00000000000E+00 -0.00000000000E+00 -0.18786799334E+02  0.18786799334E+02  0.00000000000E+00 0.  1.
         23    2    1    2    0    0  0.55384182956E+02 -0.56492828723E+02  0.32886296340E+03  0.35010999938E+03  0.90373201496E+02 0.  0.
          5    1    1    2  502    0 -0.69030784641E+02  0.45380859659E+02  0.65356217051E+03  0.65877587598E+03  0.41800000000E+01 0.  1.
         -5    1    1    2    0  502  0.13646601686E+02  0.11111969064E+02  0.91642677672E+01  0.20277124987E+02  0.41800000000E+01 0.  1.
        -11    1    3    3    0    0  0.59601341039E+02  0.29095072593E+01  0.14338599142E+03  0.15530720402E+03  0.00000000000E+00 0.  1.
         11    1    3    3    0    0 -0.42171580836E+01 -0.59402335982E+02  0.18547697198E+03  0.19480279536E+03  0.00000000000E+00 0. -1.
</event>
<event>
 7    1  0.4687179E-006  0.1029985E+03  0.7561462E-02  0.1274114E+00
         -1   -1    0    0    0  501 -0.00000000000E+00  0.00000000000E+00  0.28524650517E+02  0.28524650517E+02  0.00000000000E+00 0.  1.
          1   -1    0    0  501    0  0.00000000000E+00 -0.00000000000E+00 -0.50726788221E+03  0.50726788221E+03  0.00000000000E+00 0. -1.
         23    2    1    2    0    0  0.20913517684E+02  0.46025708857E+02 -0.23729850841E+03  0.25920820897E+03  0.91228133872E+02 0.  0.
          5    1    1    2  502    0 -0.66424079816E+02 -0.59337405266E+01 -0.80977782414E+02  0.10498686251E+03  0.41800000000E+01 0.  1.
         -5    1    1    2    0  502  0.45510562133E+02 -0.40091968331E+02 -0.16046694087E+03  0.17159746124E+03  0.41800000000E+01 0.  1.
        -11    1    3    3    0    0  0.36620634256E+02  0.83456570532E+01 -0.30399400374E+02  0.48320227525E+02  0.00000000000E+00 0.  1.
         11    1    3    3    0    0 -0.15707116572E+02  0.37680051804E+02 -0.20689910803E+03  0.21088798145E+03  0.00000000000E+00 0. -1.
</event>
<event>
 7    1  0.4687179E-006  0.1020636E+03  0.7561462E-02  0.1276015E+00
         -1   -1    0    0    0  501 -0.00000000000E+00  0.00000000000E+00  0.71911492581E+02  0.71911492581E+02  0.00000000000E+00 0.  1.
          1   -1    0    0  501    0  0.00000000000E+00 -0.00000000000E+00 -0.24311589196E+03  0.24311589196E+03  0.00000000000E+00 0. -1.
         23    2    1    2    0    0 -0.22734345612E+02  0.36166549465E+02 -0.15102914626E+03  0.18131090103E+03  0.90768772394E+02 0.  0.
          5    1    1    2  502    0 -0.34504145187E+02 -0.32617917471E+02  0.30902515497E+02  0.56805831032E+02  0.41800000000E+01 0. -1.
         -5    1    1    2    0  502  0.57238490799E+02 -0.35486319944E+01 -0.51077768615E+02  0.76910652479E+02  0.41800000000E+01 0. -1.
        -11    1    3    3    0    0 -0.49869626300E+02  0.48129380325E+02 -0.91309082824E+02  0.11463317794E+03  0.00000000000E+00 0.  1.
         11    1    3    3    0    0  0.27135280688E+02 -0.11962830859E+02 -0.59720063437E+02  0.66677723095E+02  0.00000000000E+00 0. -1.
</event>
<event>
 7    1  0.4687179E-006  0.2519226E+03  0.7561462E-02  0.1112096E+00
          4   -1    0    0  501    0  0.00000000000E+00  0.00000000000E+00  0.64206703624E+03  0.64206703624E+03  0.00000000000E+00 0. -1.
         -4   -1    0    0    0  501 -0.00000000000E+00 -0.00000000000E+00 -0.22912379784E+03  0.22912379784E+03  0.00000000000E+00 0.  1.
         23    2    1    2    0    0  0.18217736069E+02  0.36566092160E+01  0.42114488204E+03  0.43130249311E+03  0.91178792465E+02 0.  0.
          5    1    1    2  502    0  0.15873432881E+03  0.11663422079E+03  0.74247268248E+02  0.21054751921E+03  0.41800000000E+01 0. -1.
         -5    1    1    2    0  502 -0.17695206488E+03 -0.12029083000E+03 -0.82448911897E+02  0.22934082175E+03  0.41800000000E+01 0.  1.
        -11    1    3    3    0    0  0.37691590746E+02 -0.33782013441E+02  0.24489409167E+03  0.25006998337E+03  0.00000000000E+00 0. -1.
         11    1    3    3    0    0 -0.19473854676E+02  0.37438622657E+02  0.17625079037E+03  0.18123250974E+03  0.00000000000E+00 0.  1.
</event>
<event>
 7    1  0.4687179E-006  0.9199555E+02  0.7561462E-02  0.1298090E+00
          1   -1    0    0  501    0  0.00000000000E+00  0.00000000000E+00  0.15550743410E+03  0.15550743410E+03  0.00000000000E+00 0. -1.
         -1   -1    0    0    0  501 -0.00000000000E+00 -0.00000000000E+00 -0.10781089269E+03  0.10781089269E+03  0.00000000000E+00 0.  1.
         23    2    1    2    0    0  0.29093218159E+02 -0.66502263156E+02  0.35478845239E+02  0.11817785192E+03  0.86245520905E+02 0.  0.
          5    1    1    2  502    0 -0.17138335514E+02  0.39571513407E+02  0.68744500341E+02  0.81258266931E+02  0.41800000000E+01 0.  1.
         -5    1    1    2    0  502 -0.11954882645E+02  0.26930749749E+02 -0.56526804175E+02  0.63882207940E+02  0.41800000000E+01 0.  1.
        -11    1    3    3    0    0  0.53324750466E+02 -0.68249287509E+02  0.18573254224E+02  0.88580246275E+02  0.00000000000E+00 0.  1.
         11    1    3    3    0    0 -0.24231532308E+02  0.17470243526E+01  0.16905591015E+02  0.29597605640E+02  0.00000000000E+00 0. -1.
</event>
<event>
 7    1  0.4687179E-006  0.9181773E+02  0.7561462E-02  0.1298509E+00
          1   -1    0    0  501    0  0.00000000000E+00  0.00000000000E+00  0.52014925815E+03  0.52014925815E+03  0.00000000000E+00 0. -1.
         -1   -1    0    0    0  501 -0.00000000000E+00 -0.00000000000E+00 -0.29362093536E+02  0.29362093536E+02  0.00000000000E+00 0.  1.
         23    2    1    2    0    0 -0.29471497675E+02 -0.48558319817E+02  0.26858898314E+03  0.28824570486E+03  0.87858209111E+02 0.  0.
          5    1    1    2  502    0 -0.23041640221E+02  0.18939831023E+02 -0.89514202492E+00  0.30131512782E+02  0.41800000000E+01 0. -1.
         -5    1    1    2    0  502  0.52513137896E+02  0.29618488794E+02  0.22309332350E+03  0.23113413404E+03  0.41800000000E+01 0. -1.
        -11    1    3    3    0    0 -0.48875361752E+02 -0.54094675070E+02  0.25133950863E+03  0.26169941432E+03  0.00000000000E+00 0. -1.
         11    1    3    3    0    0  0.19403864076E+02  0.55363552522E+01  0.17249474506E+02  0.26546290538E+02  0.00000000000E+00 0.  1.
</event>
<event>
 7    1  0.4687179E-006  0.1098072E+03  0.7561462E-02  0.1260927E+00
          2   -1    0    0  501    0  0.00000000000E+00  0.00000000000E+00  0.76768877891E+02  0.76768877891E+02  0.00000000000E+00 0. -1.
         -2   -1    0    0    0  501 -0.00000000000E+00 -0.00000000000E+00 -0.17182639098E+03  0.17182639098E+03  0.00000000000E+00 0.  1.
         23    2    1    2    0    0 -0.29871600150E+02  0.11210617864E+02 -0.11287566145E+02  0.99196311903E+02  0.93244349412E+02 0.  0.
          5    1    1    2  502    0  0.73153412775E+02 -0.26024478940E+02 -0.53548926787E+02  0.94412156340E+02  0.41800000000E+01 0.  1.
         -5    1    1    2    0  502 -0.43281812625E+02  0.14813861077E+02 -0.30221020161E+02  0.54986800631E+02  0.41800000000E+01 0.  1.
        -11    1    3    3    0    0 -0.12756941383E+02  0.51018295880E+02  0.51761217232E+01  0.52843148128E+02  0.00000000000E+00 0.  1.
         11    1    3    3    0    0 -0.17114658767E+02 -0.39807678016E+02 -0.16463687869E+02  0.46353163775E+02  0.00000000000E+00 0. -1.
</event>
<event>
 7    1  0.4687179E-006  0.1056868E+03  0.7561462E-02  0.1268772E+00
          1   -1    0    0  501    0  0.00000000000E+00  0.00000000000E+00  0.65611975582E+03  0.65611975582E+03  0.00000000000E+00 0. -1.
         -1   -1    0    0    0  501 -0.00000000000E+00 -0.00000000000E+00 -0.29076454567E+02  0.29076454567E+02  0.00000000000E+00 0.  1.
         23    2    1    2    0    0  0.33079479066E+01 -0.83672916467E+02  0.28884626105E+03  0.31501187539E+03  0.93745504660E+02 0.  0.
          5    1    1    2  502    0  0.29062492742E+02  0.85250056304E+01  0.24157589014E+03  0.24350295132E+03  0.41800000000E+01 0. -1.
         -5    1    1    2    0  502 -0.32370440648E+02  0.75147910837E+02  0.96621150066E+02  0.12668138368E+03  0.41800000000E+01 0. -1.
        -11    1    3    3    0    0 -0.12704160717E+02  0.95515065628E+00 -0.86440917308E+00  0.12769307558E+02  0.00000000000E+00 0.  1.
         11    1    3    3    0    0  0.16012108624E+02 -0.84628067124E+02  0.28971067022E+03  0.30224256783E+03  0.00000000000E+00 0. -1.
</event>
<event>
 7    1  0.4687179E-006  0.1022671E+03  0.7561462E-02  0.1275600E+00
          1   -1    0    0  501    0  0.00000000000E+00  0.00000000000E+00  0.19259132853E+03  0.19259132853E+03  0.00000000000E+00 0. -1.
         -1   -1    0    0    0  501 -0.00000000000E+00 -0.00000000000E+00 -0.76336352845E+02  0.76336352845E+02  0.00000000000E+00 0.  1.
         23    2    1    2    0    0  0.46929473607E+02 -0.33393126567E+02  0.48426090861E+02  0.11911935530E+03  0.92340988382E+02 0.  0.
          5    1    1    2  502    0 -0.11842441997E+02 -0.25046243139E+02  0.76027915827E+02  0.81026379117E+02  0.41800000000E+01 0. -1.
         -5    1    1    2    0  502 -0.35087031610E+02  0.58439369706E+02 -0.81990310011E+01  0.68781946964E+02  0.41800000000E+01 0.  1.
        -11    1    3    3    0    0 -0.99623081800E+01  0.24870326457E+02  0.66897113879E+01  0.27613999363E+02  0.00000000000E+00 0. -1.
         11    1    3    3    0    0  0.56891781787E+02 -0.58263453024E+02  0.41736379473E+02  0.91505355934E+02  0.00000000000E+00 0.  1.
</event>
<event>
 7    1  0.4687179E-006  0.9705336E+02  0.7561462E-02  0.1286617E+00
         -2   -1    0    0    0  501 -0.00000000000E+00  0.00000000000E+00  0.18962163128E+03  0.18962163128E+03  0.00000000000E+00 0. -1.
          2   -1    0    0  501    0  0.00000000000E+00 -0.00000000000E+00 -0.81688154819E+02  0.81688154819E+02  0.00000000000E+00 0.  1.
         23    2    1    2    0    0 -0.19401912739E+02 -0.43768923744E+02  0.66443085728E+01  0.10338097478E+03  0.91385590801E+02 0.  0.
          5    1    1    2  502    0 -0.49745578922E+02  0.19496267610E+02  0.17147378535E+02  0.56269281705E+02  0.41800000000E+01 0.  1.
         -5    1    1    2    0  502  0.69147491661E+02  0.24272656134E+02  0.84141789357E+02  0.11165952962E+03  0.41800000000E+01 0.  1.
        -11    1    3    3    0    0  0.47420086590E+01 -0.42679632887E+02 -0.34888143013E+02  0.55328295043E+02  0.00000000000E+00 0.  1.
         11    1    3    3    0    0 -0.24143921398E+02 -0.10892908563E+01  0.41532451585E+02  0.48052679735E+02  0.00000000000E+00 0. -1.
</event>
<event>
 7    1  0.4687179E-006  0.1420725E+03  0.7561462E-02  0.1210567E+00
          1   -1    0    0  501    0  0.00000000000E+00  0.00000000000E+00  0.14639137802E+03  0.14639137802E+03  0.00000000000E+00 0. -1.
         -1   -1    0    0    0  501 -0.00000000000E+00 -0.00000000000E+00 -0.18481801535E+03  0.18481801535E+03  0.00000000000E+00 0.  1.
         23    2    1    2    0    0 -0.16014276089E+02 -0.12052081028E+03  0.39516982543E+01  0.15169593151E+03  0.90632869137E+02 0.  0.
          5    1    1    2  502    0 -0.16306773206E+02  0.11693468815E+02 -0.61039084844E+02  0.64388588616E+02  0.41800000000E+01 0. -1.
         -5    1    1    2    0  502  0.32321049295E+02  0.10882734147E+03  0.18660749260E+02  0.11512487325E+03  0.41800000000E+01 0. -1.
        -11    1    3    3    0    0 -0.35162784957E+02 -0.82024332606E+01 -0.84549044838E+01  0.37083510717E+02  0.00000000000E+00 0.  1.
         11    1    3    3    0    0  0.19148508868E+02 -0.11231837702E+03  0.12406602738E+02  0.11461242079E+03  0.00000000000E+00 0. -1.
</event>
<event>
 7    1  0.4687179E-006  0.2108764E+03  0.7561462E-02  0.1140874E+00
         -2   -1    0    0    0  501 -0.00000000000E+00  0.00000000000E+00  0.26309623773E+02  0.26309623773E+02  0.00000000000E+00 0.  1.
          2   -1    0    0  501    0  0.00000000000E+00 -0.00000000000E+00 -0.18163891144E+04  0.18163891144E+04  0.00000000000E+00 0. -1.
         23    2    1    2    0    0  0.30921938225E+02 -0.18909905582E+03 -0.83140201134E+03  0.85709141871E+03  0.81619705857E+02 0.  0.
          5    1    1    2  502    0 -0.71847431339E+02  0.16749245547E+03 -0.77245257423E+03  0.79367262008E+03  0.41800000000E+01 0.  1.
         -5    1    1    2    0  502  0.40925493114E+02  0.21606600349E+02 -0.18622490510E+03  0.19193469943E+03  0.41800000000E+01 0.  1.
        -11    1    3    3    0    0  0.11132874601E+02 -0.21396197432E+02 -0.32130247589E+02  0.40175751039E+02  0.00000000000E+00 0.  1.
         11    1    3    3    0    0  0.19789063624E+02 -0.16770285839E+03 -0.79927176375E+03  0.81691566767E+03  0.00000000000E+00 0. -1.
</event>
<event>
 7    1  0.4687179E-006  0.1006599E+03  0.7561462E-02  0.1278914E+00
          2   -1    0    0  501    0  0.00000000000E+00  0.00000000000E+00  0.50469123048E+03  0.50469123048E+03  0.00000000000E+00 0. -1.
         -2   -1    0    0    0  501 -0.00000000000E+00 -0.00000000000E+00 -0.33845944658E+02  0.33845944658E+02  0.00000000000E+00 0.  1.
         23    2    1    2    0    0  0.29908300586E+02 -0.61734587693E+02  0.26119195411E+03  0.28494746405E+03  0.90929393546E+02 0.  0.
          5    1    1    2  502    0 -0.39058570564E+02  0.80017015548E+02  0.21439763236E+03  0.23218981863E+03  0.41800000000E+01 0. -1.
         -5    1    1    2    0  502  0.91502699783E+01 -0.18282427855E+02 -0.47443006515E+01  0.21399892467E+02  0.41800000000E+01 0. -1.
        -11    1    3    3    0    0 -0.17701919257E+02 -0.27374071730E+02  0.18948711764E+03  0.19227081291E+03  0.00000000000E+00 0. -1.
         11    1    3    3    0    0  0.47610219843E+02 -0.34360515963E+02  0.71704836477E+02  0.92676651131E+02  0.00000000000E+00 0.  1.
</event>
<event>
 7    1  0.4687179E-006  0.9686291E+02  0.7561462E-02  0.1287035E+00
         -2   -1    0    0    0  501 -0.00000000000E+00  0.00000000000E+00  0.40033265397E+02  0.40033265397E+02  0.00000000000E+00 0.  1.
          2   -1    0    0  501    0  0.00000000000E+00 -0.00000000000E+00 -0.35478779039E+03  0.35478779039E+03  0.00000000000E+00 0. -1.
         23    2    1    2    0    0  0.31158564258E+02  0.12075906874E+02 -0.19462881976E+03  0.21820252679E+03  0.92818541059E+02 0.  0.
          5    1    1    2  502    0 -0.54843732475E+02  0.28341829674E+02 -0.18411132313E+02  0.64556459739E+02  0.41800000000E+01 0.  1.
         -5    1    1    2    0  502  0.23685168218E+02 -0.40417736548E+02 -0.10171457292E+03  0.11206206925E+03  0.41800000000E+01 0.  1.
        -11    1    3    3    0    0 -0.14662453860E+02  0.31734355829E+02 -0.29600669479E+02  0.45806730146E+02  0.00000000000E+00 0.  1.
         11    1    3    3    0    0  0.45821018117E+02 -0.19658448954E+02 -0.16502815028E+03  0.17239579665E+03  0.00000000000E+00 0. -1.
</event>
<event>
 7    1  0.4687179E-006  0.1115593E+03  0.7561462E-02  0.1257709E+00
          2   -1    0    0  501    0  0.00000000000E+00  0.00000000000E+00  0.71682791588E+02  0.71682791588E+02  0.00000000000E+00 0. -1.
         -2   -1    0    0    0  501 -0.00000000000E+00 -0.00000000000E+00 -0.23400143184E+03  0.23400143184E+03  0.00000000000E+00 0.  1.
         23    2    1    2    0    0  0.15615687783E+02 -0.35923741907E+02 -0.11710056398E+01  0.97958502209E+02  0.89778237693E+02 0.  0.
          5    1    1    2  502    0  0.40068604549E+02 -0.21097681133E+02 -0.30934816667E+02  0.55000368198E+02  0.41800000000E+01 0.  1.
         -5    1    1    2    0  502 -0.55684292333E+02  0.57021423040E+02 -0.13021281795E+03  0.15272535302E+03  0.41800000000E+01 0.  1.
        -11    1    3    3    0    0  0.50536656036E+02 -0.42980017104E+01 -0.30202600102E+01  0.50808940085E+02  0.00000000000E+00 0. -1.
         11    1    3    3    0    0 -0.34920968253E+02 -0.31625740197E+02  0.18492543704E+01  0.47149562124E+02  0.00000000000E+00 0.  1.
</event>
<event>
 7    1  0.4687179E-006  0.9237873E+02  0.7561462E-02  0.1297191E+00
         -1   -1    0    0    0  501 -0.00000000000E+00  0.00000000000E+00  0.60214750886E+03  0.60214750886E+03  0.00000000000E+00 0.  1.
          1   -1    0    0  501    0  0.00000000000E+00 -0.00000000000E+00 -0.31346106922E+02  0.31346106922E+02  0.00000000000E+00 0. -1.
         23    2    1    2    0    0 -0.90585280286E+01 -0.43615808543E+02  0.94387388666E+02  0.13893668719E+03  0.91706206019E+02 0.  0.
          5    1    1    2  502    0  0.62259449621E+02  0.17390776891E+01  0.18125067333E+03  0.19169909348E+03  0.41800000000E+01 0. -1.
         -5    1    1    2    0  502 -0.53200921593E+02  0.41876730854E+02  0.29516333994E+03  0.30285783511E+03  0.41800000000E+01 0. -1.
        -11    1    3    3    0    0 -0.20849734266E+02 -0.29093584955E+02  0.10930136182E+03  0.11501276364E+03  0.00000000000E+00 0.  1.
         11    1    3    3    0    0  0.11791206237E+02 -0.14522223588E+02 -0.14913973156E+02  0.23923923545E+02  0.00000000000E+00 0. -1.
</event>
<event>
 7    1  0.6013166E-006  0.2488357E+03  0.7561462E-02  0.1114043E+00
          1   -1    0    0  501    0  0.00000000000E+00  0.00000000000E+00  0.13058978180E+04  0.13058978180E+04  0.00000000000E+00 0. -1.
         -1   -1    0    0    0  501 -0.00000000000E+00 -0.00000000000E+00 -0.48220537950E+02  0.48220537950E+02  0.00000000000E+00 0.  1.
         23    2    1    2    0    0  0.22580951641E+03  0.48212400019E+01  0.62758863941E+03  0.67318311146E+03  0.91075897936E+02 0.  0.
          5    1    1    2  502    0 -0.17158938299E+03  0.48873634260E+02  0.38810052888E+03  0.42716629244E+03  0.41800000000E+01 0.  1.
         -5    1    1    2    0  502 -0.54220133416E+02 -0.53694874262E+02  0.24198811178E+03  0.25376895206E+03  0.41800000000E+01 0.  1.
        -11    1    3    3    0    0  0.55258528240E+02 -0.37848798326E+02  0.15043415614E+03  0.16467079830E+03  0.00000000000E+00 0. -1.
         11    1    3    3    0    0  0.17055098817E+03  0.42670038328E+02  0.47715448327E+03  0.50851231317E+03  0.00000000000E+00 0.  1.
</event>
<event>
 7    1  0.4687179E-006  0.8663470E+02  0.7561462E-02  0.1311212E+00
         -2   -1    0    0    0  501 -0.00000000000E+00  0.00000000000E+00  0.25551790482E+02  0.25551790482E+02  0.00000000000E+00 0.  1.
          2   -1    0    0  501    0  0.00000000000E+00 -0.00000000000E+00 -0.50350838352E+03  0.50350838352E+03  0.00000000000E+00 0. -1.
         23    2    1    2    0    0  0.33330480514E+02 -0.12207596025E+02 -0.21095822584E+03  0.23208295092E+03  0.89995426159E+02 0.  0.
          5    1    1    2  502    0 -0.62591227375E+02  0.24406727398E+02 -0.68928831578E+02  0.96343169500E+02  0.41800000000E+01 0.  1.
         -5    1    1    2    0  502  0.29260746861E+02 -0.12199131373E+02 -0.19806953562E+03  0.20063405357E+03  0.41800000000E+01 0.  1.
        -11    1    3    3    0    0  0.37889390254E+01 -0.35908469589E+02 -0.29247302247E+02  0.46466966071E+02  0.00000000000E+00 0.  1.
         11    1    3    3    0    0  0.29541541488E+02  0.23700873563E+02 -0.18171092359E+03  0.18561598485E+03  0.00000000000E+00 0. -1.
</event>
<event>
 7    1  0.4687179E-006  0.2567626E+03  0.7561462E-02  0.1109104E+00
         -2   -1    0    0    0  501 -0.00000000000E+00  0.00000000000E+00  0.13784871167E+03  0.13784871167E+03  0.00000000000E+00 0.  1.
          2   -1    0    0  501    0  0.00000000000E+00 -0.00000000000E+00 -0.52102427765E+03  0.52102427765E+03  0.00000000000E+00 0. -1.
         23    2    1    2    0    0 -0.20403848423E+03 -0.12412397585E+03 -0.15720855812E+03  0.30709705703E+03  0.11205180615E+03 0.  0.
          5    1    1    2  502    0  0.17972327080E+03  0.13661234981E+03 -0.15036555263E+03  0.27127598494E+03  0.41800000000E+01 0. -1.
         -5    1    1    2    0  502  0.24315213439E+02 -0.12488373962E+02 -0.75601455237E+02  0.80499947346E+02  0.41800000000E+01 0. -1.
        -11    1    3    3    0    0 -0.76681810175E+02 -0.10691233983E+03 -0.53795519738E+02  0.14214185296E+03  0.00000000000E+00 0.  1.
         11    1    3    3    0    0 -0.12735667406E+03 -0.17211636019E+02 -0.10341303838E+03  0.16495520407E+03  0.00000000000E+00 0. -1.
</event>
<event>
 7    1  0.4687179E-006  0.1672457E+03  0.7561462E-02  0.1180751E+00
         -2   -1    0    0    0  501 -0.00000000000E+00  0.00000000000E+00  0.28744298141E+03  0.28744298141E+03  0.00000000000E+00 0.  1.
          2   -1    0    0  501    0  0.00000000000E+00 -0.00000000000E+00 -0.12351559449E+03  0.12351559449E+03  0.00000000000E+00 0. -1.
         23    2    1    2    0    0  0.35156390725E+02 -0.15280937242E+03  0.91534973102E+02  0.19771911597E+03  0.78278486244E+02 0.  0.
          5    1    1    2  502    0 -0.27296788929E+02  0.57671655179E+02  0.95501905816E+02  0.11493137479E+03  0.41800000000E+01 0.  1.
         -5    1    1    2    0  502 -0.78596017960E+01  0.95137717244E+02 -0.23109491996E+02  0.98308085136E+02  0.41800000000E+01 0.  1.
        -11    1    3    3    0    0  0.34569976531E+01 -0.14119270132E+03  0.69551017202E+02  0.15743148901E+03  0.00000000000E+00 0.  1.
         11    1    3    3    0    0  0.31699393072E+02 -0.11616671104E+02  0.21983955900E+02  0.40287626955E+02  0.00000000000E+00 0. -1.
</event>
<event>
 7    1  0.4687179E-006  0.1063949E+03  0.7561462E-02  0.1267396E+00
          4   -1    0    0  501    0  0.00000000000E+00  0.00000000000E+00  0.16493461373E+02  0.16493461373E+02  0.00000000000E+00 0. -1.
         -4   -1    0    0    0  501 -0.00000000000E+00 -0.00000000000E+00 -0.12417526872E+04  0.12417526872E+04  0.00000000000E+00 0.  1.
         23    2    1    2    0    0 -0.11342690387E+02  0.87602892034E+02 -0.43383521652E+03  0.45214243770E+03  0.91743476942E+02 0.  0.
          5    1    1    2  502    0 -0.10585183287E+02 -0.76050424859E+02 -0.20196215807E+03  0.21610622138E+03  0.41800000000E+01 0. -1.
         -5    1    1    2    0  502  0.21927873674E+02 -0.11552467174E+02 -0.58946185122E+03  0.58999748947E+03  0.41800000000E+01 0. -1.
        -11    1    3    3    0    0 -0.39392075052E+02  0.56478092720E+02 -0.36592133721E+03  0.37234384050E+03  0.00000000000E+00 0.  1.
         11    1    3    3    0    0  0.28049384665E+02  0.31124799313E+02 -0.67913879310E+02  0.79798597202E+02  0.00000000000E+00 0. -1.
</event>
<event>
 7    1  0.4687179E-006  0.1202099E+03  0.7561462E-02  0.1242751E+00
          2   -1    0    0  501    0  0.00000000000E+00  0.00000000000E+00  0.12239418594E+04  0.12239418594E+04  0.00000000000E+00 0. -1.
         -2   -1    0    0    0  501 -0.00000000000E+00 -0.00000000000E+00 -0.12461479245E+02  0.12461479245E+02  0.00000000000E+00 0.  1.
         23    2    1    2    0    0 -0.58581705818E+02 -0.28437457954E+01  0.50548987957E+03  0.51702189758E+03  0.91387751315E+02 0.  0.
          5    1    1    2  502    0  0.96357015727E+02  0.14639534132E+02  0.46439020862E+03  0.47452579351E+03  0.41800000000E+01 0.  1.
         -5    1    1    2    0  502 -0.37775309908E+02 -0.11795788336E+02  0.24160029193E+03  0.24485564752E+03  0.41800000000E+01 0.  1.
        -11    1    3    3    0    0  0.10616036863E+02  0.26015817291E+02  0.75806193677E+02  0.80846162480E+02  0.00000000000E+00 0.  1.
         11    1    3    3    0    0 -0.69197742681E+02 -0.28859563086E+02  0.42968368589E+03  0.43617573510E+03  0.00000000000E+00 0. -1.
</event>
<event>
 7    1  0.4687179E-006  0.1745908E+03  0.7561462E-02  0.1173143E+00
          1   -1    0    0  501    0  0.00000000000E+00  0.00000000000E+00  0.94444630773E+03  0.94444630773E+03  0.00000000000E+00 0. -1.
         -1   -1    0    0    0  501 -0.00000000000E+00 -0.00000000000E+00 -0.33917251018E+02  0.33917251018E+02  0.00000000000E+00 0.  1.
         23    2    1    2    0    0 -0.14284297907E+02 -0.10144595006E+03  0.44255286359E+03  0.46462572852E+03  0.97615104237E+02 0.  0.
          5    1    1    2  502    0  0.80529854011E+02  0.11630333485E+03  0.27797234411E+03  0.31192566354E+03  0.41800000000E+01 0. -1.
         -5    1    1    2    0  502 -0.66245556104E+02 -0.14857384789E+02  0.19000384901E+03  0.20181216669E+03  0.41800000000E+01 0.  1.
        -11    1    3    3    0    0 -0.10507742303E+02 -0.12012359866E+03  0.40414982040E+03  0.42175486830E+03  0.00000000000E+00 0.  1.
         11    1    3    3    0    0 -0.37765556045E+01  0.18677648600E+02  0.38403043195E+02  0.42870860221E+02  0.00000000000E+00 0. -1.
</event>
<event>
 7    1  0.4687179E-006  0.1254762E+03  0.7561462E-02  0.1234327E+00
         -3   -1    0    0    0  501 -0.00000000000E+00  0.00000000000E+00  0.11118980231E+03  0.11118980231E+03  0.00000000000E+00 0.  1.
          3   -1    0    0  501    0  0.00000000000E+00 -0.00000000000E+00 -0.21958233345E+03  0.21958233345E+03  0.00000000000E+00 0. -1.
         23    2    1    2    0    0  0.85438465606E+02  0.52025866753E+02 -0.10402069228E+03  0.17054350017E+03  0.90875512715E+02 0.  0.
          5    1    1    2  502    0  0.15136363791E+02 -0.13963955525E+02 -0.41393083071E+02  0.46421560603E+02  0.41800000000E+01 0. -1.
         -5    1    1    2    0  502 -0.10057482940E+03 -0.38061911227E+02  0.37021244213E+02  0.11380707499E+03  0.41800000000E+01 0. -1.
        -11    1    3    3    0    0 -0.47895987124E+01 -0.11176585741E+02  0.70924824939E+01  0.14076918433E+02  0.00000000000E+00 0.  1.
         11    1    3    3    0    0  0.90228064318E+02  0.63202452494E+02 -0.11111317478E+03  0.15646658174E+03  0.00000000000E+00 0. -1.
</event>
<event>
 7    1  0.4687179E-006  0.1062517E+03  0.7561462E-02  0.1267673E+00
          1   -1    0    0  501    0  0.00000000000E+00  0.00000000000E+00  0.65888977489E+03  0.65888977489E+03  0.00000000000E+00 0. -1.
         -1   -1    0    0    0  501 -0.00000000000E+00 -0.00000000000E+00 -0.29409837974E+02  0.29409837974E+02  0.00000000000E+00 0.  1.
         23    2    1    2    0    0  0.49059198317E+02  0.39939624005E+02  0.41560602339E+03  0.43098006059E+03  0.94939282919E+02 0.  0.
          5    1    1    2  502    0  0.97852345574E+01  0.20809673965E+02  0.14853498494E+03  0.15036258676E+03  0.41800000000E+01 0. -1.
         -5    1    1    2    0  502 -0.58844432874E+02 -0.60749297971E+02  0.65338928590E+02  0.10695696552E+03  0.41800000000E+01 0.  1.
        -11    1    3    3    0    0 -0.12896570310E+02 -0.16294638178E+02  0.30613591881E+02  0.37000388741E+02  0.00000000000E+00 0.  1.
         11    1    3    3    0    0  0.61955768627E+02  0.56234262184E+02  0.38499243151E+03  0.39397967184E+03  0.00000000000E+00 0. -1.
</event>
<event>
 7    1  0.4687179E-006  0.1144949E+03  0.7561462E-02  0.1252465E+00
         -1   -1    0    0    0  501 -0.00000000000E+00  0.00000000000E+00  0.55221096702E+03  0.55221096702E+03  0.00000000000E+00 0.  1.
          1   -1    0    0  501    0  0.00000000000E+00 -0.00000000000E+00 -0.24171756699E+02  0.24171756699E+02  0.00000000000E+00 0. -1.
         23    2    1    2    0    0 -0.13357884343E+02  0.37034815910E+02  0.21311340792E+03  0.23524122604E+03  0.91493710878E+02 0.  0.
          5    1    1    2  502    0  0.14401041593E+02  0.45222319686E+02  0.13769650626E+03  0.14570603431E+03  0.41800000000E+01 0.  1.
         -5    1    1    2    0  502 -0.10431572502E+01 -0.82257135596E+02  0.17722929614E+03  0.19543546337E+03  0.41800000000E+01 0.  1.
        -11    1    3    3    0    0  0.29222763719E+02 -0.14089478439E+02  0.82711021402E+02  0.88845913712E+02  0.00000000000E+00 0. -1.
         11    1    3    3    0    0 -0.42580648062E+02  0.51124294349E+02  0.13040238651E+03  0.14639531233E+03  0.00000000000E+00 0.  1.
</event>
<event>
 7    1  0.4687179E-006  0.1060508E+03  0.7561462E-02  0.1268063E+00
         -3   -1    0    0    0  501 -0.00000000000E+00  0.00000000000E+00  0.50492023480E+02  0.50492023480E+02  0.00000000000E+00 0.  1.
          3   -1    0    0  501    0  0.00000000000E+00 -0.00000000000E+00 -0.25932455616E+03  0.25932455616E+03  0.00000000000E+00 0. -1.
         23    2    1    2    0    0  0.61925238906E+01 -0.34836081506E+02 -0.97802514041E+02  0.13885821434E+03  0.92002021778E+02 0.  0.
          5    1    1    2  502    0 -0.47885717547E+02  0.63174137237E+02 -0.69590131475E+02  0.10556643576E+03  0.41800000000E+01 0. -1.
         -5    1    1    2    0  502  0.41693193656E+02 -0.28338055731E+02 -0.41439887161E+02  0.65391929531E+02  0.41800000000E+01 0. -1.
        -11    1    3    3    0    0  0.40121950586E+02 -0.22711750432E+02 -0.14879719456E+02  0.48445852016E+02  0.00000000000E+00 0.  1.
         11    1    3    3    0    0 -0.33929426695E+02 -0.12124331074E+02 -0.82922794585E+02  0.90412362328E+02  0.00000000000E+00 0. -1.
</event>
<event>
 7    1  0.4687179E-006  0.1043025E+03  0.7561462E-02  0.1271500E+00
         -1   -1    0    0    0  501 -0.00000000000E+00  0.00000000000E+00  0.98098824829E+03  0.98098824829E+03  0.00000000000E+00 0.  1.
          1   -1    0    0  501    0  0.00000000000E+00 -0.00000000000E+00 -0.14616222367E+02  0.14616222367E+02  0.00000000000E+00 0. -1.
         23    2    1    2    0    0 -0.28976017387E+02 -0.31231435590E+02  0.28104276362E+03  0.29765047714E+03  0.88293597740E+02 0.  0.
          5    1    1    2  502    0  0.70220375517E+02  0.25483873125E+02  0.57684027471E+03  0.58167216183E+03  0.41800000000E+01 0.  1.
         -5    1    1    2    0  502 -0.41244358130E+02  0.57475624654E+01  0.10848898759E+03  0.11628183168E+03  0.41800000000E+01 0.  1.
        -11    1    3    3    0    0  0.16823794758E+02 -0.41689106746E+02  0.18946996221E+03  0.19473029623E+03  0.00000000000E+00 0.  1.
         11    1    3    3    0    0 -0.45799812145E+02  0.10457671156E+02  0.91572801417E+02  0.10292018091E+03  0.00000000000E+00 0. -1.
</event>
<event>
 7    1  0.4687179E-006  0.7805857E+02  0.7561462E-02  0.1334653E+00
          2   -1    0    0  501    0  0.00000000000E+00  0.00000000000E+00  0.11922903159E+03  0.11922903159E+03  0.00000000000E+00 0. -1.
         -2   -1    0    0    0  501 -0.00000000000E+00 -0.00000000000E+00 -0.13981818090E+03  0.13981818090E+03  0.00000000000E+00 0.  1.
         23    2    1    2    0    0  0.90826556773E+01 -0.66413099793E+02  0.11897300159E+02  0.11345798424E+03  0.90763285411E+02 0.  0.
          5    1    1    2  502    0 -0.23622395017E+02  0.20069564160E+02 -0.74775059711E+02  0.81052988265E+02  0.41800000000E+01 0.  1.
         -5    1    1    2    0  502  0.14539739339E+02  0.46343535633E+02  0.42288610248E+02  0.64536239987E+02  0.41800000000E+01 0.  1.
        -11    1    3    3    0    0 -0.12311245922E+02 -0.10353088002E+02 -0.34198428519E+02  0.37792667549E+02  0.00000000000E+00 0.  1.
         11    1    3    3    0    0  0.21393901599E+02 -0.56060011792E+02  0.46095728678E+02  0.75665316692E+02  0.00000000000E+00 0. -1.
</event>
<event>
 7    1  0.4687179E-006  0.1013494E+03  0.7561462E-02  0.1277484E+00
         -2   -1    0    0    0  501 -0.00000000000E+00  0.00000000000E+00  0.33643860728E+02  0.33643860728E+02  0.00000000000E+00 0. -1.
          2   -1    0    0  501    0  0.00000000000E+00 -0.00000000000E+00 -0.47398465916E+03  0.47398465916E+03  0.00000000000E+00 0.  1.
         23    2    1    2    0    0  0.36637234225E+02  0.53864891001E+02 -0.22037076206E+03  0.24632758525E+03  0.88714672239E+02 0.  0.
          5    1    1    2  502    0 -0.56304003763E+02 -0.51776371124E+02 -0.53096510674E+02  0.93207538817E+02  0.41800000000E+01 0. -1.
         -5    1    1    2    0  502  0.19666769538E+02 -0.20885198765E+01 -0.16687352570E+03  0.16809339582E+03  0.41800000000E+01 0. -1.
        -11    1    3    3    0    0  0.36575764712E+02  0.75684622533E+02 -0.19786829224E+03  0.21498327778E+03  0.00000000000E+00 0.  1.
         11    1    3    3    0    0  0.61469513343E-01 -0.21819731532E+02 -0.22502469819E+02  0.31344307467E+02  0.00000000000E+00 0. -1.
</event>
<event>
 7    1  0.4687179E-006  0.9920272E+02  0.7561462E-02  0.1281981E+00
          1   -1    0    0  501    0  0.00000000000E+00  0.00000000000E+00  0.26784998471E+03  0.26784998471E+03  0.00000000000E+00 0. -1.
         -1   -1    0    0    0  501 -0.00000000000E+00 -0.00000000000E+00 -0.44972880431E+02  0.44972880431E+02  0.00000000000E+00 0.  1.
         23    2    1    2    0    0 -0.10154604959E+02  0.21585565928E+01  0.10361200286E+03  0.13967808262E+03  0.93095350363E+02 0.  0.
          5    1    1    2  502    0  0.16719173251E+02  0.54726390592E+02  0.94635715310E+02  0.11067022903E+03  0.41800000000E+01 0.  1.
         -5    1    1    2    0  502 -0.65645682924E+01 -0.56884947185E+02  0.24629386100E+02  0.62474553482E+02  0.41800000000E+01 0.  1.
        -11    1    3    3    0    0 -0.46060568480E+02 -0.69236277024E+01  0.87835225853E+02  0.99421021368E+02  0.00000000000E+00 0. -1.
         11    1    3    3    0    0  0.35905963521E+02  0.90821842953E+01  0.15776777011E+02  0.40257061254E+02  0.00000000000E+00 0.  1.
</event>
<event>
 7    1  0.4687179E-006  0.1457808E+03  0.7561462E-02  0.1205755E+00
         -2   -1    0    0    0  501 -0.00000000000E+00  0.00000000000E+00  0.15266184564E+03  0.15266184564E+03  0.00000000000E+00 0.  1.
          2   -1    0    0  501    0  0.00000000000E+00 -0.00000000000E+00 -0.17798007950E+03  0.17798007950E+03  0.00000000000E+00 0. -1.
         23    2    1    2    0    0  0.92106589902E+02 -0.64141675591E+02 -0.70373498538E+02  0.15664626883E+03  0.83593335800E+02 0.  0.
          5    1    1    2  502    0  0.68858674754E+01  0.61454886504E+02 -0.64144379254E+01  0.62311601328E+02  0.41800000000E+01 0.  1.
         -5    1    1    2    0  502 -0.98992457378E+02  0.26867890863E+01  0.51469702602E+02  0.11168405499E+03  0.41800000000E+01 0.  1.
        -11    1    3    3    0    0  0.78957502520E+02 -0.78260150006E+02 -0.35341980990E+02  0.11665330644E+03  0.00000000000E+00 0.  1.
         11    1    3    3    0    0  0.13149087382E+02  0.14118474415E+02 -0.35031517548E+02  0.39992962388E+02  0.00000000000E+00 0. -1.
</event>
<event>
 7    1  0.4687179E-006  0.6211813E+02  0.7561462E-02  0.1389152E+00
          4   -1    0    0  501    0  0.00000000000E+00  0.00000000000E+00  0.12901777877E+03  0.12901777877E+03  0.00000000000E+00 0. -1.
         -4   -1    0    0    0  501 -0.00000000000E+00 -0.00000000000E+00 -0.99500047419E+02  0.99500047419E+02  0.00000000000E+00 0.  1.
         23    2    1    2    0    0 -0.11481721349E+02  0.24504578050E+02  0.45389918182E+02  0.10546005090E+03  0.91264853003E+02 0.  0.
          5    1    1    2  502    0 -0.42229110160E+01 -0.63603379786E+01  0.51077943041E+02  0.51814240725E+02  0.41800000000E+01 0. -1.
         -5    1    1    2    0  502  0.15704632365E+02 -0.18144240071E+02 -0.66950129876E+02  0.71243534555E+02  0.41800000000E+01 0.  1.
        -11    1    3    3    0    0  0.35745324656E+02  0.25546124679E+02  0.37090154448E+02  0.57497932814E+02  0.00000000000E+00 0. -1.
         11    1    3    3    0    0 -0.47227046005E+02 -0.10415466292E+01  0.82997637339E+01  0.47962118091E+02  0.00000000000E+00 0.  1.
</event>
<event>
 7    1  0.4687179E-006  0.1016247E+03  0.7561462E-02  0.1276916E+00
          2   -1    0    0  501    0  0.00000000000E+00  0.00000000000E+00  0.13522662334E+03  0.13522662334E+03  0.00000000000E+00 0. -1.
         -2   -1    0    0    0  501 -0.00000000000E+00 -0.00000000000E+00 -0.15371701599E+03  0.15371701599E+03  0.00000000000E+00 0.  1.
         23    2    1    2    0    0  0.44851922976E+02  0.74113633280E+02  0.31581242775E+02  0.12875887762E+03  0.89871842294E+02 0.  0.
          5    1    1    2  502    0  0.96075862934E+01  0.27953038870E+01  0.32847174235E+02  0.34590875870E+02  0.41800000000E+01 0. -1.
         -5    1    1    2    0  502 -0.54459509269E+02 -0.76908937167E+02 -0.82918809660E+02  0.12559388584E+03  0.41800000000E+01 0. -1.
        -11    1    3    3    0    0  0.83940980493E+00  0.45655263339E+02 -0.24648152849E+02  0.51890645768E+02  0.00000000000E+00 0.  1.
         11    1    3    3    0    0  0.44012513171E+02  0.28458369941E+02  0.56229395624E+02  0.76868231849E+02  0.00000000000E+00 0. -1.
</event>
<event>
 7    1  0.4687179E-006  0.1180252E+03  0.7561462E-02  0.1246391E+00
         -1   -1    0    0    0  501 -0.00000000000E+00  0.00000000000E+00  0.21576555593E+03  0.21576555593E+03  0.00000000000E+00 0.  1.
          1   -1    0    0  501    0  0.00000000000E+00 -0.00000000000E+00 -0.21748624566E+03  0.21748624566E+03  0.00000000000E+00 0. -1.
         23    2    1    2    0    0  0.22239910214E+02  0.12326704921E+02 -0.17890200277E+03  0.20109956302E+03  0.88252741548E+02 0.  0.
          5    1    1    2  502    0  0.62003168923E+02 -0.22165766045E+01  0.97741247088E+02  0.11584528454E+03  0.41800000000E+01 0. -1.
         -5    1    1    2    0  502 -0.84243079138E+02 -0.10110128316E+02  0.79440065953E+02  0.11630695403E+03  0.41800000000E+01 0.  1.
        -11    1    3    3    0    0 -0.60323279342E+01  0.45175409800E+02 -0.11673229038E+03  0.12531414225E+03  0.00000000000E+00 0. -1.
         11    1    3    3    0    0  0.28272238149E+02 -0.32848704879E+02 -0.62169712386E+02  0.75785420763E+02  0.00000000000E+00 0.  1.
</event>
<event>
 7    1  0.4687179E-006  0.1349354E+03  0.7561462E-02  0.1220311E+00
         -1   -1    0    0    0  501 -0.00000000000E+00  0.00000000000E+00  0.14741320148E+03  0.14741320148E+03  0.00000000000E+00 0.  1.
          1   -1    0    0  501    0  0.00000000000E+00 -0.00000000000E+00 -0.15559967874E+03  0.15559967874E+03  0.00000000000E+00 0. -1.
         23    2    1    2    0    0 -0.32130741560E+02  0.89561693755E+02 -0.48793775667E+02  0.14068600549E+03  0.91422306118E+02 0.  0.
          5    1    1    2  502    0 -0.46850133226E+02 -0.19426545685E+02  0.67937538688E+01  0.51341534377E+02  0.41800000000E+01 0. -1.
         -5    1    1    2    0  502  0.78980874786E+02 -0.70135148070E+02  0.33813544538E+02  0.11098534034E+03  0.41800000000E+01 0. -1.
        -11    1    3    3    0    0  0.14072506473E+02  0.51566554943E+02  0.12653686521E+02  0.54929598667E+02  0.00000000000E+00 0.  1.
         11    1    3    3    0    0 -0.46203248033E+02  0.37995138812E+02 -0.61447462188E+02  0.85756406825E+02  0.00000000000E+00 0. -1.
</event>
<event>
 7    1  0.4687179E-006  0.1014199E+03  0.7561462E-02  0.1277338E+00
         -1   -1    0    0    0  501 -0.00000000000E+00  0.00000000000E+00  0.20345725102E+03  0.20345725102E+03  0.00000000000E+00 0.  1.
          1   -1    0    0  501    0  0.00000000000E+00 -0.00000000000E+00 -0.77376917578E+02  0.77376917578E+02  0.00000000000E+00 0. -1.
         23    2    1    2    0    0  0.16872179402E+02  0.49217988004E+02  0.17269221629E+02  0.10707009162E+03  0.91971178764E+02 0.  0.
          5    1    1    2  502    0  0.25847734416E+02 -0.47604039537E+02  0.11793854634E+03  0.12985077230E+03  0.41800000000E+01 0. -1.
         -5    1    1    2    0  502 -0.42719913818E+02 -0.16139484668E+01 -0.91274345282E+01  0.43913304674E+02  0.41800000000E+01 0. -1.
        -11    1    3    3    0    0  0.55100586905E+02  0.30748185283E+02  0.78972175569E+01  0.63591600236E+02  0.00000000000E+00 0.  1.
         11    1    3    3    0    0 -0.38228407503E+02  0.18469802721E+02  0.93720040722E+01  0.43478491385E+02  0.00000000000E+00 0. -1.
</event>
<event>
 7    1  0.4687179E-006  0.1141864E+03  0.7561462E-02  0.1253008E+00
         -2   -1    0    0    0  501 -0.00000000000E+00  0.00000000000E+00  0.58211180408E+02  0.58211180408E+02  0.00000000000E+00 0.  1.
          2   -1    0    0  501    0  0.00000000000E+00 -0.00000000000E+00 -0.25146645073E+03  0.25146645073E+03  0.00000000000E+00 0. -1.
         23    2    1    2    0    0 -0.33516434705E+02 -0.41810724527E+02 -0.94045960853E+02  0.14127098149E+03  0.90781933102E+02 0.  0.
          5    1    1    2  502    0  0.11222227483E+02 -0.40432081361E+02 -0.62811098331E+02  0.75653143136E+02  0.41800000000E+01 0.  1.
         -5    1    1    2    0  502  0.22294207222E+02  0.82242805888E+02 -0.36398211138E+02  0.92753506511E+02  0.41800000000E+01 0.  1.
        -11    1    3    3    0    0 -0.24659145029E+02  0.24045389597E+02 -0.13849467790E+02  0.37122256834E+02  0.00000000000E+00 0.  1.
         11    1    3    3    0    0 -0.88572896758E+01 -0.65856114124E+02 -0.80196493064E+02  0.10414872466E+03  0.00000000000E+00 0. -1.
</event>
<event>
 7    1  0.4687179E-006  0.3027870E+03  0.7561462E-02  0.1083856E+00
          2   -1    0    0  501    0  0.00000000000E+00  0.00000000000E+00  0.10651419048E+04  0.10651419048E+04  0.00000000000E+00 0. -1.
         -2   -1    0    0    0  501 -0.00000000000E+00 -0.00000000000E+00 -0.93707717420E+02  0.93707717420E+02  0.00000000000E+00 0.  1.
         23    2    1    2    0    0  0.11148190464E+03 -0.27146348796E+03  0.39595513912E+03  0.50086466278E+03  0.89242914937E+02 0.  0.
          5    1    1    2  502    0 -0.39792492342E+02  0.17143954375E+03  0.44510639944E+03  0.47865659802E+03  0.41800000000E+01 0. -1.
         -5    1    1    2    0  502 -0.71689412302E+02  0.10002394421E+03  0.13037264886E+03  0.17932836146E+03  0.41800000000E+01 0. -1.
        -11    1    3    3    0    0  0.89549491179E+01 -0.13704963326E+03  0.18922240267E+03  0.23381169937E+03  0.00000000000E+00 0.  1.
         11    1    3    3    0    0  0.10252695553E+03 -0.13441385470E+03  0.20673273645E+03  0.26705296341E+03  0.00000000000E+00 0. -1.
</event>
<event>
 7    1  0.4687179E-006  0.1109459E+03  0.7561462E-02  0.1258828E+00
         -1   -1    0    0    0  501 -0.00000000000E+00  0.00000000000E+00  0.12834817597E+03  0.12834817597E+03  0.00000000000E+00 0.  1.
          1   -1    0    0  501    0  0.00000000000E+00 -0.00000000000E+00 -0.15976606778E+03  0.15976606778E+03  0.00000000000E+00 0. -1.
         23    2    1    2    0    0  0.27771613562E+02  0.82128167281E+02 -0.48618518673E+02  0.13495004976E+03  0.91276816292E+02 0.  0.
          5    1    1    2  502    0 -0.63609572270E+02 -0.26822231589E+02 -0.26407336839E+02  0.74029923887E+02  0.41800000000E+01 0. -1.
         -5    1    1    2    0  502  0.35837958707E+02 -0.55305935692E+02  0.43607963704E+02  0.79134270108E+02  0.41800000000E+01 0. -1.
        -11    1    3    3    0    0  0.23754592697E+02  0.70604504043E+02  0.99217216119E+01  0.75151295565E+02  0.00000000000E+00 0.  1.
         11    1    3    3    0    0  0.40170208647E+01  0.11523663238E+02 -0.58540240285E+02  0.59798754198E+02  0.00000000000E+00 0. -1.
</event>
<event>
 7    1  0.5641997E-006  0.1115022E+03  0.7561462E-02  0.1257813E+00
          2   -1    0    0  501    0  0.00000000000E+00  0.00000000000E+00  0.75051033563E+03  0.75051033563E+03  0.00000000000E+00 0.  1.
         -2   -1    0    0    0  501 -0.00000000000E+00 -0.00000000000E+00 -0.22258927514E+02  0.22258927514E+02  0.00000000000E+00 0. -1.
         23    2    1    2    0    0  0.50019510812E+02 -0.37481434120E+02  0.41596685042E+03  0.43060526122E+03  0.92117647481E+02 0.  0.
          5    1    1    2  502    0 -0.75673819228E+02  0.44575901773E+02  0.12427885828E+03  0.15223746238E+03  0.41800000000E+01 0.  1.
         -5    1    1    2    0  502  0.25654308416E+02 -0.70944676535E+01  0.18800569941E+03  0.18992653954E+03  0.41800000000E+01 0.  1.
        -11    1    3    3    0    0 -0.17568659440E+02 -0.36535469048E+02  0.20849582002E+03  0.21240057735E+03  0.00000000000E+00 0.  1.
         11    1    3    3    0    0  0.67588170252E+02 -0.94596507221E+00  0.20747103041E+03  0.21820468388E+03  0.00000000000E+00 0. -1.
</event>
<event>
 7    1  0.4687179E-006  0.1349375E+03  0.7561462E-02  0.1220308E+00
         -2   -1    0    0    0  501 -0.00000000000E+00  0.00000000000E+00  0.20166733251E+02  0.20166733251E+02  0.00000000000E+00 0. -1.
          2   -1    0    0  501    0  0.00000000000E+00 -0.00000000000E+00 -0.13058222716E+04  0.13058222716E+04  0.00000000000E+00 0.  1.
         23    2    1    2    0    0  0.81133773143E+02  0.88341794145E+02 -0.64749290571E+03  0.66471278689E+03  0.90603887235E+02 0.  0.
          5    1    1    2  502    0 -0.42948918161E+02 -0.24837501626E+02 -0.51556467079E+03  0.51796323540E+03  0.41800000000E+01 0. -1.
         -5    1    1    2    0  502 -0.38184854983E+02 -0.63504292519E+02 -0.12259796183E+03  0.14331298254E+03  0.41800000000E+01 0. -1.
        -11    1    3    3    0    0  0.16484728830E+02  0.78814526433E+02 -0.27557496181E+03  0.28709760612E+03  0.00000000000E+00 0. -1.
         11    1    3    3    0    0  0.64649044314E+02  0.95272677119E+01 -0.37191794389E+03  0.37761518077E+03  0.00000000000E+00 0.  1.
</event>
<event>
 7    1  0.4687179E-006  0.1264764E+03  0.7561462E-02  0.1232780E+00
         -1   -1    0    0    0  501 -0.00000000000E+00  0.00000000000E+00  0.13120760910E+03  0.13120760910E+03  0.00000000000E+00 0.  1.
          1   -1    0    0  501    0  0.00000000000E+00 -0.00000000000E+00 -0.17281679518E+03  0.17281679518E+03  0.00000000000E+00 0. -1.
         23    2    1    2    0    0  0.28171942599E+02 -0.85988103372E+02 -0.65453026198E+02  0.14781121753E+03  0.96832045920E+02 0.  0.
          5    1    1    2  502    0  0.28680202052E+02  0.72089835140E+02  0.49550846051E+02  0.92153443042E+02  0.41800000000E+01 0.  1.
         -5    1    1    2    0  502 -0.56852144651E+02  0.13898268232E+02 -0.25707005931E+02  0.64059743718E+02  0.41800000000E+01 0.  1.
        -11    1    3    3    0    0 -0.18715258512E+02 -0.60255465171E+02 -0.69872822609E+02  0.94144534220E+02  0.00000000000E+00 0. -1.
         11    1    3    3    0    0  0.46887201111E+02 -0.25732638201E+02  0.44197964117E+01  0.53666683307E+02  0.00000000000E+00 0.  1.
</event>
<event>
 7    1  0.4687179E-006  0.1076107E+03  0.7561462E-02  0.1265059E+00
          3   -1    0    0  501    0  0.00000000000E+00  0.00000000000E+00  0.72265283405E+02  0.72265283405E+02  0.00000000000E+00 0. -1.
         -3   -1    0    0    0  501 -0.00000000000E+00 -0.00000000000E+00 -0.22171295162E+03  0.22171295162E+03  0.00000000000E+00 0.  1.
         23    2    1    2    0    0  0.39038856339E+01 -0.29724229153E+02 -0.76143131481E+00  0.97371851578E+02  0.92638693753E+02 0.  0.
          5    1    1    2  502    0  0.35268932992E+02 -0.31535983405E+02 -0.26579785050E+02  0.54427688331E+02  0.41800000000E+01 0.  1.
         -5    1    1    2    0  502 -0.39172818626E+02  0.61260212559E+02 -0.12210645185E+03  0.14217869512E+03  0.41800000000E+01 0.  1.
        -11    1    3    3    0    0 -0.39766643675E+02 -0.32173774129E+02  0.10472340294E+02  0.52213097994E+02  0.00000000000E+00 0.  1.
         11    1    3    3    0    0  0.43670529309E+02  0.24495449754E+01 -0.11233771609E+02  0.45158753584E+02  0.00000000000E+00 0. -1.
</event>
<event>
 7    1  0.4687179E-006  0.3022188E+03  0.7561462E-02  0.1084137E+00
         -1   -1    0    0    0  501 -0.00000000000E+00  0.00000000000E+00  0.25956394670E+03  0.25956394670E+03  0.00000000000E+00 0.  1.
          1   -1    0    0  501    0  0.00000000000E+00 -0.00000000000E+00 -0.36950833464E+03  0.36950833464E+03  0.00000000000E+00 0. -1.
         23    2    1    2    0    0 -0.20858387819E+03  0.19554430407E+03 -0.10098413069E+03  0.31686005795E+03  0.91965714126E+02 0.  0.
          5    1    1    2  502    0  0.13224934254E+03 -0.53041073326E+02  0.30445638214E+02  0.14576574820E+03  0.41800000000E+01 0. -1.
         -5    1    1    2    0  502  0.76334535651E+02 -0.14250323074E+03 -0.39405895457E+02  0.16644647519E+03  0.41800000000E+01 0. -1.
        -11    1    3    3    0    0 -0.14833475836E+03  0.18796955863E+03 -0.76302056946E+02  0.25131207573E+03  0.00000000000E+00 0.  1.
         11    1    3    3    0    0 -0.60249119831E+02  0.75747454343E+01 -0.24682073748E+02  0.65547982221E+02  0.00000000000E+00 0. -1.
</event>
<event>
 7    1  0.4687179E-006  0.1191012E+03  0.7561462E-02  0.1244587E+00
          2   -1    0    0  501    0  0.00000000000E+00  0.00000000000E+00  0.80848344772E+03  0.80848344772E+03  0.00000000000E+00 0. -1.
         -2   -1    0    0    0  501 -0.00000000000E+00 -0.00000000000E+00 -0.22155571746E+02  0.22155571746E+02  0.00000000000E+00 0.  1.
         23    2    1    2    0    0  0.52603947914E+02  0.35322444702E+02  0.48728821448E+03  0.50036081757E+03  0.94320164086E+02 0.  0.
          5    1    1    2  502    0 -0.83074517023E+02 -0.52106436462E+02  0.16737914469E+03  0.19403532301E+03  0.41800000000E+01 0. -1.
         -5    1    1    2    0  502  0.30470569110E+02  0.16783991760E+02  0.13166051681E+03  0.13624287889E+03  0.41800000000E+01 0. -1.
        -11    1    3    3    0    0 -0.21524773605E+02 -0.27130870774E+01  0.41245404459E+02  0.46603219945E+02  0.00000000000E+00 0.  1.
         11    1    3    3    0    0  0.74128721519E+02  0.38035531780E+02  0.44604281002E+03  0.45375759762E+03  0.00000000000E+00 0. -1.
</event>
<event>
 7    1  0.4687179E-006  0.1385026E+03  0.7561462E-02  0.1215358E+00
         -1   -1    0    0    0  501 -0.00000000000E+00  0.00000000000E+00  0.68909338772E+02  0.68909338772E+02  0.00000000000E+00 0.  1.
          1   -1    0    0  501    0  0.00000000000E+00 -0.00000000000E+00 -0.36338076428E+03  0.36338076428E+03  0.00000000000E+00 0. -1.
         23    2    1    2    0    0 -0.72656590856E+02  0.37680478706E+02 -0.23272256865E+03  0.26405732556E+03  0.94168352164E+02 0.  0.
          5    1    1    2  502    0  0.64682904934E+02 -0.85376439674E+02 -0.50061090897E+02  0.11830722659E+03  0.41800000000E+01 0. -1.
         -5    1    1    2    0  502  0.79736859217E+01  0.47695960968E+02 -0.11687765957E+02  0.49925550902E+02  0.41800000000E+01 0.  1.
        -11    1    3    3    0    0 -0.73449094152E+01 -0.27821118112E+02 -0.31924673396E+02  0.42978449003E+02  0.00000000000E+00 0. -1.
         11    1    3    3    0    0 -0.65311681441E+02  0.65501596818E+02 -0.20079789526E+03  0.22107887656E+03  0.00000000000E+00 0.  1.
</event>
<event>
 7    1  0.4687179E-006  0.1572565E+03  0.7561462E-02  0.1191829E+00
          1   -1    0    0  501    0  0.00000000000E+00  0.00000000000E+00  0.14606793687E+03  0.14606793687E+03  0.00000000000E+00 0. -1.
         -1   -1    0    0    0  501 -0.00000000000E+00 -0.00000000000E+00 -0.24631421007E+03  0.24631421007E+03  0.00000000000E+00 0.  1.
         23    2    1    2    0    0  0.12514178860E+03  0.57868437134E+02  0.26231564200E+02  0.16731733238E+03  0.91092104401E+02 0.  0.
          5    1    1    2  502    0 -0.33392181312E+02 -0.71750312695E+02 -0.10169385402E+03  0.12892733414E+03  0.41800000000E+01 0. -1.
         -5    1    1    2    0  502 -0.91749607292E+02  0.13881875561E+02 -0.24783983383E+02  0.96137480410E+02  0.41800000000E+01 0. -1.
        -11    1    3    3    0    0  0.75945489232E+02  0.15637743474E+02  0.56325639717E+02  0.95837539854E+02  0.00000000000E+00 0.  1.
         11    1    3    3    0    0  0.49196299372E+02  0.42230693659E+02 -0.30094075518E+02  0.71479792530E+02  0.00000000000E+00 0. -1.
</event>
<event>
 7    1  0.4687179E-006  0.7739276E+02  0.7561462E-02  0.1336618E+00
         -2   -1    0    0    0  501 -0.00000000000E+00  0.00000000000E+00  0.11879160147E+03  0.11879160147E+03  0.00000000000E+00 0.  1.
          2   -1    0    0  501    0  0.00000000000E+00 -0.00000000000E+00 -0.13991473091E+03  0.13991473091E+03  0.00000000000E+00 0. -1.
         23    2    1    2    0    0  0.41513503581E+02 -0.36195241815E+02 -0.50975810979E+02  0.11880650717E+03  0.92103128782E+02 0.  0.
          5    1    1    2  502    0 -0.13851068065E+02  0.15661325699E+02 -0.49169460235E+02  0.53593259175E+02  0.41800000000E+01 0. -1.
         -5    1    1    2    0  502 -0.27662435516E+02  0.20533916115E+02  0.79022141774E+02  0.86306566032E+02  0.41800000000E+01 0. -1.
        -11    1    3    3    0    0 -0.18272156960E+02  0.12091529833E+02 -0.33443651494E+02  0.39981928905E+02  0.00000000000E+00 0. -1.
         11    1    3    3    0    0  0.59785660542E+02 -0.48286771647E+02 -0.17532159485E+02  0.78824578266E+02  0.00000000000E+00 0.  1.
</event>
<event>
 7    1  0.4687179E-006  0.2385900E+03  0.7561462E-02  0.1120736E+00
         -1   -1    0    0    0  501 -0.00000000000E+00  0.00000000000E+00  0.77219811556E+03  0.77219811556E+03  0.00000000000E+00 0.  1.
          1   -1    0    0  501    0  0.00000000000E+00 -0.00000000000E+00 -0.82784694161E+02  0.82784694161E+02  0.00000000000E+00 0. -1.
         23    2    1    2    0    0 -0.24190030852E+02 -0.21970975763E+03  0.24027569592E+03  0.33900836410E+03  0.91305671740E+02 0.  0.
          5    1    1    2  502    0 -0.31454023285E+02  0.12670170042E+03  0.15627117774E+03  0.20366843119E+03  0.41800000000E+01 0. -1.
         -5    1    1    2    0  502  0.55644054137E+02  0.93008057207E+02  0.29286654774E+03  0.31230601443E+03  0.41800000000E+01 0. -1.
        -11    1    3    3    0    0 -0.57121331913E+02 -0.11620798633E+03  0.11476570985E+03  0.17302690775E+03  0.00000000000E+00 0. -1.
         11    1    3    3    0    0  0.32931301061E+02 -0.10350177129E+03  0.12550998606E+03  0.16598145635E+03  0.00000000000E+00 0.  1.
</event>
<event>
 7    1  0.4687179E-006  0.9664254E+02  0.7561462E-02  0.1287519E+00
          2   -1    0    0  501    0  0.00000000000E+00  0.00000000000E+00  0.44327743944E+03  0.44327743944E+03  0.00000000000E+00 0. -1.
         -2   -1    0    0    0  501 -0.00000000000E+00 -0.00000000000E+00 -0.32493976161E+02  0.32493976161E+02  0.00000000000E+00 0.  1.
         23    2    1    2    0    0  0.15959122797E+02 -0.21925692681E+02  0.26473186153E+03  0.28157092092E+03  0.91998888031E+02 0.  0.
          5    1    1    2  502    0 -0.53281846334E+02  0.27309558276E+02  0.14422689516E+03  0.15621663423E+03  0.41800000000E+01 0.  1.
         -5    1    1    2    0  502  0.37322723537E+02 -0.53838655947E+01  0.18247065931E+01  0.37983860456E+02  0.41800000000E+01 0.  1.
        -11    1    3    3    0    0 -0.36529728880E+02 -0.22371253370E+02  0.10366033821E+03  0.11216220302E+03  0.00000000000E+00 0.  1.
         11    1    3    3    0    0  0.52488851677E+02  0.44556068941E+00  0.16107152332E+03  0.16940871790E+03  0.00000000000E+00 0. -1.
</event>
<event>
 7    1  0.4687179E-006  0.1567864E+03  0.7561462E-02  0.1192373E+00
          1   -1    0    0  501    0  0.00000000000E+00  0.00000000000E+00  0.54646324214E+02  0.54646324214E+02  0.00000000000E+00 0. -1.
         -1   -1    0    0    0  501 -0.00000000000E+00 -0.00000000000E+00 -0.52718143177E+03  0.52718143177E+03  0.00000000000E+00 0.  1.
         23    2    1    2    0    0  0.77460772759E+02 -0.10769721317E+03 -0.26218839810E+03  0.30345342656E+03  0.75778393703E+02 0.  0.
          5    1    1    2  502    0 -0.30713474850E+02  0.11538097185E+03 -0.19446733630E+03  0.22823475522E+03  0.41800000000E+01 0.  1.
         -5    1    1    2    0  502 -0.46747297909E+02 -0.76837586821E+01 -0.15879373152E+02  0.50139574200E+02  0.41800000000E+01 0.  1.
        -11    1    3    3    0    0  0.42478859478E+02 -0.11244716103E+02 -0.12243403047E+03  0.13008070172E+03  0.00000000000E+00 0.  1.
         11    1    3    3    0    0  0.34981913281E+02 -0.96452497066E+02 -0.13975436763E+03  0.17337272484E+03  0.00000000000E+00 0. -1.
</event>
<event>
 7    1  0.4687179E-006  0.1668632E+03  0.7561462E-02  0.1181159E+00
          2   -1    0    0  501    0  0.00000000000E+00  0.00000000000E+00  0.59208704776E+03  0.59208704776E+03  0.00000000000E+00 0. -1.
         -2   -1    0    0    0  501 -0.00000000000E+00 -0.00000000000E+00 -0.75898682688E+02  0.75898682688E+02  0.00000000000E+00 0.  1.
         23    2    1    2    0    0  0.11485329867E+03 -0.11627270729E+03  0.37380915821E+03  0.41772562429E+03  0.89726182081E+02 0.  0.
          5    1    1    2  502    0 -0.93292270443E+02  0.11097180003E+03  0.47332180582E+02  0.15256472674E+03  0.41800000000E+01 0.  1.
         -5    1    1    2    0  502 -0.21561028222E+02  0.53009072649E+01  0.95047026281E+02  0.97695379424E+02  0.41800000000E+01 0.  1.
        -11    1    3    3    0    0  0.92234857182E+02 -0.74384937236E+02  0.16245764434E+03  0.20107927286E+03  0.00000000000E+00 0. -1.
         11    1    3    3    0    0  0.22618441483E+02 -0.41887770057E+02  0.21135151387E+03  0.21664635143E+03  0.00000000000E+00 0.  1.
</event>
<event>
 7    1  0.4687179E-006  0.1279105E+03  0.7561462E-02  0.1230589E+00
         -2   -1    0    0    0  501 -0.00000000000E+00  0.00000000000E+00  0.66655045082E+02  0.66655045082E+02  0.00000000000E+00 0.  1.
          2   -1    0    0  501    0  0.00000000000E+00 -0.00000000000E+00 -0.33872348377E+03  0.33872348377E+03  0.00000000000E+00 0. -1.
         23    2    1    2    0    0  0.38213702995E+02 -0.65218745644E+02 -0.22496978601E+03  0.25182030415E+03  0.84191977555E+02 0.  0.
          5    1    1    2  502    0  0.28522270274E+02  0.72799864485E+02 -0.18606379841E+02  0.80479872897E+02  0.41800000000E+01 0.  1.
         -5    1    1    2    0  502 -0.66735973269E+02 -0.75811188414E+01 -0.28492272837E+02  0.73078351805E+02  0.41800000000E+01 0.  1.
        -11    1    3    3    0    0  0.52335467098E+02 -0.10066356019E+02 -0.13736710668E+03  0.14734332234E+03  0.00000000000E+00 0. -1.
         11    1    3    3    0    0 -0.14121764103E+02 -0.55152389625E+02 -0.87602679326E+02  0.10447698181E+03  0.00000000000E+00 0.  1.
</event>
<event>
 7    1  0.4687179E-006  0.1376289E+03  0.7561462E-02  0.1216556E+00
          3   -1    0    0  501    0  0.00000000000E+00  0.00000000000E+00  0.81972133386E+03  0.81972133386E+03  0.00000000000E+00 0. -1.
         -3   -1    0    0    0  501 -0.00000000000E+00 -0.00000000000E+00 -0.33315013346E+02  0.33315013346E+02  0.00000000000E+00 0.  1.
         23    2    1    2    0    0  0.62599807962E+02 -0.85654940378E+02  0.53515406327E+03  0.55298551201E+03  0.90264058688E+02 0.  0.
          5    1    1    2  502    0 -0.96170574391E+02  0.59932639945E+02  0.21929625105E+03  0.24687855078E+03  0.41800000000E+01 0.  1.
         -5    1    1    2    0  502  0.33570766429E+02  0.25722300433E+02  0.31956006188E+02  0.53172284413E+02  0.41800000000E+01 0.  1.
        -11    1    3    3    0    0 -0.10220605932E+02 -0.12478784442E+02  0.12979606214E+02  0.20703889109E+02  0.00000000000E+00 0.  1.
         11    1    3    3    0    0  0.72820413894E+02 -0.73176155937E+02  0.52217445706E+03  0.53228162290E+03  0.00000000000E+00 0. -1.
</event>
<event>
 7    1  0.4687179E-006  0.7619939E+02  0.7561462E-02  0.1340197E+00
          1   -1    0    0  501    0  0.00000000000E+00  0.00000000000E+00  0.16853794651E+02  0.16853794651E+02  0.00000000000E+00 0. -1.
         -1   -1    0    0    0  501 -0.00000000000E+00 -0.00000000000E+00 -0.87793866347E+03  0.87793866347E+03  0.00000000000E+00 0.  1.
         23    2    1    2    0    0 -0.50459547828E+02 -0.10982475858E+02 -0.30885798433E+03  0.32622604708E+03  0.91451618729E+02 0.  0.
          5    1    1    2  502    0  0.53310150789E+02  0.13268501491E+02 -0.55790862830E+03  0.56062245339E+03  0.41800000000E+01 0.  1.
         -5    1    1    2    0  502 -0.28506029610E+01 -0.22860256330E+01  0.56817438115E+01  0.79439576519E+01  0.41800000000E+01 0.  1.
        -11    1    3    3    0    0 -0.49483204072E+02  0.25217474463E+02 -0.25727113241E+03  0.26319753813E+03  0.00000000000E+00 0.  1.
         11    1    3    3    0    0 -0.97634375616E+00 -0.36199950321E+02 -0.51586851915E+02  0.63028508954E+02  0.00000000000E+00 0. -1.
</event>
<event>
 7    1  0.4687179E-006  0.1120501E+03  0.7561462E-02  0.1256820E+00
         -2   -1    0    0    0  501 -0.00000000000E+00  0.00000000000E+00  0.54571618136E+02  0.54571618136E+02  0.00000000000E+00 0.  1.
          2   -1    0    0  501    0  0.00000000000E+00 -0.00000000000E+00 -0.30675518696E+03  0.30675518696E+03  0.00000000000E+00 0. -1.
         23    2    1    2    0    0  0.49084105218E+02  0.37218829336E+02 -0.15773267463E+03  0.19291434952E+03  0.92422177865E+02 0.  0.
          5    1    1    2  502    0 -0.30263717553E+02  0.35484458031E+02  0.10650510459E+01  0.46836375774E+02  0.41800000000E+01 0. -1.
         -5    1    1    2    0  502 -0.18820387665E+02 -0.72703287367E+02 -0.95515945237E+02  0.12157607980E+03  0.41800000000E+01 0. -1.
        -11    1    3    3    0    0 -0.13156399039E+02 -0.15615018412E+02 -0.71690417081E+01  0.21640582125E+02  0.00000000000E+00 0.  1.
         11    1    3    3    0    0  0.62240504258E+02  0.52833847748E+02 -0.15056363292E+03  0.17127376739E+03  0.00000000000E+00 0. -1.
</event>
<event>
 7    1  0.4687179E-006  0.1029495E+03  0.7561462E-02  0.1274213E+00
          1   -1    0    0  501    0  0.00000000000E+00  0.00000000000E+00  0.89937660189E+02  0.89937660189E+02  0.00000000000E+00 0. -1.
         -1   -1    0    0    0  501 -0.00000000000E+00 -0.00000000000E+00 -0.18569686252E+03  0.18569686252E+03  0.00000000000E+00 0.  1.
         23    2    1    2    0    0 -0.59315178187E+02 -0.21957775963E+02 -0.75017073923E+02  0.13393611598E+03  0.91164069106E+02 0.  0.
          5    1    1    2  502    0 -0.72473977621E+01 -0.43557571436E+02  0.52484878832E+01  0.44663249197E+02  0.41800000000E+01 0.  1.
         -5    1    1    2    0  502  0.66562575949E+02  0.65515347399E+02 -0.25990616294E+02  0.97035157531E+02  0.41800000000E+01 0.  1.
        -11    1    3    3    0    0 -0.54479579266E+02 -0.10313647161E+02 -0.95181672279E+02  0.11015419471E+03  0.00000000000E+00 0.  1.
         11    1    3    3    0    0 -0.48355989210E+01 -0.11644128802E+02  0.20164598356E+02  0.23781921271E+02  0.00000000000E+00 0. -1.
</event>
<event>
 7    1  0.4687179E-006  0.5503920E+02  0.7561462E-02  0.1419914E+00
         -1   -1    0    0    0  501 -0.00000000000E+00  0.00000000000E+00  0.13093734994E+04  0.13093734994E+04  0.00000000000E+00 0.  1.
          1   -1    0    0  501    0  0.00000000000E+00 -0.00000000000E+00 -0.13694909191E+03  0.13694909191E+03  0.00000000000E+00 0. -1.
         23    2    1    2    0    0  0.26541489985E+02  0.18337194850E+02 -0.11582626894E+03  0.15093456254E+03  0.91240419697E+02 0.  0.
          5    1    1    2  502    0 -0.80211417556E+01 -0.99497635901E+01  0.94880845007E+01  0.16456994199E+02  0.41800000000E+01 0. -1.
         -5    1    1    2    0  502 -0.18520348229E+02 -0.83874312599E+01  0.12787625920E+04  0.12789310346E+04  0.41800000000E+01 0.  1.
        -11    1    3    3    0    0  0.40145557773E+02  0.35765408308E+02 -0.28499908218E+02  0.60852896470E+02  0.00000000000E+00 0.  1.
         11    1    3    3    0    0 -0.13604067788E+02 -0.17428213458E+02 -0.87326360722E+02  0.90081666068E+02  0.00000000000E+00 0. -1.
</event>
<event>
 7    1  0.4687179E-006  0.1226368E+03  0.7561462E-02  0.1238809E+00
         -2   -1    0    0    0  501 -0.00000000000E+00  0.00000000000E+00  0.70736397577E+02  0.70736397577E+02  0.00000000000E+00 0.  1.
          2   -1    0    0  501    0  0.00000000000E+00 -0.00000000000E+00 -0.25739287700E+03  0.25739287700E+03  0.00000000000E+00 0. -1.
         23    2    1    2    0    0  0.33884531483E+01 -0.79472829581E+02 -0.70921928484E+02  0.14006275811E+03  0.90885884559E+02 0.  0.
          5    1    1    2  502    0  0.46048520222E+02 -0.43019816813E+01 -0.17138443917E+02  0.49499211316E+02  0.41800000000E+01 0.  1.
         -5    1    1    2    0  502 -0.49436973370E+02  0.83774811263E+02 -0.98596107027E+02  0.13856730516E+03  0.41800000000E+01 0.  1.
        -11    1    3    3    0    0 -0.28804967783E+02 -0.24727802585E+02  0.79633674158E+01  0.38789246065E+02  0.00000000000E+00 0.  1.
         11    1    3    3    0    0  0.32193420932E+02 -0.54745026997E+02 -0.78885295899E+02  0.10127351204E+03  0.00000000000E+00 0. -1.
</event>
<event>
 7    1  0.4687179E-006  0.7042381E+02  0.7561462E-02  0.1358658E+00
         -2   -1    0    0    0  501 -0.00000000000E+00  0.00000000000E+00  0.74047117719E+02  0.74047117719E+02  0.00000000000E+00 0.  1.
          2   -1    0    0  501    0  0.00000000000E+00 -0.00000000000E+00 -0.22957130600E+03  0.22957130600E+03  0.00000000000E+00 0. -1.
         23    2    1    2    0    0  0.22995588082E+00 -0.12791976150E+01 -0.15195277460E+03  0.17847032554E+03  0.93596592683E+02 0.  0.
          5    1    1    2  502    0  0.23547976554E+02  0.23760071636E+02 -0.54727552166E+02  0.64277722190E+02  0.41800000000E+01 0.  1.
         -5    1    1    2    0  502 -0.23777932435E+02 -0.22480874021E+02  0.51156138490E+02  0.60870375987E+02  0.41800000000E+01 0.  1.
        -11    1    3    3    0    0  0.30899030912E+02 -0.21292790607E+02 -0.22093490380E+02  0.43546014287E+02  0.00000000000E+00 0.  1.
         11    1    3    3    0    0 -0.30669075031E+02  0.20013592992E+02 -0.12985928422E+03  0.13492431125E+03  0.00000000000E+00 0. -1.
</event>
<event>
 7    1  0.4687179E-006  0.1356227E+03  0.7561462E-02  0.1219343E+00
         -2   -1    0    0    0  501 -0.00000000000E+00  0.00000000000E+00  0.31434221599E+02  0.31434221599E+02  0.00000000000E+00 0. -1.
          2   -1    0    0  501    0  0.00000000000E+00 -0.00000000000E+00 -0.83528417099E+03  0.83528417099E+03  0.00000000000E+00 0.  1.
         23    2    1    2    0    0 -0.91919535760E+02 -0.71174845179E+02 -0.46068433228E+03  0.48340942912E+03  0.89104222761E+02 0.  0.
          5    1    1    2  502    0  0.31652228601E+02 -0.61547462727E+01 -0.71958929557E+01  0.33301617867E+02  0.41800000000E+01 0.  1.
         -5    1    1    2    0  502  0.60267307159E+02  0.77329591451E+02 -0.33596972415E+03  0.35000734560E+03  0.41800000000E+01 0.  1.
        -11    1    3    3    0    0 -0.82739259858E+02 -0.15505867932E+02 -0.20571344403E+03  0.22227064160E+03  0.00000000000E+00 0.  1.
         11    1    3    3    0    0 -0.91802759029E+01 -0.55668977246E+02 -0.25497088825E+03  0.26113878752E+03  0.00000000000E+00 0. -1.
</event>
<event>
 7    1  0.1087703E-005  0.2537468E+03  0.7561462E-02  0.1110960E+00
          1   -1    0    0  501    0  0.00000000000E+00  0.00000000000E+00  0.15850388744E+04  0.15850388744E+04  0.00000000000E+00 0. -1.
         -1   -1    0    0    0  501 -0.00000000000E+00 -0.00000000000E+00 -0.45825978272E+02  0.45825978272E+02  0.00000000000E+00 0.  1.
         23    2    1    2    0    0  0.14302093933E+03 -0.20036180602E+03  0.70908839235E+03  0.75601980978E+03  0.90331402106E+02 0.  0.
          5    1    1    2  502    0 -0.13368798152E+03  0.14788367657E+03  0.46674544830E+03  0.50755378445E+03  0.41800000000E+01 0. -1.
         -5    1    1    2    0  502 -0.93329578099E+01  0.52478129456E+02  0.36337905547E+03  0.36729125844E+03  0.41800000000E+01 0. -1.
        -11    1    3    3    0    0  0.88885757429E+02 -0.68913292242E+02  0.22585497672E+03  0.25230971093E+03  0.00000000000E+00 0.  1.
         11    1    3    3    0    0  0.54135181905E+02 -0.13144851378E+03  0.48323341564E+03  0.50371009885E+03  0.00000000000E+00 0. -1.
</event>
<event>
 7    1  0.4687179E-006  0.8885655E+02  0.7561462E-02  0.1305645E+00
          1   -1    0    0  501    0  0.00000000000E+00  0.00000000000E+00  0.55856950484E+03  0.55856950484E+03  0.00000000000E+00 0. -1.
         -1   -1    0    0    0  501 -0.00000000000E+00 -0.00000000000E+00 -0.35047225411E+02  0.35047225411E+02  0.00000000000E+00 0.  1.
         23    2    1    2    0    0  0.11007466628E+02 -0.78624629887E+02  0.30660970191E+03  0.33093414010E+03  0.95942165058E+02 0.  0.
          5    1    1    2  502    0 -0.41516254673E+01  0.68475076038E+01  0.18242094159E+03  0.18264445430E+03  0.41800000000E+01 0.  1.
         -5    1    1    2    0  502 -0.68558411608E+01  0.71777122284E+02  0.34491635933E+02  0.80038135852E+02  0.41800000000E+01 0.  1.
        -11    1    3    3    0    0 -0.20489597529E+02 -0.49431558395E+02  0.59095410294E+02  0.79721829445E+02  0.00000000000E+00 0.  1.
         11    1    3    3    0    0  0.31497064157E+02 -0.29193071493E+02  0.24751429161E+03  0.25121231066E+03  0.00000000000E+00 0. -1.
</event>
<event>
 7    1  0.4687179E-006  0.1353422E+03  0.7561462E-02  0.1219737E+00
          1   -1    0    0  501    0  0.00000000000E+00  0.00000000000E+00  0.99873692285E+02  0.99873692285E+02  0.00000000000E+00 0. -1.
         -1   -1    0    0    0  501 -0.00000000000E+00 -0.00000000000E+00 -0.23149186170E+03  0.23149186170E+03  0.00000000000E+00 0.  1.
         23    2    1    2    0    0 -0.92512218128E+02  0.10561489856E+02 -0.37442320806E+01  0.12970146119E+03  0.90213048887E+02 0.  0.
          5    1    1    2  502    0 -0.27784045806E+02  0.40021642487E+00 -0.36384989760E+01  0.28334156937E+02  0.41800000000E+01 0.  1.
         -5    1    1    2    0  502  0.12029626393E+03 -0.10961706281E+02 -0.12423543836E+03  0.17332993586E+03  0.41800000000E+01 0.  1.
        -11    1    3    3    0    0  0.21481771689E+01  0.25756278163E+02 -0.19716971921E+02  0.32507837696E+02  0.00000000000E+00 0.  1.
         11    1    3    3    0    0 -0.94660395296E+02 -0.15194788307E+02  0.15972739840E+02  0.97193623491E+02  0.00000000000E+00 0. -1.
</event>
<event>
 7    1  0.4687179E-006  0.6959954E+02  0.7561462E-02  0.1361460E+00
         -2   -1    0    0    0  501 -0.00000000000E+00  0.00000000000E+00  0.18597736651E+02  0.18597736651E+02  0.00000000000E+00 0.  1.
          2   -1    0    0  501    0  0.00000000000E+00 -0.00000000000E+00 -0.68839834366E+03  0.68839834366E+03  0.00000000000E+00 0. -1.
         23    2    1    2    0    0 -0.93352988949E+01  0.36311135432E+02 -0.35938776495E+03  0.37023432392E+03  0.80673680062E+02 0.  0.
          5    1    1    2  502    0  0.20245071538E+02 -0.13696659490E+02 -0.31031826847E+03  0.31130750320E+03  0.41800000000E+01 0. -1.
         -5    1    1    2    0  502 -0.10909772643E+02 -0.22614475943E+02 -0.94573594504E-01  0.25454253190E+02  0.41800000000E+01 0. -1.
        -11    1    3    3    0    0  0.33388187609E+02  0.80884157532E+00 -0.13190341143E+03  0.13606592242E+03  0.00000000000E+00 0. -1.
         11    1    3    3    0    0 -0.42723486504E+02  0.35502293857E+02 -0.22748435352E+03  0.23416840150E+03  0.00000000000E+00 0.  1.
</event>
<event>
 7    1  0.4687179E-006  0.1861151E+03  0.7561462E-02  0.1162013E+00
         -1   -1    0    0    0  501 -0.00000000000E+00  0.00000000000E+00  0.80992416021E+02  0.80992416021E+02  0.00000000000E+00 0.  1.
          1   -1    0    0  501    0  0.00000000000E+00 -0.00000000000E+00 -0.57904397396E+03  0.57904397396E+03  0.00000000000E+00 0. -1.
         23    2    1    2    0    0 -0.82540805350E+02  0.16070296078E+03 -0.16651870489E+03  0.26229235305E+03  0.91817063997E+02 0.  0.
          5    1    1    2  502    0 -0.88428488012E+01 -0.28154973471E+02 -0.15882307626E+03  0.16159560779E+03  0.41800000000E+01 0. -1.
         -5    1    1    2    0  502  0.91383654151E+02 -0.13254798730E+03 -0.17270977679E+03  0.23614842914E+03  0.41800000000E+01 0. -1.
        -11    1    3    3    0    0 -0.66035260629E+02  0.14080664248E+03 -0.85980923119E+02  0.17770730248E+03  0.00000000000E+00 0.  1.
         11    1    3    3    0    0 -0.16505544721E+02  0.19896318296E+02 -0.80537781772E+02  0.84585050577E+02  0.00000000000E+00 0. -1.
</event>
<event>
 7    1  0.4687179E-006  0.9414080E+02  0.7561462E-02  0.1293123E+00
         -2   -1    0    0    0  501 -0.00000000000E+00  0.00000000000E+00  0.21645518903E+02  0.21645518903E+02  0.00000000000E+00 0.  1.
          2   -1    0    0  501    0  0.00000000000E+00 -0.00000000000E+00 -0.71196863920E+03  0.71196863920E+03  0.00000000000E+00 0. -1.
         23    2    1    2    0    0 -0.29439459112E+02 -0.24339732855E+02 -0.43631281797E+03  0.44790845851E+03  0.93776370850E+02 0.  0.
          5    1    1    2  502    0  0.39241779180E+01 -0.28812470878E+02 -0.20991968093E+03  0.21196533323E+03  0.41800000000E+01 0.  1.
         -5    1    1    2    0  502  0.25515281194E+02  0.53152203733E+02 -0.44090621397E+02  0.73740366362E+02  0.41800000000E+01 0.  1.
        -11    1    3    3    0    0 -0.60245830119E+02  0.46200275034E+00 -0.22500558882E+03  0.23293193962E+03  0.00000000000E+00 0.  1.
         11    1    3    3    0    0  0.30806371007E+02 -0.24801735605E+02 -0.21130722915E+03  0.21497651889E+03  0.00000000000E+00 0. -1.
</event>
<event>
 7    1  0.4687179E-006  0.1143384E+03  0.7561462E-02  0.1252740E+00
         -1   -1    0    0    0  501 -0.00000000000E+00  0.00000000000E+00  0.33914833099E+03  0.33914833099E+03  0.00000000000E+00 0.  1.
          1   -1    0    0  501    0  0.00000000000E+00 -0.00000000000E+00 -0.45591202305E+02  0.45591202305E+02  0.00000000000E+00 0. -1.
         23    2    1    2    0    0 -0.28149811378E+02  0.75482425398E+01  0.69029339556E+02  0.12606835743E+03  0.10138438332E+03 0.  0.
          5    1    1    2  502    0  0.47110313395E+02  0.48216671940E+02  0.14143884616E+03  0.15673751524E+03  0.41800000000E+01 0. -1.
         -5    1    1    2    0  502 -0.18960502017E+02 -0.55764914480E+02  0.83088942970E+02  0.10193366062E+03  0.41800000000E+01 0. -1.
        -11    1    3    3    0    0  0.14139221244E+02  0.44025643484E+02  0.15659463416E+02  0.48820012864E+02  0.00000000000E+00 0. -1.
         11    1    3    3    0    0 -0.42289032622E+02 -0.36477400944E+02  0.53369876141E+02  0.77248344571E+02  0.00000000000E+00 0.  1.
</event>
<event>
 7    1  0.4687179E-006  0.9365041E+02  0.7561462E-02  0.1294245E+00
         -3   -1    0    0    0  501 -0.00000000000E+00  0.00000000000E+00  0.58255744558E+02  0.58255744558E+02  0.00000000000E+00 0.  1.
          3   -1    0    0  501    0  0.00000000000E+00 -0.00000000000E+00 -0.37972287231E+03  0.37972287231E+03  0.00000000000E+00 0. -1.
         23    2    1    2    0    0 -0.13163616688E+02 -0.74718798232E+02 -0.24518523740E+03  0.27297723392E+03  0.92976287234E+02 0.  0.
          5    1    1    2  502    0 -0.25987223890E+02  0.31862123858E+02 -0.95218397513E+02  0.10380051236E+03  0.41800000000E+01 0.  1.
         -5    1    1    2    0  502  0.39150840578E+02  0.42856674374E+02  0.18936507161E+02  0.61200870581E+02  0.41800000000E+01 0.  1.
        -11    1    3    3    0    0  0.16193699492E+02 -0.33040779572E+02 -0.19574368737E+02  0.41678350849E+02  0.00000000000E+00 0.  1.
         11    1    3    3    0    0 -0.29357316181E+02 -0.41678018659E+02 -0.22561086866E+03  0.23129888307E+03  0.00000000000E+00 0. -1.
</event>
<event>
 7    1  0.4687179E-006  0.9713552E+02  0.7561462E-02  0.1286438E+00
         -1   -1    0    0    0  501 -0.00000000000E+00  0.00000000000E+00  0.20568697005E+02  0.20568697005E+02  0.00000000000E+00 0.  1.
          1   -1    0    0  501    0  0.00000000000E+00 -0.00000000000E+00 -0.80145536487E+03  0.80145536487E+03  0.00000000000E+00 0. -1.
         23    2    1    2    0    0 -0.56991906491E+02 -0.19034591080E+02 -0.44912289824E+03  0.46240460486E+03  0.92175093251E+02 0.  0.
          5    1    1    2  502    0  0.57118307318E+02 -0.96741093180E+01 -0.32457426270E+03  0.32973021370E+03  0.41800000000E+01 0.  1.
         -5    1    1    2    0  502 -0.12640082736E+00  0.28708700398E+02 -0.71895069322E+01  0.29889243310E+02  0.41800000000E+01 0.  1.
        -11    1    3    3    0    0 -0.44132567543E+02 -0.54106090965E+02 -0.33908720634E+03  0.34620122198E+03  0.00000000000E+00 0. -1.
         11    1    3    3    0    0 -0.12859338948E+02  0.35071499885E+02 -0.11003569189E+03  0.11620338288E+03  0.00000000000E+00 0.  1.
</event>
<event>
 7    1  0.4687179E-006  0.1111166E+03  0.7561462E-02  0.1258516E+00
         -1   -1    0    0    0  501 -0.00000000000E+00  0.00000000000E+00  0.30478000255E+03  0.30478000255E+03  0.00000000000E+00 0.  1.
          1   -1    0    0  501    0  0.00000000000E+00 -0.00000000000E+00 -0.61839446375E+02  0.61839446375E+02  0.00000000000E+00 0. -1.
         23    2    1    2    0    0  0.34107985647E+02 -0.68486536157E+02  0.63753007505E+02  0.13508154203E+03  0.91262351007E+02 0.  0.
          5    1    1    2  502    0 -0.27656910804E+02  0.86681009587E+02  0.56310183035E+02  0.10708319780E+03  0.41800000000E+01 0.  1.
         -5    1    1    2    0  502 -0.64510748428E+01 -0.18194473430E+02  0.12287736564E+03  0.12445470909E+03  0.41800000000E+01 0.  1.
        -11    1    3    3    0    0  0.26412687983E+02  0.13077667476E+02  0.40181117183E+02  0.49831492565E+02  0.00000000000E+00 0.  1.
         11    1    3    3    0    0  0.76952976640E+01 -0.81564203632E+02  0.23571890321E+02  0.85250049464E+02  0.00000000000E+00 0. -1.
</event>
<event>
 7    1  0.4687179E-006  0.1244622E+03  0.7561462E-02  0.1235912E+00
         -1   -1    0    0    0  501 -0.00000000000E+00  0.00000000000E+00  0.89540810907E+02  0.89540810907E+02  0.00000000000E+00 0.  1.
          1   -1    0    0  501    0  0.00000000000E+00 -0.00000000000E+00 -0.27667138812E+03  0.27667138812E+03  0.00000000000E+00 0. -1.
         23    2    1    2    0    0  0.32491912028E+02  0.65655438848E+02 -0.18818994133E+03  0.22124013010E+03  0.90362493056E+02 0.  0.
          5    1    1    2  502    0  0.27855729622E+02 -0.67657130994E+02 -0.27204302227E+02  0.78172728664E+02  0.41800000000E+01 0. -1.
         -5    1    1    2    0  502 -0.60347641651E+02  0.20016921458E+01  0.28263666345E+02  0.66799340262E+02  0.41800000000E+01 0. -1.
        -11    1    3    3    0    0  0.63064720828E+02  0.51502576676E+02 -0.14683571135E+03  0.16789997185E+03  0.00000000000E+00 0. -1.
         11    1    3    3    0    0 -0.30572808800E+02  0.14152862172E+02 -0.41354229980E+02  0.53340158256E+02  0.00000000000E+00 0.  1.
</event>
<event>
 7    1  0.4687179E-006  0.9806718E+02  0.7561462E-02  0.1284414E+00
         -1   -1    0    0    0  501 -0.00000000000E+00  0.00000000000E+00  0.11889342719E+03  0.11889342719E+03  0.00000000000E+00 0.  1.
          1   -1    0    0  501    0  0.00000000000E+00 -0.00000000000E+00 -0.11219069427E+03  0.11219069427E+03  0.00000000000E+00 0. -1.
         23    2    1    2    0    0  0.23612423765E+01  0.17715647340E+02 -0.38542060306E+02  0.96874591643E+02  0.87061911690E+02 0.  0.
          5    1    1    2  502    0 -0.54310347465E+02 -0.26075511993E+02  0.53627694354E+02  0.80764770594E+02  0.41800000000E+01 0.  1.
         -5    1    1    2    0  502  0.51949105088E+02  0.83598646527E+01 -0.83829011293E+01  0.53444759217E+02  0.41800000000E+01 0.  1.
        -11    1    3    3    0    0 -0.38815639823E+02  0.15269657712E+02 -0.36741967983E+02  0.55585866484E+02  0.00000000000E+00 0. -1.
         11    1    3    3    0    0  0.41176882200E+02  0.24459896285E+01 -0.18000923234E+01  0.41288725160E+02  0.00000000000E+00 0.  1.
</event>
<event>
 7    1  0.4687179E-006  0.1082629E+03  0.7561462E-02  0.1263821E+00
          1   -1    0    0  501    0  0.00000000000E+00  0.00000000000E+00  0.18354080368E+03  0.18354080368E+03  0.00000000000E+00 0. -1.
         -1   -1    0    0    0  501 -0.00000000000E+00 -0.00000000000E+00 -0.10207856735E+03  0.10207856735E+03  0.00000000000E+00 0.  1.
         23    2    1    2    0    0  0.18042940738E+02  0.71536373938E+02  0.75430993442E+02  0.14028124490E+03  0.92444536850E+02 0.  0.
          5    1    1    2  502    0 -0.42639999508E+01  0.32163139567E+02  0.22014846674E+02  0.39430636775E+02  0.41800000000E+01 0.  1.
         -5    1    1    2    0  502 -0.13778940787E+02 -0.10369951350E+03 -0.15983603792E+02  0.10590748935E+03  0.41800000000E+01 0.  1.
        -11    1    3    3    0    0 -0.33131786686E+01  0.44696647183E+02 -0.11970647744E+02  0.46390341987E+02  0.00000000000E+00 0. -1.
         11    1    3    3    0    0  0.21356119407E+02  0.26839726755E+02  0.87401641186E+02  0.93890902916E+02  0.00000000000E+00 0.  1.
</event>
<event>
 7    1  0.4687179E-006  0.1262472E+03  0.7561462E-02  0.1233133E+00
         -1   -1    0    0    0  501 -0.00000000000E+00  0.00000000000E+00  0.47934141047E+02  0.47934141047E+02  0.00000000000E+00 0.  1.
          1   -1    0    0  501    0  0.00000000000E+00 -0.00000000000E+00 -0.71975122268E+03  0.71975122268E+03  0.00000000000E+00 0. -1.
         23    2    1    2    0    0 -0.22081574381E+02 -0.66032847432E+02 -0.59376630914E+03  0.60461601684E+03  0.90300415711E+02 0.  0.
          5    1    1    2  502    0 -0.34565228381E+02 -0.16558679221E+02 -0.40797476855E+02  0.56132445059E+02  0.41800000000E+01 0. -1.
         -5    1    1    2    0  502  0.56646802762E+02  0.82591526653E+02 -0.37253295640E+02  0.10693690183E+03  0.41800000000E+01 0. -1.
        -11    1    3    3    0    0 -0.26802286101E+02  0.16210626316E+02 -0.18471461243E+03  0.18735163461E+03  0.00000000000E+00 0. -1.
         11    1    3    3    0    0  0.47207117199E+01 -0.82243473747E+02 -0.40905169671E+03  0.41726438223E+03  0.00000000000E+00 0.  1.
</event>
<event>
 7    1  0.4687179E-006  0.1039251E+03  0.7561462E-02  0.1272252E+00
          1   -1    0    0  501    0  0.00000000000E+00  0.00000000000E+00  0.29703047544E+03  0.29703047544E+03  0.00000000000E+00 0. -1.
         -1   -1    0    0    0  501 -0.00000000000E+00 -0.00000000000E+00 -0.43046026611E+02  0.43046026611E+02  0.00000000000E+00 0.  1.
         23    2    1    2    0    0  0.17575298989E+02  0.25521169933E+02  0.12594507855E+03  0.15841437674E+03  0.90954552919E+02 0.  0.
          5    1    1    2  502    0  0.14647425273E+02  0.43320733457E+02  0.21458345548E+02  0.50686941199E+02  0.41800000000E+01 0.  1.
         -5    1    1    2    0  502 -0.32222724262E+02 -0.68841903390E+02  0.10658102472E+03  0.13097518411E+03  0.41800000000E+01 0.  1.
        -11    1    3    3    0    0  0.33233231412E+02  0.48017103847E+02  0.11485347662E+03  0.12884646298E+03  0.00000000000E+00 0. -1.
         11    1    3    3    0    0 -0.15657932423E+02 -0.22495933914E+02  0.11091601935E+02  0.29567913756E+02  0.00000000000E+00 0.  1.
</event>
<event>
 7    1  0.4687179E-006  0.2366948E+03  0.7561462E-02  0.1122014E+00
          1   -1    0    0  501    0  0.00000000000E+00  0.00000000000E+00  0.30964445785E+03  0.30964445785E+03  0.00000000000E+00 0. -1.
         -1   -1    0    0    0  501 -0.00000000000E+00 -0.00000000000E+00 -0.19558998058E+03  0.19558998058E+03  0.00000000000E+00 0.  1.
         23    2    1    2    0    0  0.11162685648E+03 -0.18918265502E+03  0.76098947545E+02  0.24962201371E+03  0.90936614522E+02 0.  0.
          5    1    1    2  502    0 -0.40795076800E+02  0.84106543365E+01 -0.28177382524E+02  0.50462012281E+02  0.41800000000E+01 0.  1.
         -5    1    1    2    0  502 -0.70831779682E+02  0.18077200068E+03  0.66132912240E+02  0.20515041244E+03  0.41800000000E+01 0.  1.
        -11    1    3    3    0    0  0.12538366231E+03 -0.14834018337E+03  0.56533506081E+02  0.20229164611E+03  0.00000000000E+00 0.  1.
         11    1    3    3    0    0 -0.13756805828E+02 -0.40842471645E+02  0.19565441465E+02  0.47330367592E+02  0.00000000000E+00 0. -1.
</event>
<event>
 7    1  0.4687179E-006  0.1895921E+03  0.7561462E-02  0.1158830E+00
          1   -1    0    0  501    0  0.00000000000E+00  0.00000000000E+00  0.11367855499E+04  0.11367855499E+04  0.00000000000E+00 0. -1.
         -1   -1    0    0    0  501 -0.00000000000E+00 -0.00000000000E+00 -0.34396288148E+02  0.34396288148E+02  0.00000000000E+00 0.  1.
         23    2    1    2    0    0 -0.86458310637E+02  0.74022883643E+02  0.53839541125E+03  0.55780129191E+03  0.91204361822E+02 0.  0.
          5    1    1    2  502    0  0.11373974595E+03 -0.13007364834E+03  0.46749058975E+03  0.49841830595E+03  0.41800000000E+01 0. -1.
         -5    1    1    2    0  502 -0.27281435309E+02  0.56050764693E+02  0.96503260762E+02  0.11496224021E+03  0.41800000000E+01 0.  1.
        -11    1    3    3    0    0  0.18201460451E+02  0.15802023055E+02  0.60433112028E+02  0.65062724540E+02  0.00000000000E+00 0. -1.
         11    1    3    3    0    0 -0.10465977109E+03  0.58220860588E+02  0.47796229923E+03  0.49273856737E+03  0.00000000000E+00 0.  1.
</event>
<event>
 7    1  0.4687179E-006  0.1585354E+03  0.7561462E-02  0.1190360E+00
          1   -1    0    0  501    0  0.00000000000E+00  0.00000000000E+00  0.69188551677E+03  0.69188551677E+03  0.00000000000E+00 0. -1.
         -1   -1    0    0    0  501 -0.00000000000E+00 -0.00000000000E+00 -0.58181881249E+02  0.58181881249E+02  0.00000000000E+00 0.  1.
         23    2    1    2    0    0 -0.10513729054E+03  0.48030009885E+02  0.51782847592E+03  0.53867127881E+03  0.93057425444E+02 0.  0.
          5    1    1    2  502    0 -0.19932750143E+02 -0.46325640531E+02  0.44095933567E+02  0.67121555822E+02  0.41800000000E+01 0. -1.
         -5    1    1    2    0  502  0.12507004068E+03 -0.17043693539E+01  0.71779226031E+02  0.14427456338E+03  0.41800000000E+01 0.  1.
        -11    1    3    3    0    0 -0.46848603309E+02 -0.20680853992E+02  0.27360798856E+03  0.27835915785E+03  0.00000000000E+00 0. -1.
         11    1    3    3    0    0 -0.58288687226E+02  0.68710863878E+02  0.24422048736E+03  0.26031212096E+03  0.00000000000E+00 0.  1.
</event>
<event>
 7    1  0.4687179E-006  0.1051517E+03  0.7561462E-02  0.1269821E+00
         -4   -1    0    0    0  501 -0.00000000000E+00  0.00000000000E+00  0.50086019926E+02  0.50086019926E+02  0.00000000000E+00 0.  1.
          4   -1    0    0  501    0  0.00000000000E+00 -0.00000000000E+00 -0.32915458352E+03  0.32915458352E+03  0.00000000000E+00 0. -1.
         23    2    1    2    0    0 -0.40403601933E+02  0.26890245784E+02 -0.19738859823E+03  0.22215146495E+03  0.89629673098E+02 0.  0.
          5    1    1    2  502    0  0.79132659149E+02 -0.14358600589E+01 -0.23656256825E+02  0.82711125763E+02  0.41800000000E+01 0. -1.
         -5    1    1    2    0  502 -0.38729057216E+02 -0.25454385725E+02 -0.58023708533E+02  0.74378012728E+02  0.41800000000E+01 0. -1.
        -11    1    3    3    0    0  0.18489251501E+02  0.16358459668E+02 -0.12196720414E+02  0.27535642586E+02  0.00000000000E+00 0.  1.
         11    1    3    3    0    0 -0.58892853434E+02  0.10531786116E+02 -0.18519187782E+03  0.19461582236E+03  0.00000000000E+00 0. -1.
</event>
<event>
 7    1  0.4687179E-006  0.1051513E+03  0.7561462E-02  0.1269822E+00
         -4   -1    0    0    0  501 -0.00000000000E+00  0.00000000000E+00  0.68228736361E+03  0.68228736361E+03  0.00000000000E+00 0.  1.
          4   -1    0    0  501    0  0.00000000000E+00 -0.00000000000E+00 -0.25719586968E+02  0.25719586968E+02  0.00000000000E+00 0. -1.
         23    2    1    2    0    0 -0.35027777501E+02 -0.52584403358E+02  0.17849498270E+03  0.20981710529E+03  0.90391892047E+02 0.  0.
          5    1    1    2  502    0 -0.32281548341E+02  0.20099805460E+02  0.46694610940E+02  0.60365218741E+02  0.41800000000E+01 0.  1.
         -5    1    1    2    0  502  0.67309325841E+02  0.32484597898E+02  0.43137818300E+03  0.43782462655E+03  0.41800000000E+01 0.  1.
        -11    1    3    3    0    0  0.23341729770E+02 -0.13921972121E+02  0.10438771105E+03  0.10786775178E+03  0.00000000000E+00 0.  1.
         11    1    3    3    0    0 -0.58369507271E+02 -0.38662431237E+02  0.74107271655E+02  0.10194935351E+03  0.00000000000E+00 0. -1.
</event>
<event>
 6    1  0.5510242E-006  0.3048067E+02  0.7561462E-02  0.1592835E+00
         -4   -1    0    0    0  501 -0.00000000000E+00  0.00000000000E+00  0.79069725742E+02  0.79069725742E+02  0.00000000000E+00 0.  1.
          4   -1    0    0  501    0  0.00000000000E+00 -0.00000000000E+00 -0.92442248085E+02  0.92442248085E+02  0.00000000000E+00 0. -1.
          5    1    1    2  502    0  0.18628598126E+01  0.17168956774E+02 -0.64202452313E+02  0.66615843508E+02  0.41800000000E+01 0. -1.
         -5    1    1    2    0  502 -0.10203998373E+02 -0.94206453327E+01  0.69245799460E+02  0.70748309408E+02  0.41800000000E+01 0.  1.
        -11    1    1    2    0    0  0.13432479945E+02  0.54862406552E+01 -0.81517604396E+01  0.16642762759E+02  0.00000000000E+00 0. -1.
         11    1    1    2    0    0 -0.50913413847E+01 -0.13234552096E+02 -0.10264109050E+02  0.17505058151E+02  0.00000000000E+00 0.  1.
</event>
<event>
 7    1  0.4687179E-006  0.6662789E+02  0.7561462E-02  0.1371951E+00
          1   -1    0    0  501    0  0.00000000000E+00  0.00000000000E+00  0.81004460804E+02  0.81004460804E+02  0.00000000000E+00 0.  1.
         -1   -1    0    0    0  501 -0.00000000000E+00 -0.00000000000E+00 -0.33609291104E+03  0.33609291104E+03  0.00000000000E+00 0. -1.
         23    2    1    2    0    0  0.45751385834E+02  0.22570373007E+01  0.28864368346E+02  0.10344865019E+03  0.88148669551E+02 0.  0.
          5    1    1    2  502    0 -0.92893633035E+01  0.19174986039E+01  0.11738092858E+02  0.15659639058E+02  0.41800000000E+01 0.  1.
         -5    1    1    2    0  502 -0.36462022530E+02 -0.41745359046E+01 -0.29569091144E+03  0.29798908259E+03  0.41800000000E+01 0.  1.
        -11    1    3    3    0    0  0.81481570661E+01  0.35095690074E+02  0.38363270033E+02  0.52629273347E+02  0.00000000000E+00 0.  1.
         11    1    3    3    0    0  0.37603228768E+02 -0.32838652774E+02 -0.94989016871E+01  0.50819376846E+02  0.00000000000E+00 0. -1.
</event>
<event>
 7    1  0.4687179E-006  0.1089371E+03  0.7561462E-02  0.1262551E+00
         -1   -1    0    0    0  501 -0.00000000000E+00  0.00000000000E+00  0.13402221506E+03  0.13402221506E+03  0.00000000000E+00 0.  1.
          1   -1    0    0  501    0  0.00000000000E+00 -0.00000000000E+00 -0.24716399526E+03  0.24716399526E+03  0.00000000000E+00 0. -1.
         23    2    1    2    0    0 -0.34122395558E+02  0.20107971311E+02 -0.20462002534E+03  0.22871225856E+03  0.94187441072E+02 0.  0.
          5    1    1    2  502    0  0.73392407550E+02 -0.36491632756E+01  0.34675674836E+02  0.81361149844E+02  0.41800000000E+01 0. -1.
         -5    1    1    2    0  502 -0.39270011992E+02 -0.16458808035E+02  0.56802570300E+02  0.71112801917E+02  0.41800000000E+01 0.  1.
        -11    1    3    3    0    0  0.23258239126E+02 -0.20652081115E+02 -0.51012707023E+02  0.59747388390E+02  0.00000000000E+00 0.  1.
         11    1    3    3    0    0 -0.57380634684E+02  0.40760052425E+02 -0.15360731832E+03  0.16896487017E+03  0.00000000000E+00 0. -1.
</event>
<event>
 7    1  0.4687179E-006  0.1269047E+03  0.7561462E-02  0.1232122E+00
          2   -1    0    0  501    0  0.00000000000E+00  0.00000000000E+00  0.71505433940E+03  0.71505433940E+03  0.00000000000E+00 0. -1.
         -2   -1    0    0    0  501 -0.00000000000E+00 -0.00000000000E+00 -0.27868279481E+02  0.27868279481E+02  0.00000000000E+00 0.  1.
         23    2    1    2    0    0  0.75340265835E+02 -0.52929722828E+02  0.28232778328E+03  0.30929166357E+03  0.86456027705E+02 0.  0.
          5    1    1    2  502    0 -0.10283014223E+03  0.41104947780E+02  0.37546085366E+03  0.39147411142E+03  0.41800000000E+01 0. -1.
         -5    1    1    2    0  502  0.27489876391E+02  0.11824775049E+02  0.29397422975E+02  0.42156843887E+02  0.41800000000E+01 0. -1.
        -11    1    3    3    0    0 -0.10527975132E+02  0.21672128526E+01  0.19446509874E+01  0.10923220193E+02  0.00000000000E+00 0.  1.
         11    1    3    3    0    0  0.85868240967E+02 -0.55096935681E+02  0.28038313229E+03  0.29836844337E+03  0.00000000000E+00 0. -1.
</event>
<event>
 7    1  0.4687179E-006  0.1894096E+03  0.7561462E-02  0.1158995E+00
          2   -1    0    0  501    0  0.00000000000E+00  0.00000000000E+00  0.32874710567E+03  0.32874710567E+03  0.00000000000E+00 0. -1.
         -2   -1    0    0    0  501 -0.00000000000E+00 -0.00000000000E+00 -0.12045663982E+03  0.12045663982E+03  0.00000000000E+00 0.  1.
         23    2    1    2    0    0 -0.14504105140E+03 -0.77393246466E+02  0.74538868727E+02  0.20310022340E+03  0.93096920484E+02 0.  0.
          5    1    1    2  502    0  0.58978547072E+02 -0.26940745407E+02  0.73147077880E+02  0.97837825917E+02  0.41800000000E+01 0. -1.
         -5    1    1    2    0  502  0.86062504325E+02  0.10433399187E+03  0.60604519236E+02  0.14826569618E+03  0.41800000000E+01 0. -1.
        -11    1    3    3    0    0 -0.12062713540E+03 -0.28601518269E+02  0.19308802943E+02  0.12546626046E+03  0.00000000000E+00 0.  1.
         11    1    3    3    0    0 -0.24413915994E+02 -0.48791728197E+02  0.55230065784E+02  0.77633962935E+02  0.00000000000E+00 0. -1.
</event>
<event>
 7    1  0.4687179E-006  0.1275808E+03  0.7561462E-02  0.1231090E+00
         -1   -1    0    0    0  501 -0.00000000000E+00  0.00000000000E+00  0.63775399572E+03  0.63775399572E+03  0.00000000000E+00 0.  1.
          1   -1    0    0  501    0  0.00000000000E+00 -0.00000000000E+00 -0.35805838107E+02  0.35805838107E+02  0.00000000000E+00 0. -1.
         23    2    1    2    0    0 -0.25045276759E+02 -0.81393057067E+02  0.14713424849E+03  0.19423203867E+03  0.93944143725E+02 0.  0.
          5    1    1    2  502    0  0.69798309188E+02  0.62947116630E+02  0.21566495590E+03  0.23529341058E+03  0.41800000000E+01 0.  1.
         -5    1    1    2    0  502 -0.44753032429E+02  0.18445940437E+02  0.23914895321E+03  0.24403438457E+03  0.41800000000E+01 0.  1.
        -11    1    3    3    0    0  0.18685045578E+02  0.15279806762E+01  0.71093994134E+02  0.73524292959E+02  0.00000000000E+00 0.  1.
         11    1    3    3    0    0 -0.43730322337E+02 -0.82921037744E+02  0.76040254360E+02  0.12070774571E+03  0.00000000000E+00 0. -1.
</event>
<event>
 7    1  0.4687179E-006  0.7107346E+02  0.7561462E-02  0.1356480E+00
         -1   -1    0    0    0  501 -0.00000000000E+00  0.00000000000E+00  0.79118014404E+02  0.79118014404E+02  0.00000000000E+00 0.  1.
          1   -1    0    0  501    0  0.00000000000E+00 -0.00000000000E+00 -0.23206545975E+03  0.23206545975E+03  0.00000000000E+00 0. -1.
         23    2    1    2    0    0  0.27415341509E+02  0.11399851047E+02 -0.15808831306E+03  0.18408078357E+03  0.89511242866E+02 0.  0.
          5    1    1    2  502    0 -0.45575675617E+02  0.19793727472E+01 -0.49739430636E+02  0.67620584769E+02  0.41800000000E+01 0. -1.
         -5    1    1    2    0  502  0.18160334108E+02 -0.13379223794E+02  0.54880298354E+02  0.59482105811E+02  0.41800000000E+01 0.  1.
        -11    1    3    3    0    0 -0.19066095284E+02 -0.10771079775E+02 -0.48614884280E+01  0.22431366847E+02  0.00000000000E+00 0.  1.
         11    1    3    3    0    0  0.46481436793E+02  0.22170930822E+02 -0.15322682463E+03  0.16164941672E+03  0.00000000000E+00 0. -1.
</event>
<event>
 7    1  0.4687179E-006  0.1506475E+03  0.7561462E-02  0.1199680E+00
          1   -1    0    0  501    0  0.00000000000E+00  0.00000000000E+00  0.44717862118E+02  0.44717862118E+02  0.00000000000E+00 0. -1.
         -1   -1    0    0    0  501 -0.00000000000E+00 -0.00000000000E+00 -0.65301048242E+03  0.65301048242E+03  0.00000000000E+00 0.  1.
         23    2    1    2    0    0  0.95452493633E+02  0.87888500175E+02 -0.24093736760E+03  0.28852728932E+03  0.91441864443E+02 0.  0.
          5    1    1    2  502    0 -0.11462500070E+03 -0.79130168975E+02 -0.22091271317E+03  0.26119030163E+03  0.41800000000E+01 0. -1.
         -5    1    1    2    0  502  0.19172507065E+02 -0.87583312000E+01 -0.14644253953E+03  0.14801075358E+03  0.41800000000E+01 0. -1.
        -11    1    3    3    0    0 -0.15450994828E+01  0.24579628787E+02 -0.11423181207E+03  0.11685654613E+03  0.00000000000E+00 0.  1.
         11    1    3    3    0    0  0.96997593116E+02  0.63308871388E+02 -0.12670555553E+03  0.17167074319E+03  0.00000000000E+00 0. -1.
</event>
<event>
 7    1  0.4687179E-006  0.2260332E+03  0.7561462E-02  0.1129463E+00
         -1   -1    0    0    0  501 -0.00000000000E+00  0.00000000000E+00  0.40997881495E+03  0.40997881495E+03  0.00000000000E+00 0.  1.
          1   -1    0    0  501    0  0.00000000000E+00 -0.00000000000E+00 -0.15080138892E+03  0.15080138892E+03  0.00000000000E+00 0. -1.
         23    2    1    2    0    0 -0.13644784636E+03  0.16023855868E+03  0.41148238868E+02  0.23294074429E+03  0.90960443723E+02 0.  0.
          5    1    1    2  502    0  0.50316562360E+02 -0.96568983041E+01  0.11516537030E+03  0.12611719569E+03  0.41800000000E+01 0. -1.
         -5    1    1    2    0  502  0.86131284002E+02 -0.15058166038E+03  0.10286381686E+03  0.20172226388E+03  0.41800000000E+01 0. -1.
        -11    1    3    3    0    0 -0.11278181058E+03  0.67527402138E+02  0.80674181937E+01  0.13169954470E+03  0.00000000000E+00 0. -1.
         11    1    3    3    0    0 -0.23666035777E+02  0.92711156546E+02  0.33080820674E+02  0.10124119959E+03  0.00000000000E+00 0.  1.
</event>
<event>
 7    1  0.4687179E-006  0.1383425E+03  0.7561462E-02  0.1215577E+00
          2   -1    0    0  501    0  0.00000000000E+00  0.00000000000E+00  0.26185543991E+03  0.26185543991E+03  0.00000000000E+00 0.  1.
         -2   -1    0    0    0  501 -0.00000000000E+00 -0.00000000000E+00 -0.10827886349E+03  0.10827886349E+03  0.00000000000E+00 0. -1.
         23    2    1    2    0    0  0.48772262088E+02  0.10848162960E+03  0.12709549771E+03  0.19550423577E+03  0.89003613159E+02 0.  0.
          5    1    1    2  502    0 -0.43415368463E+02 -0.12878521206E+03 -0.55711317915E+01  0.13608466105E+03  0.41800000000E+01 0. -1.
         -5    1    1    2    0  502 -0.53568936250E+01  0.20303582465E+02  0.32052210500E+02  0.38545406577E+02  0.41800000000E+01 0. -1.
        -11    1    3    3    0    0  0.19660895958E+02  0.55067156504E+02  0.44985805596E+01  0.58644520480E+02  0.00000000000E+00 0. -1.
         11    1    3    3    0    0  0.29111366131E+02  0.53414473095E+02  0.12259691715E+03  0.13685971529E+03  0.00000000000E+00 0.  1.
</event>
<event>
 7    1  0.4687179E-006  0.9705597E+02  0.7561462E-02  0.1286612E+00
          1   -1    0    0  501    0  0.00000000000E+00  0.00000000000E+00  0.98517806734E+02  0.98517806734E+02  0.00000000000E+00 0. -1.
         -1   -1    0    0    0  501 -0.00000000000E+00 -0.00000000000E+00 -0.14545539927E+03  0.14545539927E+03  0.00000000000E+00 0.  1.
         23    2    1    2    0    0 -0.56803494217E+02  0.15829665860E+02  0.14369281307E+02  0.96513884649E+02  0.75041577864E+02 0.  0.
          5    1    1    2  502    0  0.82910442090E+02  0.18702479700E+02 -0.19863815231E+02  0.87384024341E+02  0.41800000000E+01 0. -1.
         -5    1    1    2    0  502 -0.26106947873E+02 -0.34532145561E+02 -0.41443058617E+02  0.60075297018E+02  0.41800000000E+01 0.  1.
        -11    1    3    3    0    0 -0.18483655152E+02 -0.82768655137E+01  0.39750757270E+02  0.44612495044E+02  0.00000000000E+00 0. -1.
         11    1    3    3    0    0 -0.38319839064E+02  0.24106531374E+02 -0.25381475964E+02  0.51901389605E+02  0.00000000000E+00 0.  1.
</event>
<event>
 7    1  0.4687179E-006  0.1123866E+03  0.7561462E-02  0.1256213E+00
          2   -1    0    0  501    0  0.00000000000E+00  0.00000000000E+00  0.90289408684E+03  0.90289408684E+03  0.00000000000E+00 0. -1.
         -2   -1    0    0    0  501 -0.00000000000E+00 -0.00000000000E+00 -0.15528433284E+02  0.15528433284E+02  0.00000000000E+00 0.  1.
         23    2    1    2    0    0 -0.46487120217E+02  0.22203575393E+02  0.50179597043E+03  0.51237846343E+03  0.89880157652E+02 0.  0.
          5    1    1    2  502    0  0.17031169948E+02  0.47477983364E+02  0.17897978659E+03  0.18599853779E+03  0.41800000000E+01 0. -1.
         -5    1    1    2    0  502  0.29455950269E+02 -0.69681558757E+02  0.20658989654E+03  0.22004551890E+03  0.41800000000E+01 0.  1.
        -11    1    3    3    0    0  0.19566747344E+02 -0.13050966406E+02  0.63139412911E+02  0.67377821191E+02  0.00000000000E+00 0.  1.
         11    1    3    3    0    0 -0.66053867560E+02  0.35254541799E+02  0.43865655752E+03  0.44500064224E+03  0.00000000000E+00 0. -1.
</event>
<event>
 7    1  0.4687179E-006  0.2024300E+03  0.7561462E-02  0.1147705E+00
          1   -1    0    0  501    0  0.00000000000E+00  0.00000000000E+00  0.42135432181E+03  0.42135432181E+03  0.00000000000E+00 0. -1.
         -1   -1    0    0    0  501 -0.00000000000E+00 -0.00000000000E+00 -0.13186469936E+03  0.13186469936E+03  0.00000000000E+00 0.  1.
         23    2    1    2    0    0 -0.18046796234E+03  0.10948873571E+02  0.26282071286E+03  0.33175286133E+03  0.91086061679E+02 0.  0.
          5    1    1    2  502    0  0.14071901095E+03  0.33338409869E+02  0.55818860881E+02  0.15506936269E+03  0.41800000000E+01 0. -1.
         -5    1    1    2    0  502  0.39748951392E+02 -0.44287283440E+02 -0.29149951287E+02  0.66396797146E+02  0.41800000000E+01 0. -1.
        -11    1    3    3    0    0 -0.57636752729E+02 -0.37199289485E+02  0.11232940384E+03  0.13161944146E+03  0.00000000000E+00 0. -1.
         11    1    3    3    0    0 -0.12283120961E+03  0.48148163056E+02  0.15049130901E+03  0.20013341987E+03  0.00000000000E+00 0.  1.
</event>
<event>
 7    1  0.4687179E-006  0.1177818E+03  0.7561462E-02  0.1246802E+00
          2   -1    0    0  501    0  0.00000000000E+00  0.00000000000E+00  0.41205693120E+02  0.41205693120E+02  0.00000000000E+00 0. -1.
         -2   -1    0    0    0  501 -0.00000000000E+00 -0.00000000000E+00 -0.80665856673E+03  0.80665856673E+03  0.00000000000E+00 0.  1.
         23    2    1    2    0    0  0.72270803088E+02 -0.34573996247E+02 -0.76450736269E+02  0.14358685037E+03  0.91400428482E+02 0.  0.
          5    1    1    2  502    0 -0.60739301356E+02  0.70691694134E+02 -0.32039514034E+03  0.33370210773E+03  0.41800000000E+01 0. -1.
         -5    1    1    2    0  502 -0.11531501731E+02 -0.36117697887E+02 -0.36860699699E+03  0.37057530175E+03  0.41800000000E+01 0.  1.
        -11    1    3    3    0    0  0.23818064413E+02 -0.48224335155E+02 -0.21361492323E+01  0.53827965103E+02  0.00000000000E+00 0. -1.
         11    1    3    3    0    0  0.48452738674E+02  0.13650338908E+02 -0.74314587036E+02  0.89758885263E+02  0.00000000000E+00 0.  1.
</event>
<event>
 7    1  0.4687179E-006  0.1376205E+03  0.7561462E-02  0.1216567E+00
         -2   -1    0    0    0  501 -0.00000000000E+00  0.00000000000E+00  0.23700268436E+03  0.23700268436E+03  0.00000000000E+00 0.  1.
          2   -1    0    0  501    0  0.00000000000E+00 -0.00000000000E+00 -0.92853977984E+02  0.92853977984E+02  0.00000000000E+00 0. -1.
         23    2    1    2    0    0  0.82253028115E+02 -0.71034802003E+02  0.68585476615E+02  0.15770014390E+03  0.91399475132E+02 0.  0.
          5    1    1    2  502    0  0.25502713712E+02  0.16703020703E+02  0.21621795054E+01  0.30846826863E+02  0.41800000000E+01 0. -1.
         -5    1    1    2    0  502 -0.10775574183E+03  0.54331781300E+02  0.73401050257E+02  0.14130969158E+03  0.41800000000E+01 0.  1.
        -11    1    3    3    0    0  0.78221249049E+02 -0.81222053706E+02  0.28729428713E+02  0.11636565595E+03  0.00000000000E+00 0. -1.
         11    1    3    3    0    0  0.40317790657E+01  0.10187251703E+02  0.39856047901E+02  0.41334487949E+02  0.00000000000E+00 0.  1.
</event>
<event>
 7    1  0.4687179E-006  0.1173792E+03  0.7561462E-02  0.1247484E+00
          2   -1    0    0  501    0  0.00000000000E+00  0.00000000000E+00  0.30219739733E+03  0.30219739733E+03  0.00000000000E+00 0. -1.
         -2   -1    0    0    0  501 -0.00000000000E+00 -0.00000000000E+00 -0.74424975890E+02  0.74424975890E+02  0.00000000000E+00 0.  1.
         23    2    1    2    0    0 -0.39613204274E+00  0.90137474405E+02  0.16602507826E+03  0.21053401363E+03  0.92926439020E+02 0.  0.
          5    1    1    2  502    0  0.53326406317E+02 -0.37125438114E+02  0.63624230755E+02  0.91035811113E+02  0.41800000000E+01 0. -1.
         -5    1    1    2    0  502 -0.52930274275E+02 -0.53012036291E+02 -0.18768875760E+01  0.75052548481E+02  0.41800000000E+01 0. -1.
        -11    1    3    3    0    0 -0.12380540761E+02  0.70752769093E+02  0.17248748136E+03  0.18684529255E+03  0.00000000000E+00 0. -1.
         11    1    3    3    0    0  0.11984408718E+02  0.19384705312E+02 -0.64624030957E+01  0.23688721074E+02  0.00000000000E+00 0.  1.
</event>
<event>
 7    1  0.4687179E-006  0.1109250E+03  0.7561462E-02  0.1258866E+00
          2   -1    0    0  501    0  0.00000000000E+00  0.00000000000E+00  0.90075240148E+02  0.90075240148E+02  0.00000000000E+00 0. -1.
         -2   -1    0    0    0  501 -0.00000000000E+00 -0.00000000000E+00 -0.22539819129E+03  0.22539819129E+03  0.00000000000E+00 0.  1.
         23    2    1    2    0    0  0.59130967619E+02 -0.60636353050E+02 -0.26996782698E+02  0.12958333896E+03  0.94285612997E+02 0.  0.
          5    1    1    2  502    0 -0.23859997428E+02 -0.15516917134E+02 -0.96909791337E+02  0.10108933797E+03  0.41800000000E+01 0.  1.
         -5    1    1    2    0  502 -0.35270970192E+02  0.76153270185E+02 -0.11416377109E+02  0.84800754504E+02  0.41800000000E+01 0.  1.
        -11    1    3    3    0    0 -0.14998053774E+02 -0.18395830233E+02 -0.36708217518E+02  0.43713172160E+02  0.00000000000E+00 0.  1.
         11    1    3    3    0    0  0.74129021394E+02 -0.42240522818E+02  0.97114348201E+01  0.85870166804E+02  0.00000000000E+00 0. -1.
</event>
<event>
 7    1  0.4687179E-006  0.1156056E+03  0.7561462E-02  0.1250528E+00
         -2   -1    0    0    0  501 -0.00000000000E+00  0.00000000000E+00  0.11551758556E+03  0.11551758556E+03  0.00000000000E+00 0.  1.
          2   -1    0    0  501    0  0.00000000000E+00 -0.00000000000E+00 -0.16445685736E+03  0.16445685736E+03  0.00000000000E+00 0. -1.
         23    2    1    2    0    0 -0.64261102711E+02  0.49539359068E+01 -0.78249509566E+02  0.13628293453E+03  0.91082499385E+02 0.  0.
          5    1    1    2  502    0  0.53346359849E+02 -0.58211857768E+02 -0.50710479209E+01  0.79231574647E+02  0.41800000000E+01 0. -1.
         -5    1    1    2    0  502  0.10914742862E+02  0.53257921862E+02  0.34381285691E+02  0.64459933746E+02  0.41800000000E+01 0. -1.
        -11    1    3    3    0    0 -0.78591080653E+02  0.15139195646E+02 -0.30932659144E+02  0.85805492859E+02  0.00000000000E+00 0.  1.
         11    1    3    3    0    0  0.14329977942E+02 -0.10185259740E+02 -0.47316850422E+02  0.50477441671E+02  0.00000000000E+00 0. -1.
</event>
<event>
 7    1  0.4687179E-006  0.1078898E+03  0.7561462E-02  0.1264528E+00
          2   -1    0    0  501    0  0.00000000000E+00  0.00000000000E+00  0.40054767949E+03  0.40054767949E+03  0.00000000000E+00 0. -1.
         -2   -1    0    0    0  501 -0.00000000000E+00 -0.00000000000E+00 -0.43546118665E+02  0.43546118665E+02  0.00000000000E+00 0.  1.
         23    2    1    2    0    0 -0.52539778731E+00 -0.44010033573E+02  0.26223936830E+03  0.28110783826E+03  0.91186464716E+02 0.  0.
          5    1    1    2  502    0  0.42363823865E+02  0.70680620332E+02  0.64394456174E+02  0.10466404373E+03  0.41800000000E+01 0.  1.
         -5    1    1    2    0  502 -0.41838426078E+02 -0.26670586759E+02  0.30367736353E+02  0.58321916172E+02  0.41800000000E+01 0.  1.
        -11    1    3    3    0    0  0.35203311602E+02 -0.22138087123E+02  0.51248041336E+02  0.65997952923E+02  0.00000000000E+00 0.  1.
         11    1    3    3    0    0 -0.35728709389E+02 -0.21871946450E+02  0.21099132696E+03  0.21510988534E+03  0.00000000000E+00 0. -1.
</event>
<event>
 7    1  0.4687179E-006  0.6587988E+02  0.7561462E-02  0.1374692E+00
         -1   -1    0    0    0  501 -0.00000000000E+00  0.00000000000E+00  0.21817890947E+03  0.21817890947E+03  0.00000000000E+00 0.  1.
          1   -1    0    0  501    0  0.00000000000E+00 -0.00000000000E+00 -0.56686983034E+02  0.56686983034E+02  0.00000000000E+00 0. -1.
         23    2    1    2    0    0 -0.15136011724E+02 -0.17637196264E+02  0.64473393138E+02  0.11486495411E+03  0.92179009096E+02 0.  0.
          5    1    1    2  502    0 -0.91014558536E+01  0.26850440323E+02  0.12105333363E+03  0.12439921473E+03  0.41800000000E+01 0.  1.
         -5    1    1    2    0  502  0.24237467578E+02 -0.92132440590E+01 -0.24034800327E+02  0.35601723658E+02  0.41800000000E+01 0.  1.
        -11    1    3    3    0    0 -0.39177608098E+02  0.97729885030E+01 -0.47693740834E+00  0.40380982528E+02  0.00000000000E+00 0. -1.
         11    1    3    3    0    0  0.24041596374E+02 -0.27410184767E+02  0.64950330547E+02  0.74483971587E+02  0.00000000000E+00 0.  1.
</event>
<event>
 7    1  0.4687179E-006  0.1014369E+03  0.7561462E-02  0.1277303E+00
          1   -1    0    0  501    0  0.00000000000E+00  0.00000000000E+00  0.43618347311E+02  0.43618347311E+02  0.00000000000E+00 0. -1.
         -1   -1    0    0    0  501 -0.00000000000E+00 -0.00000000000E+00 -0.29568379383E+03  0.29568379383E+03  0.00000000000E+00 0.  1.
         23    2    1    2    0    0  0.25285012405E+02 -0.11695328647E+02 -0.81208418404E+02  0.12572456422E+03  0.91846318731E+02 0.  0.
          5    1    1    2  502    0 -0.22693391754E+02  0.57132356226E+02 -0.15222614089E+03  0.16422352611E+03  0.41800000000E+01 0.  1.
         -5    1    1    2    0  502 -0.25916206502E+01 -0.45437027579E+02 -0.18630887227E+02  0.49354050813E+02  0.41800000000E+01 0.  1.
        -11    1    3    3    0    0  0.59344166398E+02 -0.15358759276E+02 -0.46335777324E+02  0.76841563182E+02  0.00000000000E+00 0. -1.
         11    1    3    3    0    0 -0.34059153994E+02  0.36634306281E+01 -0.34872641080E+02  0.48883001040E+02  0.00000000000E+00 0.  1.
</event>
<event>
 7    1  0.4687179E-006  0.1849984E+03  0.7561462E-02  0.1163051E+00
          1   -1    0    0  501    0  0.00000000000E+00  0.00000000000E+00  0.79597106442E+03  0.79597106442E+03  0.00000000000E+00 0. -1.
         -1   -1    0    0    0  501 -0.00000000000E+00 -0.00000000000E+00 -0.62270005284E+02  0.62270005284E+02  0.00000000000E+00 0.  1.
         23    2    1    2    0    0 -0.62193142398E+02  0.13947812227E+03  0.58401655383E+03  0.61049836368E+03  0.91163497975E+02 0.  0.
          5    1    1    2  502    0 -0.18096860990E+02  0.14028907004E+02  0.25668382404E+02  0.34650322720E+02  0.41800000000E+01 0. -1.
         -5    1    1    2    0  502  0.80290003388E+02 -0.15350702927E+03  0.12401612291E+03  0.21309238330E+03  0.41800000000E+01 0. -1.
        -11    1    3    3    0    0 -0.90231032784E+01  0.11420850797E+03  0.44542194165E+03  0.45991923833E+03  0.00000000000E+00 0. -1.
         11    1    3    3    0    0 -0.53170039120E+02  0.25269614302E+02  0.13859461217E+03  0.15057912535E+03  0.00000000000E+00 0.  1.
</event>
<event>
 7    1  0.4687179E-006  0.1478774E+03  0.7561462E-02  0.1203106E+00
          2   -1    0    0  501    0  0.00000000000E+00  0.00000000000E+00  0.53814657303E+03  0.53814657303E+03  0.00000000000E+00 0.  1.
         -2   -1    0    0    0  501 -0.00000000000E+00 -0.00000000000E+00 -0.54428905531E+02  0.54428905531E+02  0.00000000000E+00 0. -1.
         23    2    1    2    0    0  0.32078989499E+02 -0.12787357079E+03  0.22031571129E+03  0.27256480347E+03  0.91497802026E+02 0.  0.
          5    1    1    2  502    0  0.21871560389E+02  0.74854585597E+02  0.47983480817E+02  0.91659483798E+02  0.41800000000E+01 0. -1.
         -5    1    1    2    0  502 -0.53950549888E+02  0.53018985194E+02  0.21541847540E+03  0.22835119130E+03  0.41800000000E+01 0. -1.
        -11    1    3    3    0    0  0.27971724973E+02 -0.21071626885E+02  0.12344669366E+03  0.12831803081E+03  0.00000000000E+00 0.  1.
         11    1    3    3    0    0  0.41072645258E+01 -0.10680194391E+03  0.96869017630E+02  0.14424677265E+03  0.00000000000E+00 0. -1.
</event>
<event>
 7    1  0.4687179E-006  0.1075342E+03  0.7561462E-02  0.1265205E+00
         -2   -1    0    0    0  501 -0.00000000000E+00  0.00000000000E+00  0.21851054618E+02  0.21851054618E+02  0.00000000000E+00 0. -1.
          2   -1    0    0  501    0  0.00000000000E+00 -0.00000000000E+00 -0.57623543068E+03  0.57623543068E+03  0.00000000000E+00 0.  1.
         23    2    1    2    0    0  0.57742222674E+01  0.15994158090E+02 -0.30080589857E+03  0.31482269595E+03  0.91323526709E+02 0.  0.
          5    1    1    2  502    0 -0.62567625878E+02 -0.18544013293E+02 -0.10035085509E+03  0.11977626958E+03  0.41800000000E+01 0. -1.
         -5    1    1    2    0  502  0.56793403610E+02  0.25498552024E+01 -0.15322762241E+03  0.16348751978E+03  0.41800000000E+01 0. -1.
        -11    1    3    3    0    0 -0.41416443709E+02 -0.36068959045E+01 -0.14579661747E+03  0.15160799838E+03  0.00000000000E+00 0. -1.
         11    1    3    3    0    0  0.47190665976E+02  0.19601053995E+02 -0.15500928110E+03  0.16321469756E+03  0.00000000000E+00 0.  1.
</event>
<event>
 7    1  0.4687179E-006  0.1235584E+03  0.7561462E-02  0.1237340E+00
          1   -1    0    0  501    0  0.00000000000E+00  0.00000000000E+00  0.22294287088E+03  0.22294287088E+03  0.00000000000E+00 0. -1.
         -1   -1    0    0    0  501 -0.00000000000E+00 -0.00000000000E+00 -0.78879383048E+02  0.78879383048E+02  0.00000000000E+00 0.  1.
         23    2    1    2    0    0  0.35900449678E+02 -0.91509873518E+01  0.80750242347E+02  0.12658129095E+03  0.90164509223E+02 0.  0.
          5    1    1    2  502    0 -0.65128559717E+02 -0.51283072969E+02  0.68728335229E+02  0.10776242076E+03  0.41800000000E+01 0. -1.
         -5    1    1    2    0  502  0.29228110039E+02  0.60434060321E+02 -0.54150897431E+01  0.67478542221E+02  0.41800000000E+01 0.  1.
        -11    1    3    3    0    0 -0.23745253632E+02 -0.25665669962E+02  0.36168375161E+02  0.50306212802E+02  0.00000000000E+00 0. -1.
         11    1    3    3    0    0  0.59645703310E+02  0.16514682610E+02  0.44581867186E+02  0.76275078151E+02  0.00000000000E+00 0.  1.
</event>
<event>
 7    1  0.4687179E-006  0.2449738E+03  0.7561462E-02  0.1116523E+00
         -1   -1    0    0    0  501 -0.00000000000E+00  0.00000000000E+00  0.97693674488E+02  0.97693674488E+02  0.00000000000E+00 0.  1.
          1   -1    0    0  501    0  0.00000000000E+00 -0.00000000000E+00 -0.63946328015E+03  0.63946328015E+03  0.00000000000E+00 0. -1.
         23    2    1    2    0    0  0.18302717844E+03  0.12430671996E+03 -0.31071364862E+03  0.39366834201E+03  0.97368800939E+02 0.  0.
          5    1    1    2  502    0 -0.16970192218E+03 -0.48174103008E+02 -0.15280480655E+03  0.23342293781E+03  0.41800000000E+01 0.  1.
         -5    1    1    2    0  502 -0.13325256259E+02 -0.76132616949E+02 -0.78251150497E+02  0.11006567481E+03  0.41800000000E+01 0.  1.
        -11    1    3    3    0    0  0.35026536611E+02  0.70297904037E+02 -0.14570897666E+03  0.16552872698E+03  0.00000000000E+00 0. -1.
         11    1    3    3    0    0  0.14800064183E+03  0.54008815919E+02 -0.16500467196E+03  0.22813961503E+03  0.00000000000E+00 0.  1.
</event>
<event>
 7    1  0.4687179E-006  0.8065777E+02  0.7561462E-02  0.1327195E+00
         -3   -1    0    0    0  501 -0.00000000000E+00  0.00000000000E+00  0.93883385898E+02  0.93883385898E+02  0.00000000000E+00 0.  1.
          3   -1    0    0  501    0  0.00000000000E+00 -0.00000000000E+00 -0.12961701836E+03  0.12961701836E+03  0.00000000000E+00 0. -1.
         23    2    1    2    0    0 -0.23393345553E+01  0.20479677607E+02 -0.14206514946E+02  0.94907517841E+02  0.91546284440E+02 0.  0.
          5    1    1    2  502    0  0.67172815181E+01  0.49450625000E+02  0.10932782391E+02  0.51258992525E+02  0.41800000000E+01 0. -1.
         -5    1    1    2    0  502 -0.43779469627E+01 -0.69930302607E+02 -0.32459899905E+02  0.77333893890E+02  0.41800000000E+01 0. -1.
        -11    1    3    3    0    0 -0.35774282056E+01 -0.99581458915E+01  0.35259954275E+02  0.36813408394E+02  0.00000000000E+00 0.  1.
         11    1    3    3    0    0  0.12380936503E+01  0.30437823498E+02 -0.49466469221E+02  0.58094109446E+02  0.00000000000E+00 0. -1.
</event>
<event>
 7    1  0.4687179E-006  0.1032237E+03  0.7561462E-02  0.1273659E+00
          2   -1    0    0  501    0  0.00000000000E+00  0.00000000000E+00  0.12328430142E+03  0.12328430142E+03  0.00000000000E+00 0. -1.
         -2   -1    0    0    0  501 -0.00000000000E+00 -0.00000000000E+00 -0.12659592810E+03  0.12659592810E+03  0.00000000000E+00 0.  1.
         23    2    1    2    0    0 -0.40920136230E+02  0.47924183432E+01  0.57356831842E+02  0.10489040054E+03  0.77554916960E+02 0.  0.
          5    1    1    2  502    0  0.42189704811E+02 -0.60640962012E+02 -0.45842537994E+02  0.87041990760E+02  0.41800000000E+01 0.  1.
         -5    1    1    2    0  502 -0.12695685811E+01  0.55848543669E+02 -0.14825920525E+02  0.57947838214E+02  0.41800000000E+01 0.  1.
        -11    1    3    3    0    0 -0.39622056822E+01  0.30921892655E+02  0.50162282753E+02  0.59060283865E+02  0.00000000000E+00 0. -1.
         11    1    3    3    0    0 -0.36957930548E+02 -0.26129474311E+02  0.71945490885E+01  0.45830116678E+02  0.00000000000E+00 0.  1.
</event>
<event>
 7    1  0.4687179E-006  0.1565009E+03  0.7561462E-02  0.1192705E+00
         -2   -1    0    0    0  501 -0.00000000000E+00  0.00000000000E+00  0.45511187765E+02  0.45511187765E+02  0.00000000000E+00 0.  1.
          2   -1    0    0  501    0  0.00000000000E+00 -0.00000000000E+00 -0.77537287544E+03  0.77537287544E+03  0.00000000000E+00 0. -1.
         23    2    1    2    0    0  0.19070544566E+01  0.12762474764E+03 -0.53019773456E+03  0.55291940428E+03  0.91205903449E+02 0.  0.
          5    1    1    2  502    0  0.54386407955E+02 -0.74263986821E+02 -0.14911545066E+03  0.17528808041E+03  0.41800000000E+01 0. -1.
         -5    1    1    2    0  502 -0.56293462412E+02 -0.53360760820E+02 -0.50548502456E+02  0.92676578520E+02  0.41800000000E+01 0. -1.
        -11    1    3    3    0    0  0.33403069251E+02  0.64803289169E+02 -0.15619945165E+03  0.17237604247E+03  0.00000000000E+00 0.  1.
         11    1    3    3    0    0 -0.31496014794E+02  0.62821458472E+02 -0.37399828291E+03  0.38054336181E+03  0.00000000000E+00 0. -1.
</event>
<event>
 7    1  0.4687179E-006  0.9703865E+02  0.7561462E-02  0.1286649E+00
          1   -1    0    0  501    0  0.00000000000E+00  0.00000000000E+00  0.14061457770E+03  0.14061457770E+03  0.00000000000E+00 0. -1.
         -1   -1    0    0    0  501 -0.00000000000E+00 -0.00000000000E+00 -0.12480548885E+03  0.12480548885E+03  0.00000000000E+00 0.  1.
         23    2    1    2    0    0  0.13464655051E+01  0.27969595797E+02  0.80261661534E+02  0.12192573354E+03  0.87406172145E+02 0.  0.
          5    1    1    2  502    0  0.19752855755E+01 -0.66839756311E+02  0.12012397304E+01  0.67010224247E+02  0.41800000000E+01 0. -1.
         -5    1    1    2    0  502 -0.33217510806E+01  0.38870160514E+02 -0.65653812414E+02  0.76484108762E+02  0.41800000000E+01 0. -1.
        -11    1    3    3    0    0  0.42290968403E+02  0.12930040170E+02  0.22715342942E+02  0.49716181995E+02  0.00000000000E+00 0.  1.
         11    1    3    3    0    0 -0.40944502898E+02  0.15039555627E+02  0.57546318592E+02  0.72209551546E+02  0.00000000000E+00 0. -1.
</event>
<event>
 7    1  0.1025514E-005  0.2240256E+03  0.7561462E-02  0.1130917E+00
         -1   -1    0    0    0  501 -0.00000000000E+00  0.00000000000E+00  0.54756801869E+02  0.54756801869E+02  0.00000000000E+00 0.  1.
          1   -1    0    0  501    0  0.00000000000E+00 -0.00000000000E+00 -0.99779976968E+03  0.99779976968E+03  0.00000000000E+00 0. -1.
         23    2    1    2    0    0  0.22887998956E+02  0.20080268385E+03 -0.55200319464E+03  0.59494828195E+03  0.91707976594E+02 0.  0.
          5    1    1    2  502    0 -0.43032553970E+02 -0.21026606938E+03 -0.36077272088E+03  0.41980715711E+03  0.41800000000E+01 0.  1.
         -5    1    1    2    0  502  0.20144555014E+02  0.94633855360E+01 -0.30267052304E+02  0.37801132492E+02  0.41800000000E+01 0.  1.
        -11    1    3    3    0    0 -0.20526167746E+02  0.62661384154E+02 -0.95669767254E+02  0.11619155302E+03  0.00000000000E+00 0.  1.
         11    1    3    3    0    0  0.43414166701E+02  0.13814129969E+03 -0.45633342738E+03  0.47875672893E+03  0.00000000000E+00 0. -1.
</event>
<event>
 7    1  0.4687179E-006  0.5681304E+02  0.7561462E-02  0.1411714E+00
         -1   -1    0    0    0  501 -0.00000000000E+00  0.00000000000E+00  0.63127438351E+02  0.63127438351E+02  0.00000000000E+00 0.  1.
          1   -1    0    0  501    0  0.00000000000E+00 -0.00000000000E+00 -0.20119774232E+03  0.20119774232E+03  0.00000000000E+00 0. -1.
         23    2    1    2    0    0  0.70994506944E+00 -0.17400264468E+02 -0.81763016880E+02  0.12586414107E+03  0.94092071152E+02 0.  0.
          5    1    1    2  502    0  0.34398948411E+02  0.29318189714E+02 -0.81606900229E+02  0.93380953438E+02  0.41800000000E+01 0. -1.
         -5    1    1    2    0  502 -0.35108893481E+02 -0.11917925247E+02  0.25299613136E+02  0.45080086163E+02  0.41800000000E+01 0. -1.
        -11    1    3    3    0    0 -0.10988024524E+02 -0.15610409797E+02 -0.10126707240E+03  0.10305067457E+03  0.00000000000E+00 0. -1.
         11    1    3    3    0    0  0.11697969593E+02 -0.17898546709E+01  0.19504055519E+02  0.22813466506E+02  0.00000000000E+00 0.  1.
</event>
<event>
 7    1  0.4687179E-006  0.7830930E+02  0.7561462E-02  0.1333919E+00
          2   -1    0    0  501    0  0.00000000000E+00  0.00000000000E+00  0.28399520454E+03  0.28399520454E+03  0.00000000000E+00 0. -1.
         -2   -1    0    0    0  501 -0.00000000000E+00 -0.00000000000E+00 -0.46018122515E+02  0.46018122515E+02  0.00000000000E+00 0.  1.
         23    2    1    2    0    0 -0.19976294456E+02  0.32150836097E+02  0.90139861872E+02  0.13269336059E+03  0.89719588971E+02 0.  0.
          5    1    1    2  502    0 -0.29574988233E+02  0.21770852586E+02  0.57353221810E+01  0.37403425937E+02  0.41800000000E+01 0. -1.
         -5    1    1    2    0  502  0.49551282689E+02 -0.53921688683E+02  0.14210189797E+03  0.15991654053E+03  0.41800000000E+01 0. -1.
        -11    1    3    3    0    0 -0.21110187511E+02  0.87068971533E+01 -0.13433662827E+02  0.26493647762E+02  0.00000000000E+00 0.  1.
         11    1    3    3    0    0  0.11338930547E+01  0.23443938944E+02  0.10357352470E+03  0.10619971283E+03  0.00000000000E+00 0. -1.
</event>
<event>
 7    1  0.4687179E-006  0.1265611E+03  0.7561462E-02  0.1232650E+00
         -1   -1    0    0    0  501 -0.00000000000E+00  0.00000000000E+00  0.49732949804E+02  0.49732949804E+02  0.00000000000E+00 0.  1.
          1   -1    0    0  501    0  0.00000000000E+00 -0.00000000000E+00 -0.52943712006E+03  0.52943712006E+03  0.00000000000E+00 0. -1.
         23    2    1    2    0    0 -0.56405916297E+01  0.83882024049E+02 -0.37605609348E+03  0.39625222251E+03  0.92355986093E+02 0.  0.
          5    1    1    2  502    0  0.60624593896E+02 -0.16490004987E+02 -0.35034456366E+02  0.72056555444E+02  0.41800000000E+01 0.  1.
         -5    1    1    2    0  502 -0.54984002266E+02 -0.67392019062E+02 -0.68613620410E+02  0.11086129191E+03  0.41800000000E+01 0.  1.
        -11    1    3    3    0    0 -0.31484697943E+02  0.60616505703E+02 -0.33745226441E+03  0.34429591592E+03  0.00000000000E+00 0. -1.
         11    1    3    3    0    0  0.25844106313E+02  0.23265518346E+02 -0.38603829080E+02  0.51956306592E+02  0.00000000000E+00 0.  1.
</event>
<event>
 7    1  0.4687179E-006  0.1125418E+03  0.7561462E-02  0.1255934E+00
         -2   -1    0    0    0  501 -0.00000000000E+00  0.00000000000E+00  0.21059369588E+03  0.21059369588E+03  0.00000000000E+00 0.  1.
          2   -1    0    0  501    0  0.00000000000E+00 -0.00000000000E+00 -0.63495051536E+02  0.63495051536E+02  0.00000000000E+00 0. -1.
         23    2    1    2    0    0 -0.32385316133E+02  0.98075911809E+01  0.33736839890E+02  0.10191690178E+03  0.90021569399E+02 0.  0.
          5    1    1    2  502    0  0.53160104223E+00  0.56035726202E+02  0.45431338748E+02  0.72261775172E+02  0.41800000000E+01 0. -1.
         -5    1    1    2    0  502  0.31853715091E+02 -0.65843317383E+02  0.67930465709E+02  0.99910070466E+02  0.41800000000E+01 0. -1.
        -11    1    3    3    0    0  0.17221843304E+01  0.45920675633E+02  0.10808914373E+02  0.47207065143E+02  0.00000000000E+00 0.  1.
         11    1    3    3    0    0 -0.34107500464E+02 -0.36113084452E+02  0.22927925517E+02  0.54709836638E+02  0.00000000000E+00 0. -1.
</event>
<event>
 7    1  0.4687179E-006  0.3002781E+03  0.7561462E-02  0.1085102E+00
          1   -1    0    0  501    0  0.00000000000E+00  0.00000000000E+00  0.93309604278E+03  0.93309604278E+03  0.00000000000E+00 0. -1.
         -1   -1    0    0    0  501 -0.00000000000E+00 -0.00000000000E+00 -0.23943151086E+03  0.23943151086E+03  0.00000000000E+00 0.  1.
         23    2    1    2    0    0  0.28410501809E+03  0.80630986788E+02  0.78111790269E+03  0.84009073461E+03  0.91598292203E+02 0.  0.
          5    1    1    2  502    0 -0.27275490054E+03 -0.64213948097E+02 -0.11087769788E+03  0.30138016389E+03  0.41800000000E+01 0. -1.
         -5    1    1    2    0  502 -0.11350117556E+02 -0.16417038691E+02  0.23424327106E+02  0.31056655137E+02  0.41800000000E+01 0. -1.
        -11    1    3    3    0    0  0.17351778214E+03  0.75453246508E+02  0.58554575521E+03  0.61535798083E+03  0.00000000000E+00 0.  1.
         11    1    3    3    0    0  0.11058723596E+03  0.51777402799E+01  0.19557214749E+03  0.22473275378E+03  0.00000000000E+00 0. -1.
</event>
<event>
 7    1  0.4687179E-006  0.1070315E+03  0.7561462E-02  0.1266168E+00
          1   -1    0    0  501    0  0.00000000000E+00  0.00000000000E+00  0.55364895209E+02  0.55364895209E+02  0.00000000000E+00 0. -1.
         -1   -1    0    0    0  501 -0.00000000000E+00 -0.00000000000E+00 -0.40201266530E+03  0.40201266530E+03  0.00000000000E+00 0.  1.
         23    2    1    2    0    0  0.45702533277E+02 -0.70778408672E+02 -0.85939385509E+02  0.15618881359E+03  0.99554320985E+02 0.  0.
          5    1    1    2  502    0  0.29316456048E+02  0.25648247955E+02 -0.17950016878E+02  0.43092490347E+02  0.41800000000E+01 0. -1.
         -5    1    1    2    0  502 -0.75018989325E+02  0.45130160717E+02 -0.24275836770E+03  0.25809625657E+03  0.41800000000E+01 0. -1.
        -11    1    3    3    0    0  0.10382739026E+02 -0.36772469535E+02 -0.98435870289E+02  0.10559183844E+03  0.00000000000E+00 0.  1.
         11    1    3    3    0    0  0.35319794251E+02 -0.34005939137E+02  0.12496484780E+02  0.50596975150E+02  0.00000000000E+00 0. -1.
</event>
<event>
 7    1  0.4687179E-006  0.1357601E+03  0.7561462E-02  0.1219151E+00
          2   -1    0    0  501    0  0.00000000000E+00  0.00000000000E+00  0.10155309261E+04  0.10155309261E+04  0.00000000000E+00 0. -1.
         -2   -1    0    0    0  501 -0.00000000000E+00 -0.00000000000E+00 -0.38099075277E+02  0.38099075277E+02  0.00000000000E+00 0.  1.
         23    2    1    2    0    0  0.11275371898E+03 -0.25861807463E+02  0.77234737724E+03  0.78641791599E+03  0.92468552637E+02 0.  0.
          5    1    1    2  502    0 -0.43581100600E+02  0.41539658817E+02  0.18317421596E+03  0.19286036757E+03  0.41800000000E+01 0. -1.
         -5    1    1    2    0  502 -0.69172618383E+02 -0.15677851353E+02  0.21910257646E+02  0.74351717849E+02  0.41800000000E+01 0.  1.
        -11    1    3    3    0    0 -0.34688967997E+01  0.16163197959E+02  0.34081774990E+02  0.37879408651E+02  0.00000000000E+00 0.  1.
         11    1    3    3    0    0  0.11622261578E+03 -0.42025005422E+02  0.73826560225E+03  0.74853850734E+03  0.00000000000E+00 0. -1.
</event>
<event>
 7    1  0.4687179E-006  0.1407192E+03  0.7561462E-02  0.1212365E+00
         -1   -1    0    0    0  501 -0.00000000000E+00  0.00000000000E+00  0.12806620392E+03  0.12806620392E+03  0.00000000000E+00 0.  1.
          1   -1    0    0  501    0  0.00000000000E+00 -0.00000000000E+00 -0.41190593216E+03  0.41190593216E+03  0.00000000000E+00 0. -1.
         23    2    1    2    0    0  0.95639592057E+02 -0.19622045793E+02 -0.15681980863E+03  0.20645638812E+03  0.92194531107E+02 0.  0.
          5    1    1    2  502    0 -0.42664110743E+02 -0.67562415062E+02 -0.19505026944E+03  0.21082453909E+03  0.41800000000E+01 0. -1.
         -5    1    1    2    0  502 -0.52975481313E+02  0.87184460855E+02  0.68030349835E+02  0.12269120887E+03  0.41800000000E+01 0.  1.
        -11    1    3    3    0    0  0.17963862666E+02 -0.11247994641E+02 -0.11674222582E+03  0.11865060065E+03  0.00000000000E+00 0.  1.
         11    1    3    3    0    0  0.77675729391E+02 -0.83740511523E+01 -0.40077582812E+02  0.87805787470E+02  0.00000000000E+00 0. -1.
</event>
<event>
 7    1  0.4687179E-006  0.1098624E+03  0.7561462E-02  0.1260825E+00
          1   -1    0    0  501    0  0.00000000000E+00  0.00000000000E+00  0.30277692736E+03  0.30277692736E+03  0.00000000000E+00 0. -1.
         -1   -1    0    0    0  501 -0.00000000000E+00 -0.00000000000E+00 -0.72730186833E+02  0.72730186833E+02  0.00000000000E+00 0.  1.
         23    2    1    2    0    0 -0.69046775049E+02  0.65473686768E+02  0.14751232303E+03  0.19798359780E+03  0.91560683407E+02 0.  0.
          5    1    1    2  502    0  0.66508976517E+02 -0.54690773420E+02 -0.76661336582E+01  0.86549215247E+02  0.41800000000E+01 0. -1.
         -5    1    1    2    0  502  0.25377985319E+01 -0.10782913348E+02  0.90200551155E+02  0.90974301153E+02  0.41800000000E+01 0. -1.
        -11    1    3    3    0    0 -0.59891712217E+02  0.45457418111E+01  0.34498749247E+02  0.69266475734E+02  0.00000000000E+00 0.  1.
         11    1    3    3    0    0 -0.91550628316E+01  0.60927944957E+02  0.11301357379E+03  0.12871712206E+03  0.00000000000E+00 0. -1.
</event>
<event>
 7    1  0.4687179E-006  0.1795918E+03  0.7561462E-02  0.1168199E+00
          1   -1    0    0  501    0  0.00000000000E+00  0.00000000000E+00  0.11733060792E+04  0.11733060792E+04  0.00000000000E+00 0. -1.
         -1   -1    0    0    0  501 -0.00000000000E+00 -0.00000000000E+00 -0.35596635896E+02  0.35596635896E+02  0.00000000000E+00 0.  1.
         23    2    1    2    0    0 -0.10728452093E+03 -0.11391785503E+03  0.75888340125E+03  0.78036444812E+03  0.92614302722E+02 0.  0.
          5    1    1    2  502    0  0.64837071566E+02  0.11954613539E+03  0.18298071415E+03  0.22802310954E+03  0.41800000000E+01 0.  1.
         -5    1    1    2    0  502  0.42447449365E+02 -0.56282803567E+01  0.19584532794E+03  0.20051515747E+03  0.41800000000E+01 0.  1.
        -11    1    3    3    0    0 -0.11462754594E+02  0.15370289549E+02  0.52774674966E+02  0.56149860743E+02  0.00000000000E+00 0.  1.
         11    1    3    3    0    0 -0.95821766336E+02 -0.12928814458E+03  0.70610872629E+03  0.72421458738E+03  0.00000000000E+00 0. -1.
</event>
<event>
 7    1  0.4687179E-006  0.2364185E+03  0.7561462E-02  0.1122202E+00
          2   -1    0    0  501    0  0.00000000000E+00  0.00000000000E+00  0.85599396184E+03  0.85599396184E+03  0.00000000000E+00 0.  1.
         -2   -1    0    0    0  501 -0.00000000000E+00 -0.00000000000E+00 -0.79558352877E+02  0.79558352877E+02  0.00000000000E+00 0. -1.
         23    2    1    2    0    0 -0.20319248335E+03 -0.11099818511E+03  0.47239315763E+03  0.53343547241E+03  0.88262820383E+02 0.  0.
          5    1    1    2  502    0  0.15162070776E+03  0.56812155071E+02  0.27992929381E+03  0.32341048516E+03  0.41800000000E+01 0.  1.
         -5    1    1    2    0  502  0.51571775595E+02  0.54186030034E+02  0.24113157530E+02  0.78706357145E+02  0.41800000000E+01 0.  1.
        -11    1    3    3    0    0 -0.11936807976E+03 -0.39387726783E+02  0.33152393856E+03  0.35455359725E+03  0.00000000000E+00 0.  1.
         11    1    3    3    0    0 -0.83824403587E+02 -0.71610458322E+02  0.14086921907E+03  0.17888187516E+03  0.00000000000E+00 0. -1.
</event>
<event>
 7    1  0.4687179E-006  0.7566401E+02  0.7561462E-02  0.1341827E+00
         -1   -1    0    0    0  501 -0.00000000000E+00  0.00000000000E+00  0.23883493409E+03  0.23883493409E+03  0.00000000000E+00 0.  1.
          1   -1    0    0  501    0  0.00000000000E+00 -0.00000000000E+00 -0.56891664173E+02  0.56891664173E+02  0.00000000000E+00 0. -1.
         23    2    1    2    0    0 -0.16858557012E+02  0.32690238573E+02  0.59434596817E+02  0.11681853253E+03  0.93601472213E+02 0.  0.
          5    1    1    2  502    0 -0.75856419214E+01 -0.22214727522E+02  0.14306381597E+03  0.14503711222E+03  0.41800000000E+01 0. -1.
         -5    1    1    2    0  502  0.24444198933E+02 -0.10475511052E+02 -0.20555142872E+02  0.33870953511E+02  0.41800000000E+01 0. -1.
        -11    1    3    3    0    0  0.90628988939E+01  0.61294963464E+02  0.37187834475E+02  0.72264401439E+02  0.00000000000E+00 0.  1.
         11    1    3    3    0    0 -0.25921455906E+02 -0.28604724890E+02  0.22246762342E+02  0.44554131088E+02  0.00000000000E+00 0. -1.
</event>
<event>
 7    1  0.4687179E-006  0.1918861E+03  0.7561462E-02  0.1156771E+00
         -1   -1    0    0    0  501 -0.00000000000E+00  0.00000000000E+00  0.44306798773E+03  0.44306798773E+03  0.00000000000E+00 0.  1.
          1   -1    0    0  501    0  0.00000000000E+00 -0.00000000000E+00 -0.10786543632E+03  0.10786543632E+03  0.00000000000E+00 0. -1.
         23    2    1    2    0    0  0.61213715444E+02 -0.15042786405E+03  0.38002463655E+02  0.18989226227E+03  0.90770164619E+02 0.  0.
          5    1    1    2  502    0  0.31933950487E+02  0.66751882329E+02  0.71951861766E+02  0.10329633972E+03  0.41800000000E+01 0. -1.
         -5    1    1    2    0  502 -0.93147665931E+02  0.83675981719E+02  0.22524822599E+03  0.25774482205E+03  0.41800000000E+01 0. -1.
        -11    1    3    3    0    0 -0.22593691224E+02 -0.36825100730E+02  0.19895790471E+02  0.47564749609E+02  0.00000000000E+00 0.  1.
         11    1    3    3    0    0  0.83807406668E+02 -0.11360276332E+03  0.18106673185E+02  0.14232751266E+03  0.00000000000E+00 0. -1.
</event>
<event>
 7    1  0.4687179E-006  0.9349303E+02  0.7561462E-02  0.1294607E+00
          1   -1    0    0  501    0  0.00000000000E+00  0.00000000000E+00  0.71610318826E+02  0.71610318826E+02  0.00000000000E+00 0. -1.
         -1   -1    0    0    0  501 -0.00000000000E+00 -0.00000000000E+00 -0.20343696912E+03  0.20343696912E+03  0.00000000000E+00 0.  1.
         23    2    1    2    0    0 -0.23208693098E+02  0.14789335255E+02 -0.33097276735E+02  0.10139428159E+03  0.91804154264E+02 0.  0.
          5    1    1    2  502    0  0.51368507531E+02  0.27558720368E+02  0.43803240534E+01  0.58607732195E+02  0.41800000000E+01 0. -1.
         -5    1    1    2    0  502 -0.28159814433E+02 -0.42348055623E+02 -0.10310969761E+03  0.11504527416E+03  0.41800000000E+01 0.  1.
        -11    1    3    3    0    0 -0.48956206540E+02  0.16624628948E+02 -0.48870573792E+02  0.71143667527E+02  0.00000000000E+00 0.  1.
         11    1    3    3    0    0  0.25747513442E+02 -0.18352936924E+01  0.15773297057E+02  0.30250614067E+02  0.00000000000E+00 0. -1.
</event>
<event>
 7    1  0.4687179E-006  0.1214673E+03  0.7561462E-02  0.1240696E+00
          2   -1    0    0  501    0  0.00000000000E+00  0.00000000000E+00  0.11048472904E+03  0.11048472904E+03  0.00000000000E+00 0. -1.
         -2   -1    0    0    0  501 -0.00000000000E+00 -0.00000000000E+00 -0.16975803464E+03  0.16975803464E+03  0.00000000000E+00 0.  1.
         23    2    1    2    0    0  0.42779745103E+02 -0.48378511915E+02  0.31707486087E+02  0.11262504234E+03  0.86651303983E+02 0.  0.
          5    1    1    2  502    0 -0.12280503257E+02 -0.42618642485E+02 -0.25093063690E+02  0.51130164217E+02  0.41800000000E+01 0.  1.
         -5    1    1    2    0  502 -0.30499241846E+02  0.90997154400E+02 -0.65887728001E+02  0.11648755712E+03  0.41800000000E+01 0.  1.
        -11    1    3    3    0    0  0.66079867340E+02 -0.41488334522E+02  0.39038240385E+02  0.87245716121E+02  0.00000000000E+00 0.  1.
         11    1    3    3    0    0 -0.23300122237E+02 -0.68901773933E+01 -0.73307542981E+01  0.25379326219E+02  0.00000000000E+00 0. -1.
</event>
<event>
 7    1  0.4687179E-006  0.1661904E+03  0.7561462E-02  0.1181880E+00
          1   -1    0    0  501    0  0.00000000000E+00  0.00000000000E+00  0.25536028554E+03  0.25536028554E+03  0.00000000000E+00 0. -1.
         -1   -1    0    0    0  501 -0.00000000000E+00 -0.00000000000E+00 -0.12380428579E+03  0.12380428579E+03  0.00000000000E+00 0.  1.
         23    2    1    2    0    0 -0.12145725453E+03 -0.74474017987E+02  0.70302645448E+02  0.17992112131E+03  0.84444679548E+02 0.  0.
          5    1    1    2  502    0  0.57843026230E+02  0.10355348944E+03  0.47482485917E+02  0.12783270210E+03  0.41800000000E+01 0.  1.
         -5    1    1    2    0  502  0.63614228296E+02 -0.29079471451E+02  0.13770868385E+02  0.71410747914E+02  0.41800000000E+01 0.  1.
        -11    1    3    3    0    0 -0.90321508601E+02 -0.45686746011E+02  0.40995339918E+01  0.10130182553E+03  0.00000000000E+00 0.  1.
         11    1    3    3    0    0 -0.31135745925E+02 -0.28787271976E+02  0.66203111456E+02  0.78619295778E+02  0.00000000000E+00 0. -1.
</event>
<event>
 7    1  0.4687179E-006  0.1073441E+03  0.7561462E-02  0.1265569E+00
         -1   -1    0    0    0  501 -0.00000000000E+00  0.00000000000E+00  0.34730827964E+02  0.34730827964E+02  0.00000000000E+00 0.  1.
          1   -1    0    0  501    0  0.00000000000E+00 -0.00000000000E+00 -0.50555138321E+03  0.50555138321E+03  0.00000000000E+00 0. -1.
         23    2    1    2    0    0  0.90883516265E+01  0.61724931079E+02 -0.30046937658E+03  0.31991090933E+03  0.90380188061E+02 0.  0.
          5    1    1    2  502    0 -0.13188298239E+02 -0.97850682329E+02 -0.97399608449E+02  0.13875461567E+03  0.41800000000E+01 0. -1.
         -5    1    1    2    0  502  0.40999466125E+01  0.36125751250E+02 -0.72951570216E+02  0.81616686178E+02  0.41800000000E+01 0. -1.
        -11    1    3    3    0    0  0.26801451341E+02  0.53285733528E+02 -0.29285021403E+03  0.29886273614E+03  0.00000000000E+00 0. -1.
         11    1    3    3    0    0 -0.17713099715E+02  0.84391975508E+01 -0.76191625443E+01  0.21048173191E+02  0.00000000000E+00 0.  1.
</event>
<event>
 7    1  0.4687179E-006  0.5551710E+02  0.7561462E-02  0.1417669E+00
         -1   -1    0    0    0  501 -0.00000000000E+00  0.00000000000E+00  0.40058374256E+02  0.40058374256E+02  0.00000000000E+00 0.  1.
          1   -1    0    0  501    0  0.00000000000E+00 -0.00000000000E+00 -0.36440734266E+03  0.36440734266E+03  0.00000000000E+00 0. -1.
         23    2    1    2    0    0 -0.28152917922E+02  0.15979602580E+02 -0.20049924784E+03  0.22548549160E+03  0.97958277095E+02 0.  0.
          5    1    1    2  502    0  0.18964536387E+02  0.96512896627E+01 -0.14350854653E+03  0.14513778406E+03  0.41800000000E+01 0.  1.
         -5    1    1    2    0  502  0.91883815349E+01 -0.25630892243E+02  0.19658825965E+02  0.33842441264E+02  0.41800000000E+01 0.  1.
        -11    1    3    3    0    0 -0.34004795322E+02 -0.97817165469E+01 -0.19540299517E+03  0.19858081127E+03  0.00000000000E+00 0. -1.
         11    1    3    3    0    0  0.58518774001E+01  0.25761319127E+02 -0.50962526683E+01  0.26904680328E+02  0.00000000000E+00 0.  1.
</event>
<event>
 7    1  0.4687179E-006  0.1134218E+03  0.7561462E-02  0.1254361E+00
          2   -1    0    0  501    0  0.00000000000E+00  0.00000000000E+00  0.46623431667E+02  0.46623431667E+02  0.00000000000E+00 0. -1.
         -2   -1    0    0    0  501 -0.00000000000E+00 -0.00000000000E+00 -0.27689670547E+03  0.27689670547E+03  0.00000000000E+00 0.  1.
         23    2    1    2    0    0 -0.33849737357E+02  0.24740648685E+01 -0.10737926143E+03  0.14490661017E+03  0.91190428063E+02 0.  0.
          5    1    1    2  502    0 -0.26437326330E+01  0.58337847555E+02 -0.53866071676E+02  0.79557022678E+02  0.41800000000E+01 0. -1.
         -5    1    1    2    0  502  0.36493469990E+02 -0.60811912424E+02 -0.69027940700E+02  0.99056504288E+02  0.41800000000E+01 0. -1.
        -11    1    3    3    0    0  0.74037471561E+01  0.40485108343E+02 -0.43160265994E+02  0.59637807054E+02  0.00000000000E+00 0. -1.
         11    1    3    3    0    0 -0.41253484513E+02 -0.38011043475E+02 -0.64218995432E+02  0.85268803116E+02  0.00000000000E+00 0.  1.
</event>
<event>
 7    1  0.4687179E-006  0.1291479E+03  0.7561462E-02  0.1228726E+00
         -2   -1    0    0    0  501 -0.00000000000E+00  0.00000000000E+00  0.10632417593E+02  0.10632417593E+02  0.00000000000E+00 0.  1.
          2   -1    0    0  501    0  0.00000000000E+00 -0.00000000000E+00 -0.27320207570E+04  0.27320207570E+04  0.00000000000E+00 0. -1.
         23    2    1    2    0    0  0.63669744618E+02 -0.95521229028E+02 -0.76860939966E+03  0.78250726119E+03  0.91537221933E+02 0.  0.
          5    1    1    2  502    0 -0.54190033565E+02  0.80655577978E+02 -0.64955843470E+03  0.65679944770E+03  0.41800000000E+01 0.  1.
         -5    1    1    2    0  502 -0.94797110529E+01  0.14865651050E+02 -0.13032205050E+04  0.13033464657E+04  0.41800000000E+01 0.  1.
        -11    1    3    3    0    0  0.53135084863E+02 -0.11165201811E+03 -0.71330693849E+03  0.72394495571E+03  0.00000000000E+00 0. -1.
         11    1    3    3    0    0  0.10534659754E+02  0.16130789084E+02 -0.55302461165E+02  0.58562305483E+02  0.00000000000E+00 0.  1.
</event>
<event>
 7    1  0.4687179E-006  0.1073599E+03  0.7561462E-02  0.1265538E+00
          1   -1    0    0  501    0  0.00000000000E+00  0.00000000000E+00  0.47508006183E+02  0.47508006183E+02  0.00000000000E+00 0. -1.
         -1   -1    0    0    0  501 -0.00000000000E+00 -0.00000000000E+00 -0.38911562778E+03  0.38911562778E+03  0.00000000000E+00 0.  1.
         23    2    1    2    0    0 -0.77034506347E+01 -0.65509975915E+02 -0.67219761029E+02  0.12793106999E+03  0.86585000428E+02 0.  0.
          5    1    1    2  502    0  0.62258728179E+02  0.10138474190E+02 -0.11197044875E+03  0.12858379247E+03  0.41800000000E+01 0.  1.
         -5    1    1    2    0  502 -0.54555277544E+02  0.55371501724E+02 -0.16241741182E+03  0.18010877151E+03  0.41800000000E+01 0.  1.
        -11    1    3    3    0    0 -0.20548031877E+02 -0.35554588774E+02 -0.82331986300E+02  0.92004925765E+02  0.00000000000E+00 0.  1.
         11    1    3    3    0    0  0.12844581242E+02 -0.29955387141E+02  0.15112225271E+02  0.35926144222E+02  0.00000000000E+00 0. -1.
</event>
<event>
 7    1  0.4687179E-006  0.1139263E+03  0.7561462E-02  0.1253467E+00
          1   -1    0    0  501    0  0.00000000000E+00  0.00000000000E+00  0.53475953004E+03  0.53475953004E+03  0.00000000000E+00 0. -1.
         -1   -1    0    0    0  501 -0.00000000000E+00 -0.00000000000E+00 -0.38685018949E+02  0.38685018949E+02  0.00000000000E+00 0.  1.
         23    2    1    2    0    0  0.71057137373E+02 -0.27548969324E+02  0.33447440919E+03  0.35533676987E+03  0.92644628223E+02 0.  0.
          5    1    1    2  502    0 -0.49606327546E+02  0.54603465816E+02  0.26335000157E+02  0.78443169524E+02  0.41800000000E+01 0. -1.
         -5    1    1    2    0  502 -0.21450809827E+02 -0.27054496491E+02  0.13526510174E+03  0.13966460959E+03  0.41800000000E+01 0. -1.
        -11    1    3    3    0    0  0.18913052907E+01 -0.47233287754E+02  0.11332026755E+03  0.12278454115E+03  0.00000000000E+00 0.  1.
         11    1    3    3    0    0  0.69165832082E+02  0.19684318430E+02  0.22115414164E+03  0.23255222872E+03  0.00000000000E+00 0. -1.
</event>
<event>
 7    1  0.4687179E-006  0.1593086E+03  0.7561462E-02  0.1189480E+00
          4   -1    0    0  501    0  0.00000000000E+00  0.00000000000E+00  0.13705052848E+04  0.13705052848E+04  0.00000000000E+00 0. -1.
         -4   -1    0    0    0  501 -0.00000000000E+00 -0.00000000000E+00 -0.20518221154E+02  0.20518221154E+02  0.00000000000E+00 0.  1.
         23    2    1    2    0    0 -0.37938702467E+02  0.12081099171E+03  0.56935427769E+03  0.59035517139E+03  0.91215645588E+02 0.  0.
          5    1    1    2  502    0 -0.19732406698E+02 -0.10392711413E+03  0.62275480209E+03  0.63168918691E+03  0.41800000000E+01 0. -1.
         -5    1    1    2    0  502  0.57671109165E+02 -0.16883877584E+02  0.15787798389E+03  0.16897914768E+03  0.41800000000E+01 0. -1.
        -11    1    3    3    0    0  0.13926217845E+02  0.92268931924E+02  0.28443123815E+03  0.29934699694E+03  0.00000000000E+00 0.  1.
         11    1    3    3    0    0 -0.51864920312E+02  0.28542059790E+02  0.28492303954E+03  0.29100817445E+03  0.00000000000E+00 0. -1.
</event>
<event>
 7    1  0.4687179E-006  0.1178223E+03  0.7561462E-02  0.1246733E+00
         -2   -1    0    0    0  501 -0.00000000000E+00  0.00000000000E+00  0.45399516350E+02  0.45399516350E+02  0.00000000000E+00 0.  1.
          2   -1    0    0  501    0  0.00000000000E+00 -0.00000000000E+00 -0.34101345806E+03  0.34101345806E+03  0.00000000000E+00 0. -1.
         23    2    1    2    0    0 -0.71062095993E+01  0.61438882951E+02 -0.13007897881E+03  0.16990796312E+03  0.90127357939E+02 0.  0.
          5    1    1    2  502    0  0.44979666044E+02  0.12361831407E+02 -0.10097605276E+03  0.11130867380E+03  0.41800000000E+01 0. -1.
         -5    1    1    2    0  502 -0.37873456445E+02 -0.73800714357E+02 -0.64558910139E+02  0.10519633749E+03  0.41800000000E+01 0. -1.
        -11    1    3    3    0    0  0.20869632560E+02  0.72670098314E+02 -0.11075080707E+03  0.13409782257E+03  0.00000000000E+00 0.  1.
         11    1    3    3    0    0 -0.27975842160E+02 -0.11231215363E+02 -0.19328171747E+02  0.35810140549E+02  0.00000000000E+00 0. -1.
</event>
<event>
 7    1  0.4687179E-006  0.7383567E+02  0.7561462E-02  0.1347515E+00
          3   -1    0    0  501    0  0.00000000000E+00  0.00000000000E+00  0.27364302172E+03  0.27364302172E+03  0.00000000000E+00 0. -1.
         -3   -1    0    0    0  501 -0.00000000000E+00 -0.00000000000E+00 -0.67567480735E+02  0.67567480735E+02  0.00000000000E+00 0.  1.
         23    2    1    2    0    0  0.36374793488E+02  0.22278540306E+02  0.18129607160E+03  0.20674973189E+03  0.89764843336E+02 0.  0.
          5    1    1    2  502    0  0.55254336958E+01 -0.24475140866E+02 -0.45716659752E+02  0.52316807212E+02  0.41800000000E+01 0. -1.
         -5    1    1    2    0  502 -0.41900227184E+02  0.21966005595E+01  0.70496129135E+02  0.82143963351E+02  0.41800000000E+01 0. -1.
        -11    1    3    3    0    0 -0.24420103996E+01 -0.21455064881E+02  0.66808639281E+01  0.22603476871E+02  0.00000000000E+00 0.  1.
         11    1    3    3    0    0  0.38816803888E+02  0.43733605187E+02  0.17461520767E+03  0.18414625502E+03  0.00000000000E+00 0. -1.
</event>
<event>
 7    1  0.4687179E-006  0.9993177E+02  0.7561462E-02  0.1280439E+00
          1   -1    0    0  501    0  0.00000000000E+00  0.00000000000E+00  0.34758292267E+03  0.34758292267E+03  0.00000000000E+00 0. -1.
         -1   -1    0    0    0  501 -0.00000000000E+00 -0.00000000000E+00 -0.70249797510E+02  0.70249797510E+02  0.00000000000E+00 0.  1.
         23    2    1    2    0    0 -0.29471798452E+02 -0.57744018442E+02  0.25223295071E+03  0.27473274682E+03  0.87485211214E+02 0.  0.
          5    1    1    2  502    0 -0.12825411281E+02  0.61564054163E+02 -0.32897642999E+02  0.71093960745E+02  0.41800000000E+01 0. -1.
         -5    1    1    2    0  502  0.42297209733E+02 -0.38200357203E+01  0.57997817455E+02  0.72006012622E+02  0.41800000000E+01 0. -1.
        -11    1    3    3    0    0 -0.51512420503E+02 -0.33751735460E+02  0.88682609623E+02  0.10796904354E+03  0.00000000000E+00 0.  1.
         11    1    3    3    0    0  0.22040622051E+02 -0.23992282983E+02  0.16355034108E+03  0.16676370328E+03  0.00000000000E+00 0. -1.
</event>
<event>
 7    1  0.4687179E-006  0.1806951E+03  0.7561462E-02  0.1167132E+00
          2   -1    0    0  501    0  0.00000000000E+00  0.00000000000E+00  0.38322446785E+03  0.38322446785E+03  0.00000000000E+00 0. -1.
         -2   -1    0    0    0  501 -0.00000000000E+00 -0.00000000000E+00 -0.10773699403E+03  0.10773699403E+03  0.00000000000E+00 0.  1.
         23    2    1    2    0    0 -0.83937997853E+02  0.86281188144E+02  0.23109669579E+03  0.27666038012E+03  0.92979848421E+02 0.  0.
          5    1    1    2  502    0  0.81381781569E+02 -0.13642405342E+03  0.39054903694E+02  0.16363763206E+03  0.41800000000E+01 0. -1.
         -5    1    1    2    0  502  0.25562162838E+01  0.50142865279E+02  0.53358743346E+01  0.50663449695E+02  0.41800000000E+01 0.  1.
        -11    1    3    3    0    0 -0.14241770083E+02  0.80957425531E+02  0.12576561868E+03  0.15024620996E+03  0.00000000000E+00 0.  1.
         11    1    3    3    0    0 -0.69696227769E+02  0.53237626126E+01  0.10533107711E+03  0.12641417017E+03  0.00000000000E+00 0. -1.
</event>
<event>
 7    1  0.4687179E-006  0.1984678E+03  0.7561462E-02  0.1151038E+00
         -1   -1    0    0    0  501 -0.00000000000E+00  0.00000000000E+00  0.14616561944E+03  0.14616561944E+03  0.00000000000E+00 0.  1.
          1   -1    0    0  501    0  0.00000000000E+00 -0.00000000000E+00 -0.33924563192E+03  0.33924563192E+03  0.00000000000E+00 0. -1.
         23    2    1    2    0    0 -0.86393546392E+02  0.17294297415E+03 -0.11273713293E+03  0.24153644867E+03  0.90868463886E+02 0.  0.
          5    1    1    2  502    0 -0.62347234048E+01 -0.52423282877E+01 -0.48821284014E+02  0.49672366107E+02  0.41800000000E+01 0.  1.
         -5    1    1    2    0  502  0.92628269796E+02 -0.16770064586E+03 -0.31521595535E+02  0.19420243658E+03  0.41800000000E+01 0.  1.
        -11    1    3    3    0    0 -0.84300157463E+02  0.14199091303E+03 -0.12608624592E+03  0.20776351302E+03  0.00000000000E+00 0. -1.
         11    1    3    3    0    0 -0.20933889283E+01  0.30952061118E+02  0.13349112993E+02  0.33772935649E+02  0.00000000000E+00 0.  1.
</event>
<event>
 7    1  0.4687179E-006  0.1041557E+03  0.7561462E-02  0.1271792E+00
          3   -1    0    0  501    0  0.00000000000E+00  0.00000000000E+00  0.81753628960E+03  0.81753628960E+03  0.00000000000E+00 0. -1.
         -3   -1    0    0    0  501 -0.00000000000E+00 -0.00000000000E+00 -0.16059043196E+02  0.16059043196E+02  0.00000000000E+00 0.  1.
         23    2    1    2    0    0  0.16432050236E+02  0.26543231056E+02  0.23588230998E+03  0.25349174621E+03  0.87424515139E+02 0.  0.
          5    1    1    2  502    0 -0.60837462651E+02  0.10251776658E+02  0.18302195762E+03  0.19318593416E+03  0.41800000000E+01 0. -1.
         -5    1    1    2    0  502  0.44405412415E+02 -0.36795007714E+02  0.38257297881E+03  0.38691765243E+03  0.41800000000E+01 0. -1.
        -11    1    3    3    0    0 -0.32850217081E+02  0.21168460177E+02  0.14255694763E+03  0.14781652068E+03  0.00000000000E+00 0.  1.
         11    1    3    3    0    0  0.49282267316E+02  0.53747708793E+01  0.93325362349E+02  0.10567522553E+03  0.00000000000E+00 0. -1.
</event>
<event>
 7    1  0.4687179E-006  0.1001582E+03  0.7561462E-02  0.1279964E+00
          2   -1    0    0  501    0  0.00000000000E+00  0.00000000000E+00  0.79571244324E+03  0.79571244324E+03  0.00000000000E+00 0. -1.
         -2   -1    0    0    0  501 -0.00000000000E+00 -0.00000000000E+00 -0.16208142794E+02  0.16208142794E+02  0.00000000000E+00 0.  1.
         23    2    1    2    0    0  0.19030890266E+02 -0.16989376056E+02  0.29822053631E+03  0.31399224462E+03  0.94893770717E+02 0.  0.
          5    1    1    2  502    0 -0.30912187757E+02 -0.36268063982E+02  0.37824426213E+03  0.38125730163E+03  0.41800000000E+01 0.  1.
         -5    1    1    2    0  502  0.11881297491E+02  0.53257440038E+02  0.10303950201E+03  0.11667103978E+03  0.41800000000E+01 0.  1.
        -11    1    3    3    0    0  0.38655557528E+02 -0.47644795958E+02  0.20223939872E+03  0.21134108239E+03  0.00000000000E+00 0. -1.
         11    1    3    3    0    0 -0.19624667262E+02  0.30655419903E+02  0.95981137586E+02  0.10265116223E+03  0.00000000000E+00 0.  1.
</event>
<event>
 7    1  0.4687179E-006  0.1133622E+03  0.7561462E-02  0.1254467E+00
          2   -1    0    0  501    0  0.00000000000E+00  0.00000000000E+00  0.51831694197E+03  0.51831694197E+03  0.00000000000E+00 0. -1.
         -2   -1    0    0    0  501 -0.00000000000E+00 -0.00000000000E+00 -0.40046948382E+02  0.40046948382E+02  0.00000000000E+00 0.  1.
         23    2    1    2    0    0  0.64199791555E+02  0.27928872521E+02  0.32687106643E+03  0.34607805043E+03  0.89575039865E+02 0.  0.
          5    1    1    2  502    0  0.18268341589E+02  0.37019761777E+02  0.60511658779E+02  0.73371168142E+02  0.41800000000E+01 0. -1.
         -5    1    1    2    0  502 -0.82468133144E+02 -0.64948634298E+02  0.90887268382E+02  0.13891467178E+03  0.41800000000E+01 0.  1.
        -11    1    3    3    0    0  0.74104465606E+01  0.21837121029E+02  0.11860569988E+02  0.25931596432E+02  0.00000000000E+00 0.  1.
         11    1    3    3    0    0  0.56789344994E+02  0.60917514914E+01  0.31501049644E+03  0.32014645400E+03  0.00000000000E+00 0. -1.
</event>
<event>
 7    1  0.4687179E-006  0.1653431E+03  0.7561462E-02  0.1182793E+00
         -2   -1    0    0    0  501 -0.00000000000E+00  0.00000000000E+00  0.20685600638E+03  0.20685600638E+03  0.00000000000E+00 0.  1.
          2   -1    0    0  501    0  0.00000000000E+00 -0.00000000000E+00 -0.39973755096E+03  0.39973755096E+03  0.00000000000E+00 0. -1.
         23    2    1    2    0    0 -0.15765182162E+02  0.15816467114E+03 -0.31975814682E+03  0.36782723797E+03  0.88243982051E+02 0.  0.
          5    1    1    2  502    0 -0.51821000215E+01 -0.79997465254E+02  0.13527421907E+03  0.15729919056E+03  0.41800000000E+01 0.  1.
         -5    1    1    2    0  502  0.20947282183E+02 -0.78167205887E+02 -0.83976168239E+01  0.81467128803E+02  0.41800000000E+01 0.  1.
        -11    1    3    3    0    0 -0.28586249739E+02  0.33423843510E+02 -0.33430707954E+02  0.55244359200E+02  0.00000000000E+00 0.  1.
         11    1    3    3    0    0  0.12821067577E+02  0.12474082763E+03 -0.28632743887E+03  0.31258287877E+03  0.00000000000E+00 0. -1.
</event>
<event>
 7    1  0.4687179E-006  0.2075435E+03  0.7561462E-02  0.1143526E+00
         -2   -1    0    0    0  501 -0.00000000000E+00  0.00000000000E+00  0.40233083766E+02  0.40233083766E+02  0.00000000000E+00 0.  1.
          2   -1    0    0  501    0  0.00000000000E+00 -0.00000000000E+00 -0.13048322866E+04  0.13048322866E+04  0.00000000000E+00 0. -1.
         23    2    1    2    0    0  0.15209756396E+03 -0.10893087230E+03 -0.82751319968E+03  0.85344379105E+03  0.92674726584E+02 0.  0.
          5    1    1    2  502    0 -0.75037956973E+02 -0.17207332461E+02 -0.15597928016E+03  0.17399366517E+03  0.41800000000E+01 0. -1.
         -5    1    1    2    0  502 -0.77059606990E+02  0.12613820476E+03 -0.28110672294E+03  0.31762791410E+03  0.41800000000E+01 0. -1.
        -11    1    3    3    0    0  0.42229773183E+02 -0.12796742251E+02 -0.75993040495E+02  0.87875210150E+02  0.00000000000E+00 0.  1.
         11    1    3    3    0    0  0.10986779078E+03 -0.96134130048E+02 -0.75152015918E+03  0.76556858090E+03  0.00000000000E+00 0. -1.
</event>
<event>
 7    1  0.4687179E-006  0.1191986E+03  0.7561462E-02  0.1244425E+00
          2   -1    0    0  501    0  0.00000000000E+00  0.00000000000E+00  0.38659453234E+03  0.38659453234E+03  0.00000000000E+00 0. -1.
         -2   -1    0    0    0  501 -0.00000000000E+00 -0.00000000000E+00 -0.55178039900E+02  0.55178039900E+02  0.00000000000E+00 0.  1.
         23    2    1    2    0    0  0.43254397497E+02  0.27470411100E+02  0.27548287989E+03  0.29547839378E+03  0.93760853706E+02 0.  0.
          5    1    1    2  502    0 -0.86592302399E+02 -0.18757684231E+02  0.24920247805E+02  0.92133428804E+02  0.41800000000E+01 0.  1.
         -5    1    1    2    0  502  0.43337904902E+02 -0.87127268692E+01  0.31013364745E+02  0.54160749659E+02  0.41800000000E+01 0.  1.
        -11    1    3    3    0    0  0.32007224572E+02  0.61568138312E+02  0.20411547626E+03  0.21558809273E+03  0.00000000000E+00 0.  1.
         11    1    3    3    0    0  0.11247172925E+02 -0.34097727211E+02  0.71367403631E+02  0.79890301043E+02  0.00000000000E+00 0. -1.
</event>
<event>
 7    1  0.4687179E-006  0.1711629E+03  0.7561462E-02  0.1176641E+00
         -2   -1    0    0    0  501 -0.00000000000E+00  0.00000000000E+00  0.10780825831E+03  0.10780825831E+03  0.00000000000E+00 0.  1.
          2   -1    0    0  501    0  0.00000000000E+00 -0.00000000000E+00 -0.39460874426E+03  0.39460874426E+03  0.00000000000E+00 0. -1.
         23    2    1    2    0    0  0.60626883992E+02  0.15825389142E+03 -0.18481539871E+03  0.26838684143E+03  0.95680989954E+02 0.  0.
          5    1    1    2  502    0 -0.42026573233E+02 -0.10784874141E+03 -0.12931911294E+03  0.17360440447E+03  0.41800000000E+01 0. -1.
         -5    1    1    2    0  502 -0.18600310759E+02 -0.50405150017E+02  0.27334025692E+02  0.60425756669E+02  0.41800000000E+01 0. -1.
        -11    1    3    3    0    0  0.32878672315E+02  0.12525115781E+03 -0.73243623053E+02  0.14877327698E+03  0.00000000000E+00 0.  1.
         11    1    3    3    0    0  0.27748211677E+02  0.33002733619E+02 -0.11157177566E+03  0.11961356445E+03  0.00000000000E+00 0. -1.
</event>
<event>
 7    1  0.4687179E-006  0.1825215E+03  0.7561462E-02  0.1165385E+00
         -2   -1    0    0    0  501 -0.00000000000E+00  0.00000000000E+00  0.10247248381E+03  0.10247248381E+03  0.00000000000E+00 0.  1.
          2   -1    0    0  501    0  0.00000000000E+00 -0.00000000000E+00 -0.37219562456E+03  0.37219562456E+03  0.00000000000E+00 0. -1.
         23    2    1    2    0    0  0.69592204808E+02  0.14529121514E+03 -0.13868309542E+03  0.23223873332E+03  0.93537244636E+02 0.  0.
          5    1    1    2  502    0 -0.95481515096E+02 -0.14925867750E+03 -0.11753561042E+03  0.21266632232E+03  0.41800000000E+01 0. -1.
         -5    1    1    2    0  502  0.25889310288E+02  0.39674623617E+01 -0.13504434921E+02  0.29763052722E+02  0.41800000000E+01 0. -1.
        -11    1    3    3    0    0  0.60518068425E+02  0.13174778827E+03 -0.68798512130E+02  0.16047788506E+03  0.00000000000E+00 0.  1.
         11    1    3    3    0    0  0.90741363829E+01  0.13543426863E+02 -0.69884583289E+02  0.71760848265E+02  0.00000000000E+00 0. -1.
</event>
<event>
 7    1  0.4687179E-006  0.8887505E+02  0.7561462E-02  0.1305599E+00
         -2   -1    0    0    0  501 -0.00000000000E+00  0.00000000000E+00  0.29348583014E+03  0.29348583014E+03  0.00000000000E+00 0.  1.
          2   -1    0    0  501    0  0.00000000000E+00 -0.00000000000E+00 -0.54043541691E+02  0.54043541691E+02  0.00000000000E+00 0. -1.
         23    2    1    2    0    0  0.11801323419E+02  0.28677504731E+00  0.17551347872E+02  0.92533941644E+02  0.90084000076E+02 0.  0.
          5    1    1    2  502    0  0.38169447144E+02 -0.42629890336E+02  0.12975872524E+03  0.14187675434E+03  0.41800000000E+01 0. -1.
         -5    1    1    2    0  502 -0.49970770563E+02  0.42343115289E+02  0.92132215332E+02  0.11311867585E+03  0.41800000000E+01 0. -1.
        -11    1    3    3    0    0  0.30628868200E+02  0.11632645755E+02 -0.27260227845E+02  0.42621192342E+02  0.00000000000E+00 0. -1.
         11    1    3    3    0    0 -0.18827544781E+02 -0.11345870708E+02  0.44811575718E+02  0.49912749302E+02  0.00000000000E+00 0.  1.
</event>
<event>
 7    1  0.4687179E-006  0.1626860E+03  0.7561462E-02  0.1185697E+00
         -2   -1    0    0    0  501 -0.00000000000E+00  0.00000000000E+00  0.14883769211E+03  0.14883769211E+03  0.00000000000E+00 0. -1.
          2   -1    0    0  501    0  0.00000000000E+00 -0.00000000000E+00 -0.37404820079E+03  0.37404820079E+03  0.00000000000E+00 0.  1.
         23    2    1    2    0    0  0.52246336357E+01  0.13983018330E+03 -0.28271903238E+03  0.32658152260E+03  0.84532021581E+02 0.  0.
          5    1    1    2  502    0  0.57435997600E+02 -0.54398144695E+02  0.90772056368E+01  0.79736566447E+02  0.41800000000E+01 0.  1.
         -5    1    1    2    0  502 -0.62660631236E+02 -0.85432038608E+02  0.48431318062E+02  0.11656780386E+03  0.41800000000E+01 0.  1.
        -11    1    3    3    0    0  0.69222751640E+01  0.90641051428E+02 -0.25358559693E+03  0.26938703211E+03  0.00000000000E+00 0.  1.
         11    1    3    3    0    0 -0.16976415284E+01  0.49189131875E+02 -0.29133435454E+02  0.57194490493E+02  0.00000000000E+00 0. -1.
</event>
<event>
 7    1  0.4687179E-006  0.1104987E+03  0.7561462E-02  0.1259649E+00
         -2   -1    0    0    0  501 -0.00000000000E+00  0.00000000000E+00  0.45646491447E+02  0.45646491447E+02  0.00000000000E+00 0. -1.
          2   -1    0    0  501    0  0.00000000000E+00 -0.00000000000E+00 -0.42084913448E+03  0.42084913448E+03  0.00000000000E+00 0.  1.
         23    2    1    2    0    0  0.21486704538E+02  0.80919795380E+02 -0.21266543515E+03  0.24498754358E+03  0.88219144448E+02 0.  0.
          5    1    1    2  502    0  0.31561372371E+02  0.60086246967E+01 -0.34639015413E+01  0.32583658643E+02  0.41800000000E+01 0. -1.
         -5    1    1    2    0  502 -0.53048076909E+02 -0.86928420076E+02 -0.15907330635E+03  0.18892442371E+03  0.41800000000E+01 0. -1.
        -11    1    3    3    0    0  0.25870062250E+02  0.60634858967E+02 -0.21426097013E+03  0.22417316869E+03  0.00000000000E+00 0.  1.
         11    1    3    3    0    0 -0.43833577115E+01  0.20284936413E+02  0.15955349779E+01  0.20814374888E+02  0.00000000000E+00 0. -1.
</event>
<event>
 7    1  0.4687179E-006  0.1007980E+03  0.7561462E-02  0.1278627E+00
         -2   -1    0    0    0  501 -0.00000000000E+00  0.00000000000E+00  0.20180142480E+02  0.20180142480E+02  0.00000000000E+00 0.  1.
          2   -1    0    0  501    0  0.00000000000E+00 -0.00000000000E+00 -0.77306159401E+03  0.77306159401E+03  0.00000000000E+00 0. -1.
         23    2    1    2    0    0  0.60188000822E+02 -0.13906795431E+02 -0.35335650905E+03  0.37005846314E+03  0.90920015716E+02 0.  0.
          5    1    1    2  502    0 -0.10037190931E+02 -0.25959463944E+02 -0.31880317719E+03  0.32004308641E+03  0.41800000000E+01 0.  1.
         -5    1    1    2    0  502 -0.50150809891E+02  0.39866259375E+02 -0.80721765290E+02  0.10314018693E+03  0.41800000000E+01 0.  1.
        -11    1    3    3    0    0  0.44489821388E+02  0.35811186163E+02 -0.20501334626E+03  0.21281977682E+03  0.00000000000E+00 0.  1.
         11    1    3    3    0    0  0.15698179433E+02 -0.49717981594E+02 -0.14834316278E+03  0.15723868632E+03  0.00000000000E+00 0. -1.
</event>
<event>
 7    1  0.4687179E-006  0.1432075E+03  0.7561462E-02  0.1209077E+00
          1   -1    0    0  501    0  0.00000000000E+00  0.00000000000E+00  0.48122023414E+03  0.48122023414E+03  0.00000000000E+00 0. -1.
         -1   -1    0    0    0  501 -0.00000000000E+00 -0.00000000000E+00 -0.43824331483E+02  0.43824331483E+02  0.00000000000E+00 0.  1.
         23    2    1    2    0    0  0.36811800208E+02  0.88348909073E+02  0.21243058384E+03  0.25042115141E+03  0.91778874248E+02 0.  0.
          5    1    1    2  502    0  0.24463987689E+02 -0.89119601651E+02  0.10566851183E+03  0.14044250384E+03  0.41800000000E+01 0. -1.
         -5    1    1    2    0  502 -0.61275787896E+02  0.77069257800E+00  0.11929680698E+03  0.13418091036E+03  0.41800000000E+01 0. -1.
        -11    1    3    3    0    0 -0.22588614420E+02 -0.37404689872E+01  0.40931372964E+02  0.46900041603E+02  0.00000000000E+00 0. -1.
         11    1    3    3    0    0  0.59400414627E+02  0.92089378061E+02  0.17149921087E+03  0.20352110981E+03  0.00000000000E+00 0.  1.
</event>
<event>
 7    1  0.4687179E-006  0.1215180E+03  0.7561462E-02  0.1240614E+00
          2   -1    0    0  501    0  0.00000000000E+00  0.00000000000E+00  0.53463573405E+03  0.53463573405E+03  0.00000000000E+00 0. -1.
         -2   -1    0    0    0  501 -0.00000000000E+00 -0.00000000000E+00 -0.30058392772E+02  0.30058392772E+02  0.00000000000E+00 0.  1.
         23    2    1    2    0    0 -0.10900345146E+02  0.51043099697E+02  0.29543037865E+03  0.31546724778E+03  0.97551321055E+02 0.  0.
          5    1    1    2  502    0  0.53780712849E+02  0.14157624307E+02  0.10647375479E+03  0.12019540865E+03  0.41800000000E+01 0.  1.
         -5    1    1    2    0  502 -0.42880367703E+02 -0.65200724005E+02  0.10267320783E+03  0.12903147039E+03  0.41800000000E+01 0.  1.
        -11    1    3    3    0    0  0.42266878097E+02  0.14850521420E+02  0.14766298853E+03  0.15430938129E+03  0.00000000000E+00 0. -1.
         11    1    3    3    0    0 -0.53167223243E+02  0.36192578278E+02  0.14776739012E+03  0.16115786649E+03  0.00000000000E+00 0.  1.
</event>
<event>
 7    1  0.4687179E-006  0.1399680E+03  0.7561462E-02  0.1213372E+00
          1   -1    0    0  501    0  0.00000000000E+00  0.00000000000E+00  0.96707502264E+03  0.96707502264E+03  0.00000000000E+00 0. -1.
         -1   -1    0    0    0  501 -0.00000000000E+00 -0.00000000000E+00 -0.20620030500E+02  0.20620030500E+02  0.00000000000E+00 0.  1.
         23    2    1    2    0    0  0.78005395248E+02  0.45601540754E+02  0.43700534335E+03  0.45538693712E+03  0.90770315531E+02 0.  0.
          5    1    1    2  502    0 -0.10623373604E+03 -0.99683578953E+01  0.31636170607E+03  0.33389695461E+03  0.41800000000E+01 0. -1.
         -5    1    1    2    0  502  0.28228340792E+02 -0.35633182859E+02  0.19308794273E+03  0.19841116141E+03  0.41800000000E+01 0. -1.
        -11    1    3    3    0    0  0.89204194096E+02  0.95055075723E+01  0.28699227581E+03  0.30068639693E+03  0.00000000000E+00 0.  1.
         11    1    3    3    0    0 -0.11198798848E+02  0.36096033182E+02  0.15001306753E+03  0.15470054020E+03  0.00000000000E+00 0. -1.
</event>
<event>
 7    1  0.4687179E-006  0.2063080E+03  0.7561462E-02  0.1144523E+00
          1   -1    0    0  501    0  0.00000000000E+00  0.00000000000E+00  0.72578053387E+03  0.72578053387E+03  0.00000000000E+00 0. -1.
         -1   -1    0    0    0  501 -0.00000000000E+00 -0.00000000000E+00 -0.64740274615E+02  0.64740274615E+02  0.00000000000E+00 0.  1.
         23    2    1    2    0    0 -0.17295943331E+03 -0.47396234891E+02  0.41593620290E+03  0.46205247828E+03  0.91258967540E+02 0.  0.
          5    1    1    2  502    0  0.16457711909E+03 -0.51580332209E+01  0.17454683717E+03  0.23999230030E+03  0.41800000000E+01 0. -1.
         -5    1    1    2    0  502  0.83823142218E+01  0.52554268111E+02  0.70557219184E+02  0.88476029903E+02  0.41800000000E+01 0. -1.
        -11    1    3    3    0    0 -0.11120637784E+02  0.17023439796E+02  0.16150826946E+02  0.25967581679E+02  0.00000000000E+00 0.  1.
         11    1    3    3    0    0 -0.16183879553E+03 -0.64419674686E+02  0.39978537595E+03  0.43608489661E+03  0.00000000000E+00 0. -1.
</event>
<event>
 7    1  0.4687179E-006  0.1068470E+03  0.7561462E-02  0.1266523E+00
         -1   -1    0    0    0  501 -0.00000000000E+00  0.00000000000E+00  0.10653101572E+03  0.10653101572E+03  0.00000000000E+00 0.  1.
          1   -1    0    0  501    0  0.00000000000E+00 -0.00000000000E+00 -0.17281982593E+03  0.17281982593E+03  0.00000000000E+00 0. -1.
         23    2    1    2    0    0 -0.22968796547E+02 -0.73939036277E+02 -0.53682844306E+02  0.13169689842E+03  0.92019990110E+02 0.  0.
          5    1    1    2  502    0 -0.16934028917E+02  0.46850913287E+02  0.48529402675E+02  0.69673127783E+02  0.41800000000E+01 0. -1.
         -5    1    1    2    0  502  0.39902825463E+02  0.27088122990E+02 -0.61135368575E+02  0.77980815448E+02  0.41800000000E+01 0. -1.
        -11    1    3    3    0    0  0.28875897769E+02 -0.50982981278E+02 -0.85199849148E+01  0.59208715531E+02  0.00000000000E+00 0.  1.
         11    1    3    3    0    0 -0.51844694316E+02 -0.22956054999E+02 -0.45162859391E+02  0.72488182887E+02  0.00000000000E+00 0. -1.
</event>
<event>
 7    1  0.4687179E-006  0.1000402E+03  0.7561462E-02  0.1280212E+00
         -2   -1    0    0    0  501 -0.00000000000E+00  0.00000000000E+00  0.29117728732E+03  0.29117728732E+03  0.00000000000E+00 0.  1.
          2   -1    0    0  501    0  0.00000000000E+00 -0.00000000000E+00 -0.77626413219E+02  0.77626413219E+02  0.00000000000E+00 0. -1.
         23    2    1    2    0    0  0.13492353461E+02 -0.12028967691E+02 -0.26370738661E+02  0.97627072387E+02  0.92243643357E+02 0.  0.
          5    1    1    2  502    0 -0.12248432641E+02  0.66670490064E+02  0.99817600757E+02  0.12073112345E+03  0.41800000000E+01 0. -1.
         -5    1    1    2    0  502 -0.12439208194E+01 -0.54641522372E+02  0.14010401200E+03  0.15044550470E+03  0.41800000000E+01 0. -1.
        -11    1    3    3    0    0 -0.31176780648E+02 -0.95730595280E+01 -0.39290258995E+02  0.51062310682E+02  0.00000000000E+00 0. -1.
         11    1    3    3    0    0  0.44669134109E+02 -0.24559081633E+01  0.12919520334E+02  0.46564761705E+02  0.00000000000E+00 0.  1.
</event>
<event>
 7    1  0.4687179E-006  0.1750856E+03  0.7561462E-02  0.1172646E+00
          1   -1    0    0  501    0  0.00000000000E+00  0.00000000000E+00  0.13518971755E+03  0.13518971755E+03  0.00000000000E+00 0. -1.
         -1   -1    0    0    0  501 -0.00000000000E+00 -0.00000000000E+00 -0.27494528590E+03  0.27494528590E+03  0.00000000000E+00 0.  1.
         23    2    1    2    0    0  0.14966056638E+03  0.50269640394E+02 -0.46127170637E+02  0.18796972338E+03  0.90992192856E+02 0.  0.
          5    1    1    2  502    0 -0.56306435945E+02 -0.55276537484E+02 -0.10106697008E+03  0.12828840620E+03  0.41800000000E+01 0. -1.
         -5    1    1    2    0  502 -0.93354130439E+02  0.50068970901E+01  0.74385723649E+01  0.93876873869E+02  0.41800000000E+01 0. -1.
        -11    1    3    3    0    0  0.29315253463E+02  0.49144569987E+02  0.45077138671E+01  0.57401152681E+02  0.00000000000E+00 0. -1.
         11    1    3    3    0    0  0.12034531292E+03  0.11250704069E+01 -0.50634884504E+02  0.13056857070E+03  0.00000000000E+00 0.  1.
</event>
<event>
 7    1  0.4687179E-006  0.1386468E+03  0.7561462E-02  0.1215161E+00
         -1   -1    0    0    0  501 -0.00000000000E+00  0.00000000000E+00  0.36832992570E+03  0.36832992570E+03  0.00000000000E+00 0.  1.
          1   -1    0    0  501    0  0.00000000000E+00 -0.00000000000E+00 -0.60731581150E+02  0.60731581150E+02  0.00000000000E+00 0. -1.
         23    2    1    2    0    0 -0.99643828962E+02  0.11125338628E+02  0.11094320850E+03  0.17534090445E+03  0.91560752790E+02 0.  0.
          5    1    1    2  502    0  0.91128222227E+02  0.44722317541E+02  0.14504885782E+03  0.17709060429E+03  0.41800000000E+01 0.  1.
         -5    1    1    2    0  502  0.85156067347E+01 -0.55847656169E+02  0.51606278226E+02  0.76629998108E+02  0.41800000000E+01 0.  1.
        -11    1    3    3    0    0 -0.77730485364E+02 -0.20672026657E+02  0.11056023538E+03  0.13672207828E+03  0.00000000000E+00 0.  1.
         11    1    3    3    0    0 -0.21913343598E+02  0.31797365285E+02  0.38297312117E+00  0.38618826175E+02  0.00000000000E+00 0. -1.
</event>
<event>
 7    1  0.4687179E-006  0.8568136E+02  0.7561462E-02  0.1313660E+00
          1   -1    0    0  501    0  0.00000000000E+00  0.00000000000E+00  0.15443567073E+03  0.15443567073E+03  0.00000000000E+00 0. -1.
         -1   -1    0    0    0  501 -0.00000000000E+00 -0.00000000000E+00 -0.84696996895E+02  0.84696996895E+02  0.00000000000E+00 0.  1.
         23    2    1    2    0    0  0.26619180236E+02  0.19826224085E+02  0.37717813596E+02  0.10581145835E+03  0.93122346066E+02 0.  0.
          5    1    1    2  502    0  0.10824413998E+02  0.42147657812E+02 -0.15759341113E+02  0.46469583921E+02  0.41800000000E+01 0. -1.
         -5    1    1    2    0  502 -0.37443594234E+02 -0.61973881897E+02  0.47780201356E+02  0.86851625363E+02  0.41800000000E+01 0. -1.
        -11    1    3    3    0    0  0.38852482352E+02  0.12285109105E+02 -0.20662891864E+02  0.45688011456E+02  0.00000000000E+00 0.  1.
         11    1    3    3    0    0 -0.12233302116E+02  0.75411149802E+01  0.58380705460E+02  0.60123446889E+02  0.00000000000E+00 0. -1.
</event>
<event>
 7    1  0.4687179E-006  0.2066788E+03  0.7561462E-02  0.1144223E+00
          2   -1    0    0  501    0  0.00000000000E+00  0.00000000000E+00  0.74921420740E+03  0.74921420740E+03  0.00000000000E+00 0. -1.
         -2   -1    0    0    0  501 -0.00000000000E+00 -0.00000000000E+00 -0.71490141984E+02  0.71490141984E+02  0.00000000000E+00 0.  1.
         23    2    1    2    0    0  0.19800127407E+03 -0.56254807755E+02  0.28938252615E+03  0.36373174814E+03  0.78672932010E+02 0.  0.
          5    1    1    2  502    0 -0.10815141181E+03  0.26739659671E+02  0.87901905703E+02  0.14197166866E+03  0.41800000000E+01 0. -1.
         -5    1    1    2    0  502 -0.89849862261E+02  0.29515148084E+02  0.30043963356E+03  0.31500093258E+03  0.41800000000E+01 0. -1.
        -11    1    3    3    0    0  0.16555319906E+03 -0.37572269762E+02  0.27588269583E+03  0.32393023791E+03  0.00000000000E+00 0.  1.
         11    1    3    3    0    0  0.32448075009E+02 -0.18682537993E+02  0.13499830326E+02  0.39801510228E+02  0.00000000000E+00 0. -1.
</event>
<event>
 7    1  0.4687179E-006  0.1049906E+03  0.7561462E-02  0.1270138E+00
          4   -1    0    0  501    0  0.00000000000E+00  0.00000000000E+00  0.43245002450E+02  0.43245002450E+02  0.00000000000E+00 0. -1.
         -4   -1    0    0    0  501 -0.00000000000E+00 -0.00000000000E+00 -0.35237514160E+03  0.35237514160E+03  0.00000000000E+00 0.  1.
         23    2    1    2    0    0 -0.12323562674E+02  0.30695851207E+02 -0.56789994571E+02  0.11204346198E+03  0.90744302364E+02 0.  0.
          5    1    1    2  502    0 -0.33281853716E+01  0.45490609068E+02 -0.13654580742E+03  0.14402326984E+03  0.41800000000E+01 0. -1.
         -5    1    1    2    0  502  0.15651748046E+02 -0.76186460274E+02 -0.11579433716E+03  0.13955341222E+03  0.41800000000E+01 0. -1.
        -11    1    3    3    0    0 -0.22535022744E+02  0.55264182199E+02 -0.13434920249E+02  0.61175601070E+02  0.00000000000E+00 0.  1.
         11    1    3    3    0    0  0.10211460069E+02 -0.24568330992E+02 -0.43355074322E+02  0.50867860914E+02  0.00000000000E+00 0. -1.
</event>
<event>
 7    1  0.4687179E-006  0.1064102E+03  0.7561462E-02  0.1267366E+00
          2   -1    0    0  501    0  0.00000000000E+00  0.00000000000E+00  0.13287861818E+03  0.13287861818E+03  0.00000000000E+00 0. -1.
         -2   -1    0    0    0  501 -0.00000000000E+00 -0.00000000000E+00 -0.96297616700E+02  0.96297616700E+02  0.00000000000E+00 0.  1.
         23    2    1    2    0    0 -0.80598117534E+01 -0.30579431304E+02  0.19805650196E+02  0.99064706318E+02  0.91768676976E+02 0.  0.
          5    1    1    2  502    0 -0.26156130133E+02  0.70521401033E+02  0.21503267066E+01  0.75362506939E+02  0.41800000000E+01 0. -1.
         -5    1    1    2    0  502  0.34215941886E+02 -0.39941969729E+02  0.14625024580E+02  0.54749021626E+02  0.41800000000E+01 0. -1.
        -11    1    3    3    0    0  0.28459178843E+02  0.99736549769E+01 -0.15660221075E+02  0.33980011450E+02  0.00000000000E+00 0.  1.
         11    1    3    3    0    0 -0.36518990597E+02 -0.40553086281E+02  0.35465871271E+02  0.65084694868E+02  0.00000000000E+00 0. -1.
</event>
<event>
 7    1  0.4687179E-006  0.3042275E+03  0.7561462E-02  0.1083146E+00
         -1   -1    0    0    0  501 -0.00000000000E+00  0.00000000000E+00  0.29302424917E+03  0.29302424917E+03  0.00000000000E+00 0.  1.
          1   -1    0    0  501    0  0.00000000000E+00 -0.00000000000E+00 -0.36375551475E+03  0.36375551475E+03  0.00000000000E+00 0. -1.
         23    2    1    2    0    0 -0.57725847392E+01  0.29364043752E+03 -0.12686373256E+03  0.33265839598E+03  0.91154662477E+02 0.  0.
          5    1    1    2  502    0 -0.40591822838E+02 -0.12395492669E+03  0.69144825116E+02  0.14768547380E+03  0.41800000000E+01 0.  1.
         -5    1    1    2    0  502  0.46364407577E+02 -0.16968551083E+03 -0.13012358140E+02  0.17643589414E+03  0.41800000000E+01 0.  1.
        -11    1    3    3    0    0  0.32102563151E+02  0.11551424360E+03 -0.81545814514E+02  0.14499598236E+03  0.00000000000E+00 0. -1.
         11    1    3    3    0    0 -0.37875147891E+02  0.17812619392E+03 -0.45317918050E+02  0.18766241362E+03  0.00000000000E+00 0.  1.
</event>
<event>
 7    1  0.4687179E-006  0.9571923E+02  0.7561462E-02  0.1289564E+00
          1   -1    0    0  501    0  0.00000000000E+00  0.00000000000E+00  0.28821686858E+02  0.28821686858E+02  0.00000000000E+00 0. -1.
         -1   -1    0    0    0  501 -0.00000000000E+00 -0.00000000000E+00 -0.49815428655E+03  0.49815428655E+03  0.00000000000E+00 0.  1.
         23    2    1    2    0    0  0.31422065552E+02  0.26427105545E+02 -0.12264241800E+03  0.15844173018E+03  0.91525302842E+02 0.  0.
          5    1    1    2  502    0  0.23074361059E+02  0.35148286593E+02 -0.13201327420E+03  0.13861026352E+03  0.41800000000E+01 0. -1.
         -5    1    1    2    0  502 -0.54496426611E+02 -0.61575392138E+02 -0.21467690750E+03  0.22992397970E+03  0.41800000000E+01 0.  1.
        -11    1    3    3    0    0 -0.51435052003E+01  0.29698092669E+02  0.29322919424E+00  0.30141637933E+02  0.00000000000E+00 0. -1.
         11    1    3    3    0    0  0.36565570752E+02 -0.32709871245E+01 -0.12293564719E+03  0.12830009225E+03  0.00000000000E+00 0.  1.
</event>
<event>
 7    1  0.4687179E-006  0.1641940E+03  0.7561462E-02  0.1184041E+00
         -2   -1    0    0    0  501 -0.00000000000E+00  0.00000000000E+00  0.30545297856E+02  0.30545297856E+02  0.00000000000E+00 0.  1.
          2   -1    0    0  501    0  0.00000000000E+00 -0.00000000000E+00 -0.12330362914E+04  0.12330362914E+04  0.00000000000E+00 0. -1.
         23    2    1    2    0    0 -0.14504171332E+03  0.65127974130E+02 -0.64715549607E+03  0.67254404107E+03  0.90700052215E+02 0.  0.
          5    1    1    2  502    0  0.83384698067E+01  0.70696708722E+01 -0.23532645064E+03  0.23561731917E+03  0.41800000000E+01 0. -1.
         -5    1    1    2    0  502  0.13670324352E+03 -0.72197645002E+02 -0.32000904683E+03  0.35542022900E+03  0.41800000000E+01 0. -1.
        -11    1    3    3    0    0 -0.65672561227E+02  0.46603926502E+02 -0.47849042428E+03  0.48521943221E+03  0.00000000000E+00 0. -1.
         11    1    3    3    0    0 -0.79369152096E+02  0.18524047628E+02 -0.16866507178E+03  0.18732460886E+03  0.00000000000E+00 0.  1.
</event>
<event>
 7    1  0.4687179E-006  0.6965567E+02  0.7561462E-02  0.1361268E+00
         -1   -1    0    0    0  501 -0.00000000000E+00  0.00000000000E+00  0.28018312052E+03  0.28018312052E+03  0.00000000000E+00 0.  1.
          1   -1    0    0  501    0  0.00000000000E+00 -0.00000000000E+00 -0.52823270401E+02  0.52823270401E+02  0.00000000000E+00 0. -1.
         23    2    1    2    0    0  0.51714204031E+02  0.61978778659E+01  0.80197144443E+02  0.13296990818E+03  0.92393949565E+02 0.  0.
          5    1    1    2  502    0 -0.44547169772E+02 -0.18788511693E+02 -0.34694663372E+01  0.48651496411E+02  0.41800000000E+01 0.  1.
         -5    1    1    2    0  502 -0.71670342590E+01  0.12590633828E+02  0.15063217201E+03  0.15138498632E+03  0.41800000000E+01 0.  1.
        -11    1    3    3    0    0  0.71376871284E+00 -0.18865464879E+02  0.73340688155E+02  0.75731577099E+02  0.00000000000E+00 0.  1.
         11    1    3    3    0    0  0.51000435319E+02  0.25063342744E+02  0.68564562881E+01  0.57238331082E+02  0.00000000000E+00 0. -1.
</event>
<event>
 7    1  0.4687179E-006  0.2956524E+03  0.7561462E-02  0.1087434E+00
         -1   -1    0    0    0  501 -0.00000000000E+00  0.00000000000E+00  0.16603308020E+03  0.16603308020E+03  0.00000000000E+00 0.  1.
          1   -1    0    0  501    0  0.00000000000E+00 -0.00000000000E+00 -0.75583137330E+03  0.75583137330E+03  0.00000000000E+00 0. -1.
         23    2    1    2    0    0  0.14106413771E+03 -0.24243216980E+03 -0.53382152457E+03  0.60968969448E+03  0.89909151691E+02 0.  0.
          5    1    1    2  502    0 -0.11566198668E+03  0.77914044036E+02 -0.38535362537E+02  0.14474370448E+03  0.41800000000E+01 0. -1.
         -5    1    1    2    0  502 -0.25402151030E+02  0.16451812577E+03 -0.17441406000E+02  0.16743105454E+03  0.41800000000E+01 0. -1.
        -11    1    3    3    0    0  0.14320407857E+03 -0.21855655206E+03 -0.43023088970E+03  0.50336169204E+03  0.00000000000E+00 0.  1.
         11    1    3    3    0    0 -0.21399408511E+01 -0.23875617744E+02 -0.10359063487E+03  0.10632800243E+03  0.00000000000E+00 0. -1.
</event>
<event>
 7    1  0.4687179E-006  0.1655050E+03  0.7561462E-02  0.1182618E+00
         -2   -1    0    0    0  501 -0.00000000000E+00  0.00000000000E+00  0.81859845676E+02  0.81859845676E+02  0.00000000000E+00 0.  1.
          2   -1    0    0  501    0  0.00000000000E+00 -0.00000000000E+00 -0.46512991382E+03  0.46512991382E+03  0.00000000000E+00 0. -1.
         23    2    1    2    0    0  0.89132205386E+02 -0.90442889601E+02 -0.32459900286E+03  0.35933557757E+03  0.87367490118E+02 0.  0.
          5    1    1    2  502    0  0.15817988378E+02  0.68961831487E+02 -0.27287660431E+02  0.75947559343E+02  0.41800000000E+01 0. -1.
         -5    1    1    2    0  502 -0.10495019376E+03  0.21481058114E+02 -0.31383404846E+02  0.11170662258E+03  0.41800000000E+01 0. -1.
        -11    1    3    3    0    0  0.85250141659E+02 -0.27084357465E+02 -0.21156466450E+03  0.22969709693E+03  0.00000000000E+00 0. -1.
         11    1    3    3    0    0  0.38820637270E+01 -0.63358532136E+02 -0.11303433836E+03  0.12963848064E+03  0.00000000000E+00 0.  1.
</event>
<event>
 7    1  0.4687179E-006  0.8320350E+02  0.7561462E-02  0.1320199E+00
          2   -1    0    0  501    0  0.00000000000E+00  0.00000000000E+00  0.14474142982E+03  0.14474142982E+03  0.00000000000E+00 0. -1.
         -2   -1    0    0    0  501 -0.00000000000E+00 -0.00000000000E+00 -0.21044716613E+03  0.21044716613E+03  0.00000000000E+00 0.  1.
         23    2    1    2    0    0 -0.53619175901E+02 -0.26633939147E+02  0.93021390615E+02  0.14307899103E+03  0.90742690187E+02 0.  0.
          5    1    1    2  502    0  0.35336057525E+02  0.16084335649E+02  0.11359184442E+02  0.40667508970E+02  0.41800000000E+01 0. -1.
         -5    1    1    2    0  502  0.18283118377E+02  0.10549603497E+02 -0.17008631136E+03  0.17144209595E+03  0.41800000000E+01 0.  1.
        -11    1    3    3    0    0 -0.77462348672E+02 -0.13536793002E+02  0.82328987684E+02  0.11384956056E+03  0.00000000000E+00 0. -1.
         11    1    3    3    0    0  0.23843172771E+02 -0.13097146145E+02  0.10692402931E+02  0.29229430466E+02  0.00000000000E+00 0.  1.
</event>
<event>
 7    1  0.4687179E-006  0.8020129E+02  0.7561462E-02  0.1328481E+00
          1   -1    0    0  501    0  0.00000000000E+00  0.00000000000E+00  0.55987759900E+02  0.55987759900E+02  0.00000000000E+00 0. -1.
         -1   -1    0    0    0  501 -0.00000000000E+00 -0.00000000000E+00 -0.24234208825E+03  0.24234208825E+03  0.00000000000E+00 0.  1.
         23    2    1    2    0    0  0.26498329736E+01 -0.37766061789E+02 -0.53713326490E+02  0.11211516262E+03  0.90837168655E+02 0.  0.
          5    1    1    2  502    0 -0.26218498062E+02  0.30535205017E+01 -0.14076025964E+03  0.14327475954E+03  0.41800000000E+01 0.  1.
         -5    1    1    2    0  502  0.23568665089E+02  0.34712541287E+02  0.81192577812E+01  0.42939925985E+02  0.41800000000E+01 0.  1.
        -11    1    3    3    0    0 -0.33063732552E+02 -0.44226408544E+02 -0.51892874885E+02  0.75776355724E+02  0.00000000000E+00 0.  1.
         11    1    3    3    0    0  0.35713565526E+02  0.64603467551E+01 -0.18204516051E+01  0.36338806898E+02  0.00000000000E+00 0. -1.
</event>
<event>
 7    1  0.4687179E-006  0.1456069E+03  0.7561462E-02  0.1205978E+00
         -2   -1    0    0    0  501 -0.00000000000E+00  0.00000000000E+00  0.21404210521E+03  0.21404210521E+03  0.00000000000E+00 0.  1.
          2   -1    0    0  501    0  0.00000000000E+00 -0.00000000000E+00 -0.12054820414E+03  0.12054820414E+03  0.00000000000E+00 0. -1.
         23    2    1    2    0    0  0.11301068184E+03  0.34082210917E+02  0.38764431964E+02  0.15410332044E+03  0.91170943147E+02 0.  0.
          5    1    1    2  502    0 -0.45168050320E+02  0.46795511806E+02  0.10757342278E+02  0.66054261844E+02  0.41800000000E+01 0.  1.
         -5    1    1    2    0  502 -0.67842631518E+02 -0.80877722723E+02  0.43972126829E+02  0.11443272706E+03  0.41800000000E+01 0.  1.
        -11    1    3    3    0    0  0.79830146945E+02  0.35082024246E+02  0.67441748624E+02  0.11023606599E+03  0.00000000000E+00 0.  1.
         11    1    3    3    0    0  0.33180534894E+02 -0.99981332881E+00 -0.28677316660E+02  0.43867254454E+02  0.00000000000E+00 0. -1.
</event>
<event>
 7    1  0.4687179E-006  0.1173621E+03  0.7561462E-02  0.1247513E+00
          2   -1    0    0  501    0  0.00000000000E+00  0.00000000000E+00  0.75128780882E+02  0.75128780882E+02  0.00000000000E+00 0. -1.
         -2   -1    0    0    0  501 -0.00000000000E+00 -0.00000000000E+00 -0.31277684043E+03  0.31277684043E+03  0.00000000000E+00 0.  1.
         23    2    1    2    0    0  0.21105869441E+02  0.11830661387E+02  0.11329126773E+02  0.95917458560E+02  0.92121590680E+02 0.  0.
          5    1    1    2  502    0  0.42945602985E+02 -0.52704220592E+02 -0.70820620077E+02  0.98260329289E+02  0.41800000000E+01 0. -1.
         -5    1    1    2    0  502 -0.64051472426E+02  0.40873559205E+02 -0.17815656625E+03  0.19372783347E+03  0.41800000000E+01 0.  1.
        -11    1    3    3    0    0 -0.37006027114E+00 -0.37087122219E+02  0.19449778160E+02  0.41879415583E+02  0.00000000000E+00 0.  1.
         11    1    3    3    0    0  0.21475929713E+02  0.48917783605E+02 -0.81206513864E+01  0.54038042977E+02  0.00000000000E+00 0. -1.
</event>
<event>
 7    1  0.4687179E-006  0.8744337E+02  0.7561462E-02  0.1309164E+00
         -3   -1    0    0    0  501 -0.00000000000E+00  0.00000000000E+00  0.11026668274E+03  0.11026668274E+03  0.00000000000E+00 0.  1.
          3   -1    0    0  501    0  0.00000000000E+00 -0.00000000000E+00 -0.18414485811E+03  0.18414485811E+03  0.00000000000E+00 0. -1.
         23    2    1    2    0    0  0.57603369116E+02 -0.50875926075E+02 -0.83019886158E+02  0.14731865684E+03  0.94360887907E+02 0.  0.
          5    1    1    2  502    0  0.10189989120E+02 -0.99191455521E+00 -0.44724791785E+02  0.46071674301E+02  0.41800000000E+01 0.  1.
         -5    1    1    2    0  502 -0.67793358236E+02  0.51867840631E+02  0.53866502575E+02  0.10102120971E+03  0.41800000000E+01 0.  1.
        -11    1    3    3    0    0  0.18900172239E+02 -0.26771783172E+02 -0.94734320105E+02  0.10024238769E+03  0.00000000000E+00 0. -1.
         11    1    3    3    0    0  0.38703196878E+02 -0.24104142904E+02  0.11714433946E+02  0.47076269142E+02  0.00000000000E+00 0.  1.
</event>
<event>
 7    1  0.4687179E-006  0.1012393E+03  0.7561462E-02  0.1277711E+00
          1   -1    0    0  501    0  0.00000000000E+00  0.00000000000E+00  0.65936231367E+02  0.65936231367E+02  0.00000000000E+00 0. -1.
         -1   -1    0    0    0  501 -0.00000000000E+00 -0.00000000000E+00 -0.27314312421E+03  0.27314312421E+03  0.00000000000E+00 0.  1.
         23    2    1    2    0    0 -0.49892553939E+02  0.36755745616E+02 -0.23093070258E+02  0.10802676075E+03  0.85418027198E+02 0.  0.
          5    1    1    2  502    0 -0.72093891168E+01 -0.71457972942E+02 -0.83746438165E+02  0.11040450849E+03  0.41800000000E+01 0.  1.
         -5    1    1    2    0  502  0.57101943056E+02  0.34702227326E+02 -0.10036738442E+03  0.12064808634E+03  0.41800000000E+01 0.  1.
        -11    1    3    3    0    0 -0.17444134999E+02  0.49117703562E+01  0.31891435960E+02  0.36680880871E+02  0.00000000000E+00 0. -1.
         11    1    3    3    0    0 -0.32448418940E+02  0.31843975260E+02 -0.54984506218E+02  0.71345879882E+02  0.00000000000E+00 0.  1.
</event>
<event>
 7    1  0.4687179E-006  0.8182365E+02  0.7561462E-02  0.1323954E+00
          1   -1    0    0  501    0  0.00000000000E+00  0.00000000000E+00  0.77098091039E+02  0.77098091039E+02  0.00000000000E+00 0. -1.
         -1   -1    0    0    0  501 -0.00000000000E+00 -0.00000000000E+00 -0.17256632681E+03  0.17256632681E+03  0.00000000000E+00 0.  1.
         23    2    1    2    0    0 -0.21365764986E+02  0.31819417638E+02 -0.22896404223E+02  0.10005857925E+03  0.89546092616E+02 0.  0.
          5    1    1    2  502    0  0.47883684730E+02 -0.35778678401E+02 -0.96392090151E+02  0.11349831953E+03  0.41800000000E+01 0. -1.
         -5    1    1    2    0  502 -0.26517919744E+02  0.39592607629E+01  0.23820258607E+02  0.36107519071E+02  0.41800000000E+01 0. -1.
        -11    1    3    3    0    0 -0.45240365569E+02  0.16162650627E+02 -0.43532889799E+02  0.64830814019E+02  0.00000000000E+00 0. -1.
         11    1    3    3    0    0  0.23874600583E+02  0.15656767011E+02  0.20636485575E+02  0.35227765231E+02  0.00000000000E+00 0.  1.
</event>
<event>
 7    1  0.4687179E-006  0.1638917E+03  0.7561462E-02  0.1184372E+00
         -2   -1    0    0    0  501 -0.00000000000E+00  0.00000000000E+00  0.49207032314E+02  0.49207032314E+02  0.00000000000E+00 0.  1.
          2   -1    0    0  501    0  0.00000000000E+00 -0.00000000000E+00 -0.90668799218E+03  0.90668799218E+03  0.00000000000E+00 0. -1.
         23    2    1    2    0    0  0.53630730603E+02 -0.14141806185E+03 -0.51785863330E+03  0.54700518771E+03  0.90342613544E+02 0.  0.
          5    1    1    2  502    0 -0.30271374120E+02  0.36561679112E+02 -0.28376289565E+03  0.28773593070E+03  0.41800000000E+01 0. -1.
         -5    1    1    2    0  502 -0.23359356483E+02  0.10485638274E+03 -0.55859430923E+02  0.12115390608E+03  0.41800000000E+01 0.  1.
        -11    1    3    3    0    0  0.51313639981E+02 -0.26628184830E+02 -0.12515638984E+03  0.13786323583E+03  0.00000000000E+00 0.  1.
         11    1    3    3    0    0  0.23170906219E+01 -0.11478987702E+03 -0.39270224345E+03  0.40914195188E+03  0.00000000000E+00 0. -1.
</event>
<event>
 7    1  0.4687179E-006  0.1493799E+03  0.7561462E-02  0.1201237E+00
          3   -1    0    0  501    0  0.00000000000E+00  0.00000000000E+00  0.20476864175E+03  0.20476864175E+03  0.00000000000E+00 0. -1.
         -3   -1    0    0    0  501 -0.00000000000E+00 -0.00000000000E+00 -0.15606532300E+03  0.15606532300E+03  0.00000000000E+00 0.  1.
         23    2    1    2    0    0  0.39520860901E+02  0.11683988443E+03  0.93526338462E+02  0.17953551654E+03  0.90952562763E+02 0.  0.
          5    1    1    2  502    0 -0.56293071249E+02 -0.41774058925E+02 -0.71077126974E+02  0.99917026820E+02  0.41800000000E+01 0.  1.
         -5    1    1    2    0  502  0.16772210348E+02 -0.75065825506E+02  0.26254107266E+02  0.81381421388E+02  0.41800000000E+01 0.  1.
        -11    1    3    3    0    0 -0.28070934782E+02  0.43478899795E+02  0.19453127142E+02  0.55288482187E+02  0.00000000000E+00 0.  1.
         11    1    3    3    0    0  0.67591795683E+02  0.73360984636E+02  0.74073211320E+02  0.12424703435E+03  0.00000000000E+00 0. -1.
</event>
<event>
 7    1  0.4687179E-006  0.1115991E+03  0.7561462E-02  0.1257637E+00
          2   -1    0    0  501    0  0.00000000000E+00  0.00000000000E+00  0.73110509693E+03  0.73110509693E+03  0.00000000000E+00 0. -1.
         -2   -1    0    0    0  501 -0.00000000000E+00 -0.00000000000E+00 -0.30666315200E+02  0.30666315200E+02  0.00000000000E+00 0.  1.
         23    2    1    2    0    0  0.57021361802E+02  0.74897126844E+02  0.42798608902E+03  0.44754335111E+03  0.90895233154E+02 0.  0.
          5    1    1    2  502    0 -0.71247834857E+02 -0.28612986804E+02  0.63575379644E+02  0.99771029275E+02  0.41800000000E+01 0. -1.
         -5    1    1    2    0  502  0.14226473055E+02 -0.46284140040E+02  0.20887731307E+03  0.21445703175E+03  0.41800000000E+01 0. -1.
        -11    1    3    3    0    0  0.56017434078E+02  0.57490639187E+02  0.42128613894E+03  0.42886494072E+03  0.00000000000E+00 0. -1.
         11    1    3    3    0    0  0.10039277242E+01  0.17406487657E+02  0.66999500820E+01  0.18678410386E+02  0.00000000000E+00 0.  1.
</event>
<event>
 7    1  0.4687179E-006  0.1556672E+03  0.7561462E-02  0.1193677E+00
         -3   -1    0    0    0  501 -0.00000000000E+00  0.00000000000E+00  0.27373458154E+03  0.27373458154E+03  0.00000000000E+00 0.  1.
          3   -1    0    0  501    0  0.00000000000E+00 -0.00000000000E+00 -0.12442891093E+03  0.12442891093E+03  0.00000000000E+00 0. -1.
         23    2    1    2    0    0  0.93179581425E+02  0.11018550585E+03  0.31495578048E+02  0.17377586146E+03  0.91557623905E+02 0.  0.
          5    1    1    2  502    0 -0.16166662449E+02 -0.19138858348E+02 -0.26786893994E+02  0.36914319220E+02  0.41800000000E+01 0.  1.
         -5    1    1    2    0  502 -0.77012918976E+02 -0.91046647502E+02  0.14459698656E+03  0.18747331179E+03  0.41800000000E+01 0.  1.
        -11    1    3    3    0    0  0.57160363860E+02  0.11675727980E+03  0.79428296733E+01  0.13024076983E+03  0.00000000000E+00 0.  1.
         11    1    3    3    0    0  0.36019217565E+02 -0.65717739522E+01  0.23552748375E+02  0.43535091626E+02  0.00000000000E+00 0. -1.
</event>
<event>
 7    1  0.4687179E-006  0.1077114E+03  0.7561462E-02  0.1264868E+00
         -3   -1    0    0    0  501 -0.00000000000E+00  0.00000000000E+00  0.29617902539E+03  0.29617902539E+03  0.00000000000E+00 0.  1.
          3   -1    0    0  501    0  0.00000000000E+00 -0.00000000000E+00 -0.49674365747E+02  0.49674365747E+02  0.00000000000E+00 0. -1.
         23    2    1    2    0    0  0.43479478454E+01  0.19602237406E+01  0.32734425710E+02  0.98128465751E+02  0.92384555184E+02 0.  0.
          5    1    1    2  502    0  0.10941360010E+02  0.59041446718E+02  0.82673405465E+02  0.10226421740E+03  0.41800000000E+01 0.  1.
         -5    1    1    2    0  502 -0.15289307856E+02 -0.61001670459E+02  0.13109682847E+03  0.14546070799E+03  0.41800000000E+01 0.  1.
        -11    1    3    3    0    0 -0.43905609819E+02  0.19731243393E+01  0.11637528783E+02  0.45464578184E+02  0.00000000000E+00 0.  1.
         11    1    3    3    0    0  0.48253557665E+02 -0.12900598664E-01  0.21096896928E+02  0.52663887567E+02  0.00000000000E+00 0. -1.
</event>
<event>
 6    1  0.4687179E-006  0.2167737E+03  0.7561462E-02  0.1136312E+00
          1   -1    0    0  501    0  0.00000000000E+00  0.00000000000E+00  0.66968115852E+03  0.66968115852E+03  0.00000000000E+00 0. -1.
         -1   -1    0    0    0  501 -0.00000000000E+00 -0.00000000000E+00 -0.98733401068E+02  0.98733401068E+02  0.00000000000E+00 0.  1.
          5    1    1    2  502    0  0.66205264284E+02  0.75567673183E+02  0.16024638695E+03  0.18918241774E+03  0.41800000000E+01 0.  1.
         -5    1    1    2    0  502  0.45514546588E+02  0.10227949382E+03  0.18275423286E+02  0.11350829178E+03  0.41800000000E+01 0.  1.
        -11    1    1    2    0    0 -0.65704404628E+02 -0.15749459036E+03  0.37580200349E+03  0.41273328023E+03  0.00000000000E+00 0. -1.
         11    1    1    2    0    0 -0.46015406243E+02 -0.20352576644E+02  0.16623943724E+02  0.52990569847E+02  0.00000000000E+00 0.  1.
</event>
<event>
 7    1  0.4687179E-006  0.1269248E+03  0.7561462E-02  0.1232091E+00
          2   -1    0    0  501    0  0.00000000000E+00  0.00000000000E+00  0.45493893399E+03  0.45493893399E+03  0.00000000000E+00 0. -1.
         -2   -1    0    0    0  501 -0.00000000000E+00 -0.00000000000E+00 -0.58705155311E+02  0.58705155311E+02  0.00000000000E+00 0.  1.
         23    2    1    2    0    0 -0.84495391841E+02  0.25320082269E+02  0.31664878516E+03  0.34112744658E+03  0.91218988464E+02 0.  0.
          5    1    1    2  502    0  0.96688468201E+02 -0.44673929897E+02  0.19862573032E+02  0.10842699896E+03  0.41800000000E+01 0. -1.
         -5    1    1    2    0  502 -0.12193076359E+02  0.19353847629E+02  0.59722420488E+02  0.64089643766E+02  0.41800000000E+01 0. -1.
        -11    1    3    3    0    0 -0.98281000366E+02  0.36847540525E+01  0.27661779347E+03  0.29358156637E+03  0.00000000000E+00 0. -1.
         11    1    3    3    0    0  0.13785608525E+02  0.21635328216E+02  0.40030991690E+02  0.47545880212E+02  0.00000000000E+00 0.  1.
</event>
<event>
 7    1  0.4687179E-006  0.8248334E+02  0.7561462E-02  0.1322148E+00
          1   -1    0    0  501    0  0.00000000000E+00  0.00000000000E+00  0.14231457980E+02  0.14231457980E+02  0.00000000000E+00 0. -1.
         -1   -1    0    0    0  501 -0.00000000000E+00 -0.00000000000E+00 -0.88914927280E+03  0.88914927280E+03  0.00000000000E+00 0.  1.
         23    2    1    2    0    0  0.33178815635E+02  0.28295807733E+02 -0.38103856627E+03  0.39436017304E+03  0.91804523616E+02 0.  0.
          5    1    1    2  502    0  0.11143874529E+02  0.31307670977E+01 -0.16501370163E+00  0.12308016561E+02  0.41800000000E+01 0. -1.
         -5    1    1    2    0  502 -0.44322690164E+02 -0.31426574830E+02 -0.49371423486E+03  0.49671254118E+03  0.41800000000E+01 0.  1.
        -11    1    3    3    0    0  0.36723744620E+01 -0.31379761896E+02 -0.79234581300E+02  0.85301199667E+02  0.00000000000E+00 0.  1.
         11    1    3    3    0    0  0.29506441173E+02  0.59675569629E+02 -0.30180398497E+03  0.30905897337E+03  0.00000000000E+00 0. -1.
</event>
<event>
 6    1  0.4784314E-006  0.5428436E+02  0.7561462E-02  0.1423514E+00
         -1   -1    0    0    0  501 -0.00000000000E+00  0.00000000000E+00  0.33651662524E+02  0.33651662524E+02  0.00000000000E+00 0.  1.
          1   -1    0    0  501    0  0.00000000000E+00 -0.00000000000E+00 -0.17549756829E+03  0.17549756829E+03  0.00000000000E+00 0. -1.
          5    1    1    2  502    0 -0.39178159669E+02  0.30868064616E+02 -0.88348259469E+02  0.10154138545E+03  0.41800000000E+01 0. -1.
         -5    1    1    2    0  502  0.28520314718E+02 -0.98267134601E+01  0.14205048060E+02  0.33603994397E+02  0.41800000000E+01 0.  1.
        -11    1    1    2    0    0  0.13276060193E+02 -0.97505808773E+01 -0.26501822005E+02  0.31203752519E+02  0.00000000000E+00 0.  1.
         11    1    1    2    0    0 -0.26182152419E+01 -0.11290770278E+02 -0.41200872354E+02  0.42800098449E+02  0.00000000000E+00 0. -1.
</event>
<event>
 7    1  0.4687179E-006  0.1346073E+03  0.7561462E-02  0.1220775E+00
          2   -1    0    0  501    0  0.00000000000E+00  0.00000000000E+00  0.53072650349E+03  0.53072650349E+03  0.00000000000E+00 0.  1.
         -2   -1    0    0    0  501 -0.00000000000E+00 -0.00000000000E+00 -0.46451094867E+02  0.46451094867E+02  0.00000000000E+00 0. -1.
         23    2    1    2    0    0  0.20907046213E+02 -0.11077893304E+03  0.24560779563E+03  0.28507726106E+03  0.90756701728E+02 0.  0.
          5    1    1    2  502    0 -0.23164926747E+02  0.20709713838E+01 -0.59549604824E+01  0.24368765008E+02  0.41800000000E+01 0.  1.
         -5    1    1    2    0  502  0.22578805347E+01  0.10870796165E+03  0.24462257348E+03  0.26773157230E+03  0.41800000000E+01 0.  1.
        -11    1    3    3    0    0  0.48984616320E+02 -0.50922103003E+02  0.79867136653E+02  0.10663635744E+03  0.00000000000E+00 0.  1.
         11    1    3    3    0    0 -0.28077570107E+02 -0.59856830034E+02  0.16574065898E+03  0.17844090362E+03  0.00000000000E+00 0. -1.
</event>
<event>
 7    1  0.4687179E-006  0.1226033E+03  0.7561462E-02  0.1238863E+00
          1   -1    0    0  501    0  0.00000000000E+00  0.00000000000E+00  0.28298995690E+03  0.28298995690E+03  0.00000000000E+00 0. -1.
         -1   -1    0    0    0  501 -0.00000000000E+00 -0.00000000000E+00 -0.72045429583E+02  0.72045429583E+02  0.00000000000E+00 0.  1.
         23    2    1    2    0    0 -0.65109111485E+02  0.65635996125E+02  0.10568167615E+03  0.16722094256E+03  0.90812700492E+02 0.  0.
          5    1    1    2  502    0  0.16763532662E+02  0.17490320439E+02  0.86270424978E+02  0.89704994077E+02  0.41800000000E+01 0. -1.
         -5    1    1    2    0  502  0.48345578823E+02 -0.83126316564E+02  0.18992426193E+02  0.98109449851E+02  0.41800000000E+01 0. -1.
        -11    1    3    3    0    0  0.16210073149E+02  0.32958963238E+02  0.11308905584E+02  0.38431121175E+02  0.00000000000E+00 0.  1.
         11    1    3    3    0    0 -0.81319184635E+02  0.32677032887E+02  0.94372770564E+02  0.12878982138E+03  0.00000000000E+00 0. -1.
</event>
<event>
 7    1  0.4687179E-006  0.1508662E+03  0.7561462E-02  0.1199413E+00
         -3   -1    0    0    0  501 -0.00000000000E+00  0.00000000000E+00  0.29100848727E+03  0.29100848727E+03  0.00000000000E+00 0.  1.
          3   -1    0    0  501    0  0.00000000000E+00 -0.00000000000E+00 -0.12632665521E+03  0.12632665521E+03  0.00000000000E+00 0. -1.
         23    2    1    2    0    0  0.10659666108E+03 -0.56722550864E+02 -0.32236088906E+02  0.15463851738E+03  0.91069257706E+02 0.  0.
          5    1    1    2  502    0 -0.11280044463E+03 -0.37480818911E+01  0.12702620772E+03  0.16997387527E+03  0.41800000000E+01 0.  1.
         -5    1    1    2    0  502  0.62037835471E+01  0.60470632755E+02  0.69891713248E+02  0.92722749834E+02  0.41800000000E+01 0.  1.
        -11    1    3    3    0    0  0.72456936516E+02 -0.59292041255E+02 -0.59449262129E+02  0.11090432171E+03  0.00000000000E+00 0. -1.
         11    1    3    3    0    0  0.34139724567E+02  0.25694903910E+01  0.27213173223E+02  0.43734195674E+02  0.00000000000E+00 0.  1.
</event>
<event>
 7    1  0.4687179E-006  0.9238597E+02  0.7561462E-02  0.1297174E+00
          2   -1    0    0  501    0  0.00000000000E+00  0.00000000000E+00  0.47011028489E+03  0.47011028489E+03  0.00000000000E+00 0. -1.
         -2   -1    0    0    0  501 -0.00000000000E+00 -0.00000000000E+00 -0.25356451707E+02  0.25356451707E+02  0.00000000000E+00 0.  1.
         23    2    1    2    0    0 -0.20325415100E+02  0.16497685860E+01  0.20341583930E+03  0.22287124395E+03  0.88756653099E+02 0.  0.
          5    1    1    2  502    0 -0.21976183811E+02  0.48843027316E+02  0.15414357110E+03  0.16323696543E+03  0.41800000000E+01 0.  1.
         -5    1    1    2    0  502  0.42301598911E+02 -0.50492795902E+02  0.87194422787E+02  0.10935852721E+03  0.41800000000E+01 0.  1.
        -11    1    3    3    0    0  0.13827718741E+02  0.21485928418E+02  0.13511888568E+02  0.28903668595E+02  0.00000000000E+00 0.  1.
         11    1    3    3    0    0 -0.34153133841E+02 -0.19836159832E+02  0.18990395073E+03  0.19396757536E+03  0.00000000000E+00 0. -1.
</event>
<event>
 7    1  0.4687179E-006  0.1481630E+03  0.7561462E-02  0.1202749E+00
          2   -1    0    0  501    0  0.00000000000E+00  0.00000000000E+00  0.10503097436E+03  0.10503097436E+03  0.00000000000E+00 0. -1.
         -2   -1    0    0    0  501 -0.00000000000E+00 -0.00000000000E+00 -0.24899045021E+03  0.24899045021E+03  0.00000000000E+00 0.  1.
         23    2    1    2    0    0  0.11672121428E+03  0.15724588212E+02 -0.82133497304E+02  0.17142550407E+03  0.93646609808E+02 0.  0.
          5    1    1    2  502    0 -0.49503098498E+02 -0.67091191509E+02 -0.12037741455E+02  0.84345505858E+02  0.41800000000E+01 0. -1.
         -5    1    1    2    0  502 -0.67218115783E+02  0.51366603298E+02 -0.49788237098E+02  0.98250414641E+02  0.41800000000E+01 0. -1.
        -11    1    3    3    0    0 -0.79219898910E+00  0.10482589560E+02  0.15381942755E+02  0.18631060787E+02  0.00000000000E+00 0. -1.
         11    1    3    3    0    0  0.11751341327E+03  0.52419986511E+01 -0.97515440059E+02  0.15279444328E+03  0.00000000000E+00 0.  1.
</event>
<event>
 7    1  0.4687179E-006  0.8832933E+02  0.7561462E-02  0.1306949E+00
          2   -1    0    0  501    0  0.00000000000E+00  0.00000000000E+00  0.62519527118E+03  0.62519527118E+03  0.00000000000E+00 0. -1.
         -2   -1    0    0    0  501 -0.00000000000E+00 -0.00000000000E+00 -0.26642383105E+02  0.26642383105E+02  0.00000000000E+00 0.  1.
         23    2    1    2    0    0 -0.25602304756E+02  0.50755596935E+02  0.36977873765E+03  0.38498211634E+03  0.90792656410E+02 0.  0.
          5    1    1    2  502    0  0.33190431160E+02 -0.10018658745E+02  0.61468778031E+00  0.34926043072E+02  0.41800000000E+01 0.  1.
         -5    1    1    2    0  502 -0.75881264035E+01 -0.40736938190E+02  0.22815946265E+03  0.23192949487E+03  0.41800000000E+01 0.  1.
        -11    1    3    3    0    0 -0.43133217642E+02 -0.33034531649E+01  0.23103878189E+03  0.23505383639E+03  0.00000000000E+00 0. -1.
         11    1    3    3    0    0  0.17530912885E+02  0.54059050100E+02  0.13873995576E+03  0.14992827995E+03  0.00000000000E+00 0.  1.
</event>
<event>
 7    1  0.4687179E-006  0.1417695E+03  0.7561462E-02  0.1210968E+00
         -1   -1    0    0    0  501 -0.00000000000E+00  0.00000000000E+00  0.89357103175E+02  0.89357103175E+02  0.00000000000E+00 0.  1.
          1   -1    0    0  501    0  0.00000000000E+00 -0.00000000000E+00 -0.29662990509E+03  0.29662990509E+03  0.00000000000E+00 0. -1.
         23    2    1    2    0    0 -0.84383956669E+02 -0.37053642960E+02 -0.18795372146E+03  0.22941913485E+03  0.93877118749E+02 0.  0.
          5    1    1    2  502    0  0.42055755775E+02  0.80681630112E+02 -0.27378165526E+02  0.95106510707E+02  0.41800000000E+01 0. -1.
         -5    1    1    2    0  502  0.42328200894E+02 -0.43627987152E+02  0.80590850713E+01  0.61461362709E+02  0.41800000000E+01 0. -1.
        -11    1    3    3    0    0 -0.27659840690E+02  0.31912099656E+02 -0.62520912516E+02  0.75447421383E+02  0.00000000000E+00 0. -1.
         11    1    3    3    0    0 -0.56724115980E+02 -0.68965742616E+02 -0.12543280894E+03  0.15397171346E+03  0.00000000000E+00 0.  1.
</event>
<event>
 7    1  0.4687179E-006  0.1159451E+03  0.7561462E-02  0.1249940E+00
         -2   -1    0    0    0  501 -0.00000000000E+00  0.00000000000E+00  0.13852818357E+04  0.13852818357E+04  0.00000000000E+00 0.  1.
          2   -1    0    0  501    0  0.00000000000E+00 -0.00000000000E+00 -0.46096677149E+02  0.46096677149E+02  0.00000000000E+00 0. -1.
         23    2    1    2    0    0 -0.51019056022E+02  0.35430169632E+02  0.26623672888E+02  0.11106732803E+03  0.88141309278E+02 0.  0.
          5    1    1    2  502    0 -0.14164717459E+02  0.28887795236E+02  0.12247480033E+03  0.12669922277E+03  0.41800000000E+01 0. -1.
         -5    1    1    2    0  502  0.65183773480E+02 -0.64317964868E+02  0.11900866854E+04  0.11936119621E+04  0.41800000000E+01 0.  1.
        -11    1    3    3    0    0 -0.76305845180E+02  0.23695687865E+02  0.21240929626E+02  0.82675538846E+02  0.00000000000E+00 0. -1.
         11    1    3    3    0    0  0.25286789159E+02  0.11734481767E+02  0.53827432616E+01  0.28391789189E+02  0.00000000000E+00 0.  1.
</event>
<event>
 7    1  0.4687179E-006  0.8463170E+02  0.7561462E-02  0.1316399E+00
          1   -1    0    0  501    0  0.00000000000E+00  0.00000000000E+00  0.36100670013E+03  0.36100670013E+03  0.00000000000E+00 0. -1.
         -1   -1    0    0    0  501 -0.00000000000E+00 -0.00000000000E+00 -0.54923426078E+02  0.54923426078E+02  0.00000000000E+00 0.  1.
         23    2    1    2    0    0 -0.29637553619E+02 -0.25054644949E+02  0.16955074096E+03  0.19628953597E+03  0.90972569233E+02 0.  0.
          5    1    1    2  502    0  0.17275521180E+02 -0.40394826673E+02 -0.20763177808E+02  0.48772611235E+02  0.41800000000E+01 0. -1.
         -5    1    1    2    0  502  0.12362032439E+02  0.65449471622E+02  0.15729571090E+03  0.17086797900E+03  0.41800000000E+01 0.  1.
        -11    1    3    3    0    0  0.93769739442E+01  0.35390417391E+01 -0.76480565965E+01  0.12607348115E+02  0.00000000000E+00 0.  1.
         11    1    3    3    0    0 -0.39014527563E+02 -0.28593686688E+02  0.17719879756E+03  0.18368218786E+03  0.00000000000E+00 0. -1.
</event>
<event>
 7    1  0.4687179E-006  0.2051777E+03  0.7561462E-02  0.1145443E+00
         -1   -1    0    0    0  501 -0.00000000000E+00  0.00000000000E+00  0.89216935043E+02  0.89216935043E+02  0.00000000000E+00 0.  1.
          1   -1    0    0  501    0  0.00000000000E+00 -0.00000000000E+00 -0.59505049360E+03  0.59505049360E+03  0.00000000000E+00 0. -1.
         23    2    1    2    0    0 -0.27537600050E+02  0.19356578717E+03 -0.32307787047E+03  0.38884659466E+03  0.92716397746E+02 0.  0.
          5    1    1    2  502    0  0.26648045489E+02 -0.16964282505E+03 -0.79382670901E+02  0.18922972086E+03  0.41800000000E+01 0.  1.
         -5    1    1    2    0  502  0.88955456175E+00 -0.23922962124E+02 -0.10337301718E+03  0.10619111312E+03  0.41800000000E+01 0.  1.
        -11    1    3    3    0    0 -0.46798787999E+02  0.46550492806E+02 -0.12574516689E+03  0.14201732970E+03  0.00000000000E+00 0. -1.
         11    1    3    3    0    0  0.19261187949E+02  0.14701529437E+03 -0.19733270358E+03  0.24682926496E+03  0.00000000000E+00 0.  1.
</event>
<event>
 7    1  0.4687179E-006  0.9890494E+02  0.7561462E-02  0.1282616E+00
          2   -1    0    0  501    0  0.00000000000E+00  0.00000000000E+00  0.58487393049E+03  0.58487393049E+03  0.00000000000E+00 0. -1.
         -2   -1    0    0    0  501 -0.00000000000E+00 -0.00000000000E+00 -0.23844985874E+02  0.23844985874E+02  0.00000000000E+00 0.  1.
         23    2    1    2    0    0 -0.17750792820E+02 -0.57674459425E+02  0.26650551978E+03  0.28309263842E+03  0.73991999142E+02 0.  0.
          5    1    1    2  502    0 -0.17181521454E+02 -0.21299513456E+02  0.18008916043E+03  0.18220442381E+03  0.41800000000E+01 0. -1.
         -5    1    1    2    0  502  0.34932314273E+02  0.78973972881E+02  0.11443426441E+03  0.14342185413E+03  0.41800000000E+01 0. -1.
        -11    1    3    3    0    0 -0.13515348584E+02  0.94000698989E+01  0.13432671399E+02  0.21247649808E+02  0.00000000000E+00 0. -1.
         11    1    3    3    0    0 -0.42354442354E+01 -0.67074529324E+02  0.25307284838E+03  0.26184498861E+03  0.00000000000E+00 0.  1.
</event>
<event>
 7    1  0.4687179E-006  0.9926698E+02  0.7561462E-02  0.1281845E+00
          1   -1    0    0  501    0  0.00000000000E+00  0.00000000000E+00  0.39329422984E+03  0.39329422984E+03  0.00000000000E+00 0. -1.
         -1   -1    0    0    0  501 -0.00000000000E+00 -0.00000000000E+00 -0.44378007859E+02  0.44378007859E+02  0.00000000000E+00 0.  1.
         23    2    1    2    0    0 -0.32045245802E+02  0.13160427305E+02  0.26723557400E+03  0.28431095441E+03  0.90651928613E+02 0.  0.
          5    1    1    2  502    0  0.72609438242E+02  0.59259028240E+01  0.80035029416E+02  0.10830662574E+03  0.41800000000E+01 0.  1.
         -5    1    1    2    0  502 -0.40564192440E+02 -0.19086330129E+02  0.16456185661E+01  0.45054657546E+02  0.41800000000E+01 0.  1.
        -11    1    3    3    0    0 -0.85155232463E+01  0.42263936290E+02  0.60944156507E+02  0.74652157767E+02  0.00000000000E+00 0. -1.
         11    1    3    3    0    0 -0.23529722556E+02 -0.29103508985E+02  0.20629141749E+03  0.20965879664E+03  0.00000000000E+00 0.  1.
</event>
<event>
 7    1  0.4687179E-006  0.1196674E+03  0.7561462E-02  0.1243647E+00
         -1   -1    0    0    0  501 -0.00000000000E+00  0.00000000000E+00  0.72469873463E+03  0.72469873463E+03  0.00000000000E+00 0.  1.
          1   -1    0    0  501    0  0.00000000000E+00 -0.00000000000E+00 -0.21828369314E+02  0.21828369314E+02  0.00000000000E+00 0. -1.
         23    2    1    2    0    0  0.39689545972E+02 -0.48993192285E+02  0.25999743490E+03  0.28202774112E+03  0.89249020479E+02 0.  0.
          5    1    1    2  502    0  0.59201807012E+01  0.77449294992E+02  0.33484951510E+03  0.34376607162E+03  0.41800000000E+01 0.  1.
         -5    1    1    2    0  502 -0.45609726674E+02 -0.28456102707E+02  0.10802341531E+03  0.12073329120E+03  0.41800000000E+01 0.  1.
        -11    1    3    3    0    0  0.29518331674E+02 -0.74516965241E+02  0.21309733305E+03  0.22767209615E+03  0.00000000000E+00 0.  1.
         11    1    3    3    0    0  0.10171214298E+02  0.25523772957E+02  0.46900101859E+02  0.54355644975E+02  0.00000000000E+00 0. -1.
</event>
<event>
 7    1  0.4687179E-006  0.1022395E+03  0.7561462E-02  0.1275656E+00
         -3   -1    0    0    0  501 -0.00000000000E+00  0.00000000000E+00  0.24495458422E+03  0.24495458422E+03  0.00000000000E+00 0.  1.
          3   -1    0    0  501    0  0.00000000000E+00 -0.00000000000E+00 -0.54394966728E+02  0.54394966728E+02  0.00000000000E+00 0. -1.
         23    2    1    2    0    0 -0.28763299748E+02  0.14469952379E+02  0.46995785595E+02  0.10623071403E+03  0.89664116594E+02 0.  0.
          5    1    1    2  502    0 -0.31641290545E+02  0.22618186093E+02  0.10557725695E+03  0.11259122166E+03  0.41800000000E+01 0.  1.
         -5    1    1    2    0  502  0.60404590293E+02 -0.37088138472E+02  0.37986574946E+02  0.80527615263E+02  0.41800000000E+01 0.  1.
        -11    1    3    3    0    0  0.29775898864E+02  0.19512844974E+02  0.10721645002E+02  0.37179415591E+02  0.00000000000E+00 0. -1.
         11    1    3    3    0    0 -0.58539198611E+02 -0.50428925953E+01  0.36274140593E+02  0.69051298435E+02  0.00000000000E+00 0.  1.
</event>
<event>
 7    1  0.4687179E-006  0.1074404E+03  0.7561462E-02  0.1265385E+00
          1   -1    0    0  501    0  0.00000000000E+00  0.00000000000E+00  0.75687863069E+02  0.75687863069E+02  0.00000000000E+00 0. -1.
         -1   -1    0    0    0  501 -0.00000000000E+00 -0.00000000000E+00 -0.25985156622E+03  0.25985156622E+03  0.00000000000E+00 0.  1.
         23    2    1    2    0    0  0.25486379659E+02  0.64082800179E+02 -0.17275668840E+02  0.11586905575E+03  0.91493324995E+02 0.  0.
          5    1    1    2  502    0  0.41955180299E+02 -0.62143832282E+02 -0.92758083230E+02  0.11934666920E+03  0.41800000000E+01 0.  1.
         -5    1    1    2    0  502 -0.67441559959E+02 -0.19389678966E+01 -0.74129951085E+02  0.10032370435E+03  0.41800000000E+01 0.  1.
        -11    1    3    3    0    0  0.15066158740E+02  0.12547903605E+02  0.36015443039E+02  0.41006720929E+02  0.00000000000E+00 0. -1.
         11    1    3    3    0    0  0.10420220919E+02  0.51534896574E+02 -0.53291111879E+02  0.74862334816E+02  0.00000000000E+00 0.  1.
</event>
<event>
 7    1  0.4687179E-006  0.9824154E+02  0.7561462E-02  0.1284038E+00
          1   -1    0    0  501    0  0.00000000000E+00  0.00000000000E+00  0.11675226645E+03  0.11675226645E+03  0.00000000000E+00 0. -1.
         -1   -1    0    0    0  501 -0.00000000000E+00 -0.00000000000E+00 -0.14635925862E+03  0.14635925862E+03  0.00000000000E+00 0.  1.
         23    2    1    2    0    0  0.44558209801E+02 -0.55802959668E+02 -0.62683485086E+01  0.11719722700E+03  0.92717277001E+02 0.  0.
          5    1    1    2  502    0  0.85746325268E+01  0.53448555548E+02 -0.60202098716E+02  0.81068104103E+02  0.41800000000E+01 0.  1.
         -5    1    1    2    0  502 -0.53132842328E+02  0.23544041204E+01  0.36863455055E+02  0.64846193961E+02  0.41800000000E+01 0.  1.
        -11    1    3    3    0    0  0.54220906549E+02 -0.31545456501E+02 -0.40107197928E+02  0.74455421954E+02  0.00000000000E+00 0.  1.
         11    1    3    3    0    0 -0.96626967472E+01 -0.24257503167E+02  0.33838849419E+02  0.42741805043E+02  0.00000000000E+00 0. -1.
</event>
<event>
 7    1  0.4687179E-006  0.1089654E+03  0.7561462E-02  0.1262498E+00
         -4   -1    0    0    0  501 -0.00000000000E+00  0.00000000000E+00  0.75329949641E+02  0.75329949641E+02  0.00000000000E+00 0.  1.
          4   -1    0    0  501    0  0.00000000000E+00 -0.00000000000E+00 -0.25768309478E+03  0.25768309478E+03  0.00000000000E+00 0. -1.
         23    2    1    2    0    0  0.22219931521E+01 -0.21377632770E+02 -0.18417820095E+03  0.20607537570E+03  0.89908344052E+02 0.  0.
          5    1    1    2  502    0  0.60298043197E+02 -0.43227930867E+00 -0.20362608715E+01  0.60478588253E+02  0.41800000000E+01 0.  1.
         -5    1    1    2    0  502 -0.62520036349E+02  0.21809912079E+02  0.38613166800E+01  0.66459080466E+02  0.41800000000E+01 0.  1.
        -11    1    3    3    0    0 -0.26380991459E+01 -0.56058154421E+02 -0.96035781123E+02  0.11123105457E+03  0.00000000000E+00 0.  1.
         11    1    3    3    0    0  0.48600922980E+01  0.34680521651E+02 -0.88142419822E+02  0.94844321133E+02  0.00000000000E+00 0. -1.
</event>
<event>
 7    1  0.4687179E-006  0.3152766E+03  0.7561462E-02  0.1077844E+00
          2   -1    0    0  501    0  0.00000000000E+00  0.00000000000E+00  0.74828509564E+03  0.74828509564E+03  0.00000000000E+00 0. -1.
         -2   -1    0    0    0  501 -0.00000000000E+00 -0.00000000000E+00 -0.14117505448E+03  0.14117505448E+03  0.00000000000E+00 0.  1.
         23    2    1    2    0    0  0.26304160949E+03  0.14047771897E+03  0.39194638797E+03  0.50104489178E+03  0.92190751631E+02 0.  0.
          5    1    1    2  502    0 -0.14429872742E+03 -0.14282110964E+03  0.15330365804E+03  0.25443953322E+03  0.41800000000E+01 0.  1.
         -5    1    1    2    0  502 -0.11874288206E+03  0.23433906678E+01  0.61859995138E+02  0.13397572511E+03  0.41800000000E+01 0.  1.
        -11    1    3    3    0    0  0.20026146429E+03  0.14257277801E+03  0.33983700236E+03  0.41942918268E+03  0.00000000000E+00 0.  1.
         11    1    3    3    0    0  0.62780145203E+02 -0.20950590362E+01  0.52109385612E+02  0.81615709107E+02  0.00000000000E+00 0. -1.
</event>
<event>
 7    1  0.4687179E-006  0.1168854E+03  0.7561462E-02  0.1248325E+00
         -3   -1    0    0    0  501 -0.00000000000E+00  0.00000000000E+00  0.30667021272E+03  0.30667021272E+03  0.00000000000E+00 0.  1.
          3   -1    0    0  501    0  0.00000000000E+00 -0.00000000000E+00 -0.55802261453E+02  0.55802261453E+02  0.00000000000E+00 0. -1.
         23    2    1    2    0    0  0.22241809491E+02  0.65269969459E+02  0.81726241069E+02  0.14108666014E+03  0.92040209619E+02 0.  0.
          5    1    1    2  502    0  0.63108974104E+01  0.24178401806E+02  0.10397199352E+03  0.10701434659E+03  0.41800000000E+01 0. -1.
         -5    1    1    2    0  502 -0.28552706901E+02 -0.89448371264E+02  0.65169716676E+02  0.11437146744E+03  0.41800000000E+01 0. -1.
        -11    1    3    3    0    0  0.50731779505E+02  0.92069828045E+01  0.43767321024E+02  0.67631800018E+02  0.00000000000E+00 0.  1.
         11    1    3    3    0    0 -0.28489970015E+02  0.56062986654E+02  0.37958920045E+02  0.73454860118E+02  0.00000000000E+00 0. -1.
</event>
<event>
 7    1  0.4687179E-006  0.1170046E+03  0.7561462E-02  0.1248122E+00
          2   -1    0    0  501    0  0.00000000000E+00  0.00000000000E+00  0.90783172695E+02  0.90783172695E+02  0.00000000000E+00 0. -1.
         -2   -1    0    0    0  501 -0.00000000000E+00 -0.00000000000E+00 -0.34238265440E+03  0.34238265440E+03  0.00000000000E+00 0.  1.
         23    2    1    2    0    0  0.70259600963E+02  0.12791169939E+02  0.31532134529E+02  0.12063226584E+03  0.91966529220E+02 0.  0.
          5    1    1    2  502    0 -0.84623709542E+01 -0.55419044171E+02 -0.10308594347E+03  0.11741833895E+03  0.41800000000E+01 0. -1.
         -5    1    1    2    0  502 -0.61797230009E+02  0.42627874232E+02 -0.18004567276E+03  0.19511522231E+03  0.41800000000E+01 0.  1.
        -11    1    3    3    0    0 -0.15134476199E+02 -0.38166439473E+01 -0.15280265828E+02  0.21842748559E+02  0.00000000000E+00 0.  1.
         11    1    3    3    0    0  0.85394077162E+02  0.16607813886E+02  0.46812400358E+02  0.98789517276E+02  0.00000000000E+00 0. -1.
</event>
<event>
 7    1  0.4687179E-006  0.7697992E+02  0.7561462E-02  0.1337847E+00
          2   -1    0    0  501    0  0.00000000000E+00  0.00000000000E+00  0.66505206535E+02  0.66505206535E+02  0.00000000000E+00 0. -1.
         -2   -1    0    0    0  501 -0.00000000000E+00 -0.00000000000E+00 -0.21931506415E+03  0.21931506415E+03  0.00000000000E+00 0.  1.
         23    2    1    2    0    0 -0.50851855099E+02 -0.12382976292E+02 -0.61193986453E+02  0.12217201903E+03  0.91880623563E+02 0.  0.
          5    1    1    2  502    0  0.26354103518E+02  0.59448966919E+01 -0.12133482352E+03  0.12437641403E+03  0.41800000000E+01 0.  1.
         -5    1    1    2    0  502  0.24497751581E+02  0.64380796004E+01  0.29718952355E+02  0.39271837627E+02  0.41800000000E+01 0.  1.
        -11    1    3    3    0    0  0.15092370550E+02  0.21923134203E+02 -0.33639138087E+02  0.42895163753E+02  0.00000000000E+00 0.  1.
         11    1    3    3    0    0 -0.65944225649E+02 -0.34306110496E+02 -0.27554848366E+02  0.79276855275E+02  0.00000000000E+00 0. -1.
</event>
<event>
 7    1  0.4687179E-006  0.1158975E+03  0.7561462E-02  0.1250023E+00
          1   -1    0    0  501    0  0.00000000000E+00  0.00000000000E+00  0.21636978613E+02  0.21636978613E+02  0.00000000000E+00 0. -1.
         -1   -1    0    0    0  501 -0.00000000000E+00 -0.00000000000E+00 -0.68983707573E+03  0.68983707573E+03  0.00000000000E+00 0.  1.
         23    2    1    2    0    0 -0.36683651536E+02  0.28010359886E+02 -0.20600077041E+03  0.23042762587E+03  0.92359638376E+02 0.  0.
          5    1    1    2  502    0  0.68379333102E+02 -0.56488916499E+02 -0.27357100164E+03  0.28762005531E+03  0.41800000000E+01 0.  1.
         -5    1    1    2    0  502 -0.31695681566E+02  0.28478556614E+02 -0.18862832507E+03  0.19342637317E+03  0.41800000000E+01 0.  1.
        -11    1    3    3    0    0 -0.20921667292E+02  0.60532790217E+02 -0.10319429589E+03  0.12145368483E+03  0.00000000000E+00 0.  1.
         11    1    3    3    0    0 -0.15761984245E+02 -0.32522430332E+02 -0.10280647452E+03  0.10897394104E+03  0.00000000000E+00 0. -1.
</event>
<event>
 7    1  0.4687179E-006  0.1466201E+03  0.7561462E-02  0.1204689E+00
         -2   -1    0    0    0  501 -0.00000000000E+00  0.00000000000E+00  0.41770235272E+02  0.41770235272E+02  0.00000000000E+00 0. -1.
          2   -1    0    0  501    0  0.00000000000E+00 -0.00000000000E+00 -0.59792320592E+03  0.59792320592E+03  0.00000000000E+00 0.  1.
         23    2    1    2    0    0  0.63735096775E+02  0.74529712067E+02 -0.37645075391E+03  0.39978351005E+03  0.92167479335E+02 0.  0.
          5    1    1    2  502    0 -0.28880152667E+02 -0.10712421111E+03 -0.12704917431E+03  0.16872647960E+03  0.41800000000E+01 0.  1.
         -5    1    1    2    0  502 -0.34854944108E+02  0.32594499046E+02 -0.52653042426E+02  0.71183451542E+02  0.41800000000E+01 0.  1.
        -11    1    3    3    0    0 -0.11013978985E+02  0.56302772104E+02 -0.17344285116E+03  0.18268479000E+03  0.00000000000E+00 0.  1.
         11    1    3    3    0    0  0.74749075760E+02  0.18226939963E+02 -0.20300790275E+03  0.21709872004E+03  0.00000000000E+00 0. -1.
</event>
<event>
 7    1  0.4687179E-006  0.1079422E+03  0.7561462E-02  0.1264429E+00
          2   -1    0    0  501    0  0.00000000000E+00  0.00000000000E+00  0.85118180212E+02  0.85118180212E+02  0.00000000000E+00 0. -1.
         -2   -1    0    0    0  501 -0.00000000000E+00 -0.00000000000E+00 -0.17853656098E+03  0.17853656098E+03  0.00000000000E+00 0.  1.
         23    2    1    2    0    0  0.55644734953E+02 -0.19181022242E+02 -0.29206687442E+02  0.11122501608E+03  0.89742551052E+02 0.  0.
          5    1    1    2  502    0 -0.53904599717E+02 -0.41157323726E+02 -0.55852106029E+01  0.68178428732E+02  0.41800000000E+01 0.  1.
         -5    1    1    2    0  502 -0.17401352360E+01  0.60338345968E+02 -0.58626482728E+02  0.84251296381E+02  0.41800000000E+01 0.  1.
        -11    1    3    3    0    0 -0.58422591000E+01 -0.24992285967E+02  0.19773281364E+02  0.32399521681E+02  0.00000000000E+00 0. -1.
         11    1    3    3    0    0  0.61486994053E+02  0.58112637251E+01 -0.48979968806E+02  0.78825494403E+02  0.00000000000E+00 0.  1.
</event>
<event>
 7    1  0.4937156E-006  0.3104858E+03  0.7561462E-02  0.1080113E+00
          2   -1    0    0  501    0  0.00000000000E+00  0.00000000000E+00  0.44710485929E+03  0.44710485929E+03  0.00000000000E+00 0.  1.
         -2   -1    0    0    0  501 -0.00000000000E+00 -0.00000000000E+00 -0.27413322450E+03  0.27413322450E+03  0.00000000000E+00 0. -1.
         23    2    1    2    0    0 -0.23753557799E+03 -0.18262952193E+03  0.23540322719E+03  0.39059954259E+03  0.85887311120E+02 0.  0.
          5    1    1    2  502    0  0.23737826271E+03  0.13495225725E+03 -0.70643029316E+02  0.28207882114E+03  0.41800000000E+01 0.  1.
         -5    1    1    2    0  502  0.15731527261E+00  0.47677264687E+02  0.82114369094E+01  0.48559720059E+02  0.41800000000E+01 0.  1.
        -11    1    3    3    0    0 -0.72691428110E+02 -0.47107089150E+02  0.23251152153E+02  0.89686886697E+02  0.00000000000E+00 0. -1.
         11    1    3    3    0    0 -0.16484414988E+03 -0.13552243278E+03  0.21215207504E+03  0.30091265590E+03  0.00000000000E+00 0.  1.
</event>
<event>
 7    1  0.4687179E-006  0.1131046E+03  0.7561462E-02  0.1254926E+00
         -1   -1    0    0    0  501 -0.00000000000E+00  0.00000000000E+00  0.55153907530E+02  0.55153907530E+02  0.00000000000E+00 0.  1.
          1   -1    0    0  501    0  0.00000000000E+00 -0.00000000000E+00 -0.31955193775E+03  0.31955193775E+03  0.00000000000E+00 0. -1.
         23    2    1    2    0    0  0.47463371940E+02  0.12869260058E+01 -0.18444227942E+03  0.21139895382E+03  0.91739497402E+02 0.  0.
          5    1    1    2  502    0 -0.49103204295E+02 -0.62033608834E+02 -0.59395481436E+02  0.99018124159E+02  0.41800000000E+01 0. -1.
         -5    1    1    2    0  502  0.16398323548E+01  0.60746682828E+02 -0.20560269364E+02  0.64288767301E+02  0.41800000000E+01 0.  1.
        -11    1    3    3    0    0 -0.19270267172E+02 -0.10200213670E+01 -0.10881124439E+03  0.11050914237E+03  0.00000000000E+00 0.  1.
         11    1    3    3    0    0  0.66733639112E+02  0.23069473728E+01 -0.75631035028E+02  0.10088981145E+03  0.00000000000E+00 0. -1.
</event>
<event>
 7    1  0.5502811E-006  0.8457903E+02  0.7561462E-02  0.1316537E+00
         -4   -1    0    0    0  501 -0.00000000000E+00  0.00000000000E+00  0.81184564409E+02  0.81184564409E+02  0.00000000000E+00 0. -1.
          4   -1    0    0  501    0  0.00000000000E+00 -0.00000000000E+00 -0.14233179796E+03  0.14233179796E+03  0.00000000000E+00 0.  1.
         23    2    1    2    0    0 -0.12032973144E+02  0.18215368313E+02 -0.50124784272E+02  0.96056772870E+02  0.78979855218E+02 0.  0.
          5    1    1    2  502    0 -0.11360887454E+02 -0.47913173115E+02  0.40168701521E+02  0.63684683430E+02  0.41800000000E+01 0.  1.
         -5    1    1    2    0  502  0.23393860598E+02  0.29697804803E+02 -0.51191150796E+02  0.63774906065E+02  0.41800000000E+01 0.  1.
        -11    1    3    3    0    0  0.22265845856E+01 -0.30685521798E+02 -0.15367086369E+02  0.34390496804E+02  0.00000000000E+00 0. -1.
         11    1    3    3    0    0 -0.14259557730E+02  0.48900890111E+02 -0.34757697903E+02  0.61666276066E+02  0.00000000000E+00 0.  1.
</event>
<event>
 7    1  0.4687179E-006  0.6383422E+02  0.7561462E-02  0.1382411E+00
         -2   -1    0    0    0  501 -0.00000000000E+00  0.00000000000E+00  0.57888066421E+02  0.57888066421E+02  0.00000000000E+00 0.  1.
          2   -1    0    0  501    0  0.00000000000E+00 -0.00000000000E+00 -0.23463964696E+03  0.23463964696E+03  0.00000000000E+00 0. -1.
         23    2    1    2    0    0  0.23921150054E+02  0.14161262499E+02 -0.12000852667E+03  0.15238423373E+03  0.89700309043E+02 0.  0.
          5    1    1    2  502    0 -0.37612365676E+02  0.83652880574E+01 -0.89711433579E+02  0.97725543288E+02  0.41800000000E+01 0. -1.
         -5    1    1    2    0  502  0.13691215622E+02 -0.22526550556E+02  0.32968379702E+02  0.42417936364E+02  0.41800000000E+01 0. -1.
        -11    1    3    3    0    0  0.18420983103E+02 -0.20248632456E+02 -0.11372802337E+03  0.11697607890E+03  0.00000000000E+00 0. -1.
         11    1    3    3    0    0  0.55001669511E+01  0.34409894955E+02 -0.62805032988E+01  0.35408154837E+02  0.00000000000E+00 0.  1.
</event>
<event>
 7    1  0.4687179E-006  0.9155637E+02  0.7561462E-02  0.1299126E+00
          2   -1    0    0  501    0  0.00000000000E+00  0.00000000000E+00  0.40777933638E+03  0.40777933638E+03  0.00000000000E+00 0.  1.
         -2   -1    0    0    0  501 -0.00000000000E+00 -0.00000000000E+00 -0.43916443571E+02  0.43916443571E+02  0.00000000000E+00 0. -1.
         23    2    1    2    0    0 -0.30812211430E+02  0.66800086370E+02  0.22790275363E+03  0.25284042053E+03  0.81098515584E+02 0.  0.
          5    1    1    2  502    0 -0.22403440856E+02 -0.23309495586E+01 -0.14193215190E+02  0.26949345919E+02  0.41800000000E+01 0.  1.
         -5    1    1    2    0  502  0.53215652287E+02 -0.64469136811E+02  0.15015335437E+03  0.17190601351E+03  0.41800000000E+01 0.  1.
        -11    1    3    3    0    0 -0.26717704764E+02  0.33013673775E+02  0.29914207547E+02  0.51948033814E+02  0.00000000000E+00 0. -1.
         11    1    3    3    0    0 -0.40945066663E+01  0.33786412595E+02  0.19798854608E+03  0.20089238671E+03  0.00000000000E+00 0.  1.
</event>
<event>
 7    1  0.4687179E-006  0.7537463E+02  0.7561462E-02  0.1342715E+00
         -1   -1    0    0    0  501 -0.00000000000E+00  0.00000000000E+00  0.79725038670E+02  0.79725038670E+02  0.00000000000E+00 0.  1.
          1   -1    0    0  501    0  0.00000000000E+00 -0.00000000000E+00 -0.15973776412E+03  0.15973776412E+03  0.00000000000E+00 0. -1.
         23    2    1    2    0    0 -0.34038890112E+01 -0.12539076946E+02 -0.68374577406E+02  0.11316233871E+03  0.89229015219E+02 0.  0.
          5    1    1    2  502    0  0.38933399149E+02  0.54541252947E+01 -0.56202989943E+02  0.68715395150E+02  0.41800000000E+01 0. -1.
         -5    1    1    2    0  502 -0.35529510138E+02  0.70849516516E+01  0.44564841894E+02  0.57585068930E+02  0.41800000000E+01 0. -1.
        -11    1    3    3    0    0 -0.24112009608E+02  0.23186400002E+02 -0.19390970383E+00  0.33451991770E+02  0.00000000000E+00 0.  1.
         11    1    3    3    0    0  0.20708120597E+02 -0.35725476948E+02 -0.68180667702E+02  0.79710346945E+02  0.00000000000E+00 0. -1.
</event>
<event>
 7    1  0.4687179E-006  0.2524914E+03  0.7561462E-02  0.1111740E+00
         -2   -1    0    0    0  501 -0.00000000000E+00  0.00000000000E+00  0.14973581882E+03  0.14973581882E+03  0.00000000000E+00 0. -1.
          2   -1    0    0  501    0  0.00000000000E+00 -0.00000000000E+00 -0.46284718333E+03  0.46284718333E+03  0.00000000000E+00 0.  1.
         23    2    1    2    0    0  0.23871706932E+03 -0.49566737153E+01 -0.17505005142E+03  0.30973640871E+03  0.91014914067E+02 0.  0.
          5    1    1    2  502    0 -0.70546549907E+01 -0.14835736452E+02 -0.52323091227E+02  0.55000413713E+02  0.41800000000E+01 0. -1.
         -5    1    1    2    0  502 -0.23166241433E+03  0.19792410167E+02 -0.85738221862E+02  0.24784617972E+03  0.41800000000E+01 0. -1.
        -11    1    3    3    0    0  0.12938826486E+03 -0.47980585749E+02 -0.97257271855E+02  0.16882664665E+03  0.00000000000E+00 0.  1.
         11    1    3    3    0    0  0.10932880446E+03  0.43023912033E+02 -0.77792779563E+02  0.14090976206E+03  0.00000000000E+00 0. -1.
</event>
<event>
 7    1  0.4687179E-006  0.9107612E+02  0.7561462E-02  0.1300266E+00
          1   -1    0    0  501    0  0.00000000000E+00  0.00000000000E+00  0.20448925151E+03  0.20448925151E+03  0.00000000000E+00 0. -1.
         -1   -1    0    0    0  501 -0.00000000000E+00 -0.00000000000E+00 -0.78997720747E+02  0.78997720747E+02  0.00000000000E+00 0.  1.
         23    2    1    2    0    0 -0.34109481661E+02  0.46610642116E+02  0.91490723526E+02  0.14156322434E+03  0.91288472972E+02 0.  0.
          5    1    1    2  502    0  0.59729064006E+02 -0.30506866595E+02 -0.28005396074E+02  0.72801130525E+02  0.41800000000E+01 0.  1.
         -5    1    1    2    0  502 -0.25619582345E+02 -0.16103775521E+02  0.62006203309E+02  0.69122617386E+02  0.41800000000E+01 0.  1.
        -11    1    3    3    0    0 -0.41070163099E+02  0.40387308048E+01  0.95881506273E+00  0.41279401277E+02  0.00000000000E+00 0.  1.
         11    1    3    3    0    0  0.69606814383E+01  0.42571911311E+02  0.90531908463E+02  0.10028382307E+03  0.00000000000E+00 0. -1.
</event>
<event>
 7    1  0.4687179E-006  0.9111654E+02  0.7561462E-02  0.1300170E+00
         -2   -1    0    0    0  501 -0.00000000000E+00  0.00000000000E+00  0.17275754663E+03  0.17275754663E+03  0.00000000000E+00 0.  1.
          2   -1    0    0  501    0  0.00000000000E+00 -0.00000000000E+00 -0.80200172963E+02  0.80200172963E+02  0.00000000000E+00 0. -1.
         23    2    1    2    0    0 -0.11033257690E+02  0.60350315286E+02  0.42795111504E+02  0.10494445848E+03  0.73607231072E+02 0.  0.
          5    1    1    2  502    0  0.36046331092E+02 -0.41218486735E+02 -0.29702488286E+02  0.62434059970E+02  0.41800000000E+01 0.  1.
         -5    1    1    2    0  502 -0.25013073402E+02 -0.19131828551E+02  0.79464750452E+02  0.85579201148E+02  0.41800000000E+01 0.  1.
        -11    1    3    3    0    0  0.20231865604E+02  0.61010665165E+02  0.32459188911E+02  0.72008531400E+02  0.00000000000E+00 0.  1.
         11    1    3    3    0    0 -0.31265123294E+02 -0.66034987860E+00  0.10335922593E+02  0.32935927077E+02  0.00000000000E+00 0. -1.
</event>
<event>
 7    1  0.4687179E-006  0.9566109E+02  0.7561462E-02  0.1289694E+00
         -2   -1    0    0    0  501 -0.00000000000E+00  0.00000000000E+00  0.16992322713E+03  0.16992322713E+03  0.00000000000E+00 0.  1.
          2   -1    0    0  501    0  0.00000000000E+00 -0.00000000000E+00 -0.89921299601E+02  0.89921299601E+02  0.00000000000E+00 0. -1.
         23    2    1    2    0    0 -0.43260014505E+02 -0.10279022395E+02 -0.38862673186E+01  0.10280337646E+03  0.92608552416E+02 0.  0.
          5    1    1    2  502    0  0.45401289492E+02 -0.45776911264E+02  0.76771984052E+02  0.10034048349E+03  0.41800000000E+01 0.  1.
         -5    1    1    2    0  502 -0.21412749874E+01  0.56055933659E+02  0.71162107917E+01  0.56700666778E+02  0.41800000000E+01 0.  1.
        -11    1    3    3    0    0 -0.49536436040E+02 -0.24243743712E+02  0.32017865254E+02  0.63771163547E+02  0.00000000000E+00 0.  1.
         11    1    3    3    0    0  0.62764215354E+01  0.13964721316E+02 -0.35904132573E+02  0.39032212909E+02  0.00000000000E+00 0. -1.
</event>
<event>
 7    1  0.4687179E-006  0.1142428E+03  0.7561462E-02  0.1252909E+00
         -1   -1    0    0    0  501 -0.00000000000E+00  0.00000000000E+00  0.40683791412E+03  0.40683791412E+03  0.00000000000E+00 0.  1.
          1   -1    0    0  501    0  0.00000000000E+00 -0.00000000000E+00 -0.71828178807E+02  0.71828178807E+02  0.00000000000E+00 0. -1.
         23    2    1    2    0    0  0.52363858792E+02 -0.64527336747E+02  0.19271105959E+02  0.12903060616E+03  0.96807907250E+02 0.  0.
          5    1    1    2  502    0  0.18463044167E+02  0.28784347682E+02  0.13288280403E+02  0.36925241603E+02  0.41800000000E+01 0.  1.
         -5    1    1    2    0  502 -0.70826902958E+02  0.35742989066E+02  0.30245034895E+03  0.31271024516E+03  0.41800000000E+01 0.  1.
        -11    1    3    3    0    0  0.51951202406E+02 -0.19261791147E+01  0.37183390032E+02  0.63915898583E+02  0.00000000000E+00 0.  1.
         11    1    3    3    0    0  0.41265638558E+00 -0.62601157633E+02 -0.17912284073E+02  0.65114707578E+02  0.00000000000E+00 0. -1.
</event>
<event>
 7    1  0.7294400E-006  0.2471468E+03  0.7561462E-02  0.1115121E+00
          1   -1    0    0  501    0  0.00000000000E+00  0.00000000000E+00  0.11172506502E+04  0.11172506502E+04  0.00000000000E+00 0. -1.
         -1   -1    0    0    0  501 -0.00000000000E+00 -0.00000000000E+00 -0.65342709535E+02  0.65342709535E+02  0.00000000000E+00 0.  1.
         23    2    1    2    0    0  0.23180066711E+03 -0.32501817724E+02  0.68633153824E+03  0.73083899126E+03  0.91031496411E+02 0.  0.
          5    1    1    2  502    0 -0.17246229692E+03 -0.28587196938E+02  0.20113113812E+03  0.26651768948E+03  0.41800000000E+01 0.  1.
         -5    1    1    2    0  502 -0.59338370196E+02  0.61089014662E+02  0.16444526431E+03  0.18523667899E+03  0.41800000000E+01 0.  1.
        -11    1    3    3    0    0  0.18617407796E+03 -0.23440087996E+02  0.41368625384E+03  0.45425382954E+03  0.00000000000E+00 0.  1.
         11    1    3    3    0    0  0.45626589149E+02 -0.90617297272E+01  0.27264528440E+03  0.27658516173E+03  0.00000000000E+00 0. -1.
</event>
<event>
 7    1  0.4687179E-006  0.1102606E+03  0.7561462E-02  0.1260088E+00
          1   -1    0    0  501    0  0.00000000000E+00  0.00000000000E+00  0.18106186128E+03  0.18106186128E+03  0.00000000000E+00 0. -1.
         -1   -1    0    0    0  501 -0.00000000000E+00 -0.00000000000E+00 -0.15242743231E+03  0.15242743231E+03  0.00000000000E+00 0.  1.
         23    2    1    2    0    0 -0.56829715001E+02 -0.58652254011E+02  0.10864363900E+03  0.16402301968E+03  0.91817249371E+02 0.  0.
          5    1    1    2  502    0  0.89475661899E+02  0.55284819930E+02 -0.29907785651E+02  0.10942693192E+03  0.41800000000E+01 0.  1.
         -5    1    1    2    0  502 -0.32645946898E+02  0.33674340808E+01 -0.50101424379E+02  0.60039341985E+02  0.41800000000E+01 0.  1.
        -11    1    3    3    0    0 -0.35286588245E+02 -0.42565700072E+02  0.33945991672E+01  0.55394092068E+02  0.00000000000E+00 0.  1.
         11    1    3    3    0    0 -0.21543126756E+02 -0.16086553939E+02  0.10524903984E+03  0.10862892761E+03  0.00000000000E+00 0. -1.
</event>
<event>
 7    1  0.4687179E-006  0.1145735E+03  0.7561462E-02  0.1252327E+00
         -3   -1    0    0    0  501 -0.00000000000E+00  0.00000000000E+00  0.10330081785E+03  0.10330081785E+03  0.00000000000E+00 0.  1.
          3   -1    0    0  501    0  0.00000000000E+00 -0.00000000000E+00 -0.13305382005E+03  0.13305382005E+03  0.00000000000E+00 0. -1.
         23    2    1    2    0    0 -0.38543093868E+02 -0.89356204160E+01 -0.33612729854E+02  0.10511355237E+03  0.91398183163E+02 0.  0.
          5    1    1    2  502    0  0.59126774902E+02  0.54806457051E+02  0.28898560761E+01  0.80780857342E+02  0.41800000000E+01 0.  1.
         -5    1    1    2    0  502 -0.20583681035E+02 -0.45870836635E+02  0.96987157752E+00  0.50460228194E+02  0.41800000000E+01 0.  1.
        -11    1    3    3    0    0 -0.49902805939E+02  0.29443901234E+02 -0.10472520612E+02  0.58880447081E+02  0.00000000000E+00 0.  1.
         11    1    3    3    0    0  0.11359712072E+02 -0.38379521650E+02 -0.23140209243E+02  0.46233105284E+02  0.00000000000E+00 0. -1.
</event>
<event>
 7    1  0.4687179E-006  0.8406349E+02  0.7561462E-02  0.1317900E+00
         -3   -1    0    0    0  501 -0.00000000000E+00  0.00000000000E+00  0.48299257754E+02  0.48299257754E+02  0.00000000000E+00 0.  1.
          3   -1    0    0  501    0  0.00000000000E+00 -0.00000000000E+00 -0.28172207717E+03  0.28172207717E+03  0.00000000000E+00 0. -1.
         23    2    1    2    0    0 -0.29595030698E+02 -0.69136255626E+01 -0.14430295704E+03  0.17345322761E+03  0.91318205725E+02 0.  0.
          5    1    1    2  502    0 -0.26847907377E+02 -0.16110879982E+02 -0.90080897856E+02  0.95458950040E+02  0.41800000000E+01 0.  1.
         -5    1    1    2    0  502  0.56442938075E+02  0.23024505545E+02  0.96103547564E+00  0.61109157279E+02  0.41800000000E+01 0.  1.
        -11    1    3    3    0    0  0.11543346290E+02  0.22211503037E+02 -0.52908301425E+01  0.25585007218E+02  0.00000000000E+00 0.  1.
         11    1    3    3    0    0 -0.41138376988E+02 -0.29125128600E+02 -0.13901212689E+03  0.14786822039E+03  0.00000000000E+00 0. -1.
</event>
<event>
 7    1  0.4687179E-006  0.1998945E+03  0.7561462E-02  0.1149828E+00
          2   -1    0    0  501    0  0.00000000000E+00  0.00000000000E+00  0.98180760257E+02  0.98180760257E+02  0.00000000000E+00 0. -1.
         -2   -1    0    0    0  501 -0.00000000000E+00 -0.00000000000E+00 -0.46573509333E+03  0.46573509333E+03  0.00000000000E+00 0.  1.
         23    2    1    2    0    0  0.31273034534E+02 -0.14182619060E+03 -0.13548918336E+03  0.21885963298E+03  0.91921429022E+02 0.  0.
          5    1    1    2  502    0  0.78451822975E+02  0.73597167711E+02 -0.42784127124E+02  0.11584120837E+03  0.41800000000E+01 0. -1.
         -5    1    1    2    0  502 -0.10972485751E+03  0.68229022888E+02 -0.18928102259E+03  0.22921501223E+03  0.41800000000E+01 0.  1.
        -11    1    3    3    0    0 -0.38803153418E+01 -0.12285565179E+03 -0.12936313925E+03  0.17844716255E+03  0.00000000000E+00 0.  1.
         11    1    3    3    0    0  0.35153349876E+02 -0.18970538809E+02 -0.61260441028E+01  0.40412470433E+02  0.00000000000E+00 0. -1.
</event>
<event>
 7    1  0.4687179E-006  0.1843218E+03  0.7561462E-02  0.1163685E+00
          1   -1    0    0  501    0  0.00000000000E+00  0.00000000000E+00  0.72658570153E+03  0.72658570153E+03  0.00000000000E+00 0. -1.
         -1   -1    0    0    0  501 -0.00000000000E+00 -0.00000000000E+00 -0.10485476324E+03  0.10485476324E+03  0.00000000000E+00 0.  1.
         23    2    1    2    0    0 -0.65014323248E+02  0.24633979517E+02  0.31568212527E+03  0.33583342726E+03  0.91077941773E+02 0.  0.
          5    1    1    2  502    0 -0.96645997068E+02 -0.24487313952E+02  0.31815813697E+03  0.33343987436E+03  0.41800000000E+01 0. -1.
         -5    1    1    2    0  502  0.16166032032E+03 -0.14666556539E+00 -0.12109323947E+02  0.16216716314E+03  0.41800000000E+01 0.  1.
        -11    1    3    3    0    0 -0.81537667362E+02  0.33777671100E+02  0.29457111486E+03  0.30750847789E+03  0.00000000000E+00 0. -1.
         11    1    3    3    0    0  0.16523344115E+02 -0.91436915829E+01  0.21111010413E+02  0.28324949376E+02  0.00000000000E+00 0.  1.
</event>
<event>
 7    1  0.4687179E-006  0.2453296E+03  0.7561462E-02  0.1116292E+00
         -2   -1    0    0    0  501 -0.00000000000E+00  0.00000000000E+00  0.49481480538E+03  0.49481480538E+03  0.00000000000E+00 0.  1.
          2   -1    0    0  501    0  0.00000000000E+00 -0.00000000000E+00 -0.19594353158E+03  0.19594353158E+03  0.00000000000E+00 0. -1.
         23    2    1    2    0    0 -0.11716363765E+02 -0.23602401346E+03 -0.42616717479E+02  0.25704681430E+03  0.91718438857E+02 0.  0.
          5    1    1    2  502    0  0.27310599918E+02  0.23284958580E+03  0.34475232995E+03  0.41693697351E+03  0.41800000000E+01 0.  1.
         -5    1    1    2    0  502 -0.15594236153E+02  0.31744276529E+01 -0.32643386641E+01  0.16774549145E+02  0.41800000000E+01 0.  1.
        -11    1    3    3    0    0  0.96610949294E+01 -0.16204696423E+02  0.19991373426E+02  0.27487887384E+02  0.00000000000E+00 0. -1.
         11    1    3    3    0    0 -0.21377458694E+02 -0.21981931703E+03 -0.62608090904E+02  0.22955892692E+03  0.00000000000E+00 0.  1.
</event>
<event>
 7    1  0.4687179E-006  0.1009830E+03  0.7561462E-02  0.1278242E+00
         -1   -1    0    0    0  501 -0.00000000000E+00  0.00000000000E+00  0.56179380697E+02  0.56179380697E+02  0.00000000000E+00 0.  1.
          1   -1    0    0  501    0  0.00000000000E+00 -0.00000000000E+00 -0.38118456215E+03  0.38118456215E+03  0.00000000000E+00 0. -1.
         23    2    1    2    0    0 -0.53509858869E+02 -0.18182036713E+02 -0.28670982490E+03  0.30634657700E+03  0.91933726616E+02 0.  0.
          5    1    1    2  502    0 -0.26001628858E+02 -0.22899148862E+01  0.17462300671E+02  0.31681741716E+02  0.41800000000E+01 0. -1.
         -5    1    1    2    0  502  0.79511487728E+02  0.20471951599E+02 -0.55757657226E+02  0.99335624135E+02  0.41800000000E+01 0.  1.
        -11    1    3    3    0    0 -0.68465243625E+02  0.16451601703E+01 -0.26384703448E+03  0.27259026714E+03  0.00000000000E+00 0. -1.
         11    1    3    3    0    0  0.14955384756E+02 -0.19827196883E+02 -0.22862790423E+02  0.33756309860E+02  0.00000000000E+00 0.  1.
</event>
<event>
 7    1  0.4687179E-006  0.2031731E+03  0.7561462E-02  0.1147089E+00
         -3   -1    0    0    0  501 -0.00000000000E+00  0.00000000000E+00  0.10150018111E+04  0.10150018111E+04  0.00000000000E+00 0.  1.
          3   -1    0    0  501    0  0.00000000000E+00 -0.00000000000E+00 -0.45215385506E+02  0.45215385506E+02  0.00000000000E+00 0. -1.
         23    2    1    2    0    0 -0.18219164353E+03  0.25606103068E+02  0.47695034432E+03  0.51948997369E+03  0.92405272193E+02 0.  0.
          5    1    1    2  502    0  0.67344768945E+02 -0.50643405351E+02  0.32506101037E+03  0.33583061991E+03  0.41800000000E+01 0. -1.
         -5    1    1    2    0  502  0.11484687458E+03  0.25037302283E+02  0.16777507091E+03  0.20489660301E+03  0.41800000000E+01 0. -1.
        -11    1    3    3    0    0 -0.88998686035E+02 -0.32260075763E+02  0.18975260707E+03  0.21205548918E+03  0.00000000000E+00 0.  1.
         11    1    3    3    0    0 -0.93192957490E+02  0.57866178831E+02  0.28719773725E+03  0.30743448450E+03  0.00000000000E+00 0. -1.
</event>
<event>
 7    1  0.4687179E-006  0.1398433E+03  0.7561462E-02  0.1213540E+00
          2   -1    0    0  501    0  0.00000000000E+00  0.00000000000E+00  0.30767379340E+02  0.30767379340E+02  0.00000000000E+00 0. -1.
         -2   -1    0    0    0  501 -0.00000000000E+00 -0.00000000000E+00 -0.74724534103E+03  0.74724534103E+03  0.00000000000E+00 0.  1.
         23    2    1    2    0    0 -0.61854358954E+02 -0.84708145772E+02 -0.37090935200E+03  0.39582593225E+03  0.90016607133E+02 0.  0.
          5    1    1    2  502    0 -0.10258859523E+02  0.67286174527E+02 -0.73968210292E+02  0.10060537766E+03  0.41800000000E+01 0.  1.
         -5    1    1    2    0  502  0.72113218476E+02  0.17421971245E+02 -0.27160039940E+03  0.28158141046E+03  0.41800000000E+01 0.  1.
        -11    1    3    3    0    0 -0.73871874942E+02 -0.27646532234E+02 -0.18899490145E+03  0.20479369479E+03  0.00000000000E+00 0. -1.
         11    1    3    3    0    0  0.12017515988E+02 -0.57061613539E+02 -0.18191445055E+03  0.19103223746E+03  0.00000000000E+00 0.  1.
</event>
<event>
 7    1  0.4687179E-006  0.1461612E+03  0.7561462E-02  0.1205271E+00
          1   -1    0    0  501    0  0.00000000000E+00  0.00000000000E+00  0.63765380049E+03  0.63765380049E+03  0.00000000000E+00 0. -1.
         -1   -1    0    0    0  501 -0.00000000000E+00 -0.00000000000E+00 -0.42806453339E+02  0.42806453339E+02  0.00000000000E+00 0.  1.
         23    2    1    2    0    0 -0.81703605323E+02 -0.22942659561E+02  0.40208119170E+03  0.42150527579E+03  0.93784689836E+02 0.  0.
          5    1    1    2  502    0  0.53245622553E+02 -0.59721349708E+02  0.60694409377E+02  0.10051377847E+03  0.41800000000E+01 0. -1.
         -5    1    1    2    0  502  0.28457982770E+02  0.82664009270E+02  0.13207174608E+03  0.15844119958E+03  0.41800000000E+01 0.  1.
        -11    1    3    3    0    0 -0.93311586962E+02  0.59890405160E+01  0.32956138106E+03  0.34256915324E+03  0.00000000000E+00 0. -1.
         11    1    3    3    0    0  0.11607981639E+02 -0.28931700078E+02  0.72519810637E+02  0.78936122542E+02  0.00000000000E+00 0.  1.
</event>
<event>
 7    1  0.4687179E-006  0.1103114E+03  0.7561462E-02  0.1259994E+00
          2   -1    0    0  501    0  0.00000000000E+00  0.00000000000E+00  0.14445710774E+03  0.14445710774E+03  0.00000000000E+00 0. -1.
         -2   -1    0    0    0  501 -0.00000000000E+00 -0.00000000000E+00 -0.11284016624E+03  0.11284016624E+03  0.00000000000E+00 0.  1.
         23    2    1    2    0    0  0.94833219558E+01 -0.10746493833E+02  0.78169524275E+02  0.12305440641E+03  0.93949411310E+02 0.  0.
          5    1    1    2  502    0 -0.67080614800E+02  0.11248012651E+02 -0.24120879683E+02  0.72288421668E+02  0.41800000000E+01 0.  1.
         -5    1    1    2    0  502  0.57597292844E+02 -0.50151881790E+00 -0.22431703093E+02  0.61954445908E+02  0.41800000000E+01 0.  1.
        -11    1    3    3    0    0  0.19550197224E+02  0.39184490300E+02  0.41106378081E+02  0.60061375363E+02  0.00000000000E+00 0.  1.
         11    1    3    3    0    0 -0.10066875269E+02 -0.49930984133E+02  0.37063146193E+02  0.62993031042E+02  0.00000000000E+00 0. -1.
</event>
<event>
 7    1  0.4687179E-006  0.1469436E+03  0.7561462E-02  0.1204280E+00
          1   -1    0    0  501    0  0.00000000000E+00  0.00000000000E+00  0.13532989403E+04  0.13532989403E+04  0.00000000000E+00 0. -1.
         -1   -1    0    0    0  501 -0.00000000000E+00 -0.00000000000E+00 -0.22218218521E+02  0.22218218521E+02  0.00000000000E+00 0.  1.
         23    2    1    2    0    0 -0.10992716069E+03 -0.64571184518E+02  0.78216829184E+03  0.79828093108E+03  0.95978068525E+02 0.  0.
          5    1    1    2  502    0  0.34628031911E+02 -0.40180848750E+00  0.37679641611E+03  0.37840754965E+03  0.41800000000E+01 0.  1.
         -5    1    1    2    0  502  0.75299128780E+02  0.64972993006E+02  0.17211601387E+03  0.19882867813E+03  0.41800000000E+01 0.  1.
        -11    1    3    3    0    0 -0.77257631320E+02  0.10140002779E+02  0.39744241000E+03  0.40500867956E+03  0.00000000000E+00 0.  1.
         11    1    3    3    0    0 -0.32669529371E+02 -0.74711187297E+02  0.38472588184E+03  0.39327225152E+03  0.00000000000E+00 0. -1.
</event>
<event>
 7    1  0.4687179E-006  0.1443022E+03  0.7561462E-02  0.1207655E+00
         -1   -1    0    0    0  501 -0.00000000000E+00  0.00000000000E+00  0.81678789826E+03  0.81678789826E+03  0.00000000000E+00 0.  1.
          1   -1    0    0  501    0  0.00000000000E+00 -0.00000000000E+00 -0.31265438978E+02  0.31265438978E+02  0.00000000000E+00 0. -1.
         23    2    1    2    0    0  0.69843085084E+02 -0.94178012495E+02  0.36409938792E+03  0.39308878728E+03  0.90569729092E+02 0.  0.
          5    1    1    2  502    0  0.22430418802E+02 -0.15563489605E+02  0.57366505356E+02  0.63668942453E+02  0.41800000000E+01 0.  1.
         -5    1    1    2    0  502 -0.92273503887E+02  0.10974150210E+03  0.36405656601E+03  0.39129560751E+03  0.41800000000E+01 0.  1.
        -11    1    3    3    0    0  0.18439635198E+02 -0.31319726277E+02  0.24294950788E+02  0.43717159492E+02  0.00000000000E+00 0. -1.
         11    1    3    3    0    0  0.51403449886E+02 -0.62858286218E+02  0.33980443713E+03  0.34937162778E+03  0.00000000000E+00 0.  1.
</event>
<event>
 7    1  0.4687179E-006  0.1051298E+03  0.7561462E-02  0.1269864E+00
          1   -1    0    0  501    0  0.00000000000E+00  0.00000000000E+00  0.11854784862E+03  0.11854784862E+03  0.00000000000E+00 0. -1.
         -1   -1    0    0    0  501 -0.00000000000E+00 -0.00000000000E+00 -0.14267384002E+03  0.14267384002E+03  0.00000000000E+00 0.  1.
         23    2    1    2    0    0  0.29211620389E+02 -0.59963495669E+02  0.57812199115E+01  0.11633915841E+03  0.95144299340E+02 0.  0.
          5    1    1    2  502    0 -0.57719856293E+02  0.65452415685E+02 -0.57517162049E+02  0.10460065420E+03  0.41800000000E+01 0. -1.
         -5    1    1    2    0  502  0.28508235904E+02 -0.54889200160E+01  0.27609950736E+02  0.40281876035E+02  0.41800000000E+01 0. -1.
        -11    1    3    3    0    0 -0.19224952992E+02 -0.41631180004E+01 -0.28704321468E+02  0.34797534970E+02  0.00000000000E+00 0.  1.
         11    1    3    3    0    0  0.48436573381E+02 -0.55800377668E+02  0.34485541380E+02  0.81541623439E+02  0.00000000000E+00 0. -1.
</event>
<event>
 7    1  0.4687179E-006  0.9112895E+02  0.7561462E-02  0.1300141E+00
          3   -1    0    0  501    0  0.00000000000E+00  0.00000000000E+00  0.50056714588E+02  0.50056714588E+02  0.00000000000E+00 0. -1.
         -3   -1    0    0    0  501 -0.00000000000E+00 -0.00000000000E+00 -0.28895975023E+03  0.28895975023E+03  0.00000000000E+00 0.  1.
         23    2    1    2    0    0 -0.33115753378E+01 -0.18522354308E+02 -0.32911164653E+02  0.97284598560E+02  0.89594108165E+02 0.  0.
          5    1    1    2  502    0 -0.29398461732E+02  0.45644641967E+02 -0.33274210837E+02  0.63814954355E+02  0.41800000000E+01 0.  1.
         -5    1    1    2    0  502  0.32710037069E+02 -0.27122287659E+02 -0.17271766015E+03  0.17791691190E+03  0.41800000000E+01 0.  1.
        -11    1    3    3    0    0  0.39828902482E+02 -0.10957763262E+02 -0.33955820137E+02  0.53473467905E+02  0.00000000000E+00 0.  1.
         11    1    3    3    0    0 -0.43140477820E+02 -0.75645910462E+01  0.10446554834E+01  0.43811130655E+02  0.00000000000E+00 0. -1.
</event>
<event>
 7    1  0.4687179E-006  0.1302924E+03  0.7561462E-02  0.1227023E+00
          1   -1    0    0  501    0  0.00000000000E+00  0.00000000000E+00  0.74536527645E+03  0.74536527645E+03  0.00000000000E+00 0. -1.
         -1   -1    0    0    0  501 -0.00000000000E+00 -0.00000000000E+00 -0.25393333965E+02  0.25393333965E+02  0.00000000000E+00 0.  1.
         23    2    1    2    0    0  0.72342905122E+02 -0.29815391954E+02  0.41060835472E+03  0.42801283584E+03  0.92050601097E+02 0.  0.
          5    1    1    2  502    0  0.29736827914E+02 -0.13820362078E+02  0.10575704363E+03  0.11080300547E+03  0.41800000000E+01 0.  1.
         -5    1    1    2    0  502 -0.10207973304E+03  0.43635754032E+02  0.20360654413E+03  0.23194276910E+03  0.41800000000E+01 0.  1.
        -11    1    3    3    0    0  0.79291711580E+02 -0.50907371215E+02  0.27741578257E+03  0.29298165880E+03  0.00000000000E+00 0. -1.
         11    1    3    3    0    0 -0.69488064576E+01  0.21091979260E+02  0.13319257214E+03  0.13503117705E+03  0.00000000000E+00 0.  1.
</event>
<event>
 7    1  0.4687179E-006  0.8360479E+02  0.7561462E-02  0.1319122E+00
         -1   -1    0    0    0  501 -0.00000000000E+00  0.00000000000E+00  0.13369863966E+03  0.13369863966E+03  0.00000000000E+00 0.  1.
          1   -1    0    0  501    0  0.00000000000E+00 -0.00000000000E+00 -0.98352448401E+02  0.98352448401E+02  0.00000000000E+00 0. -1.
         23    2    1    2    0    0  0.37048954135E+02 -0.52065776745E+01  0.14433287419E+01  0.97160264069E+02  0.89656568430E+02 0.  0.
          5    1    1    2  502    0 -0.17415432221E+02 -0.59442327082E+02  0.23606702152E+02  0.66418644332E+02  0.41800000000E+01 0. -1.
         -5    1    1    2    0  502 -0.19633521914E+02  0.64648904757E+02  0.10296160365E+02  0.68472179659E+02  0.41800000000E+01 0. -1.
        -11    1    3    3    0    0  0.14795850369E+02 -0.27006680047E+01  0.45400851048E+02  0.47827273304E+02  0.00000000000E+00 0.  1.
         11    1    3    3    0    0  0.22253103766E+02 -0.25059096698E+01 -0.43957522306E+02  0.49332990765E+02  0.00000000000E+00 0. -1.
</event>
<event>
 7    1  0.4687179E-006  0.1680404E+03  0.7561462E-02  0.1179907E+00
         -2   -1    0    0    0  501 -0.00000000000E+00  0.00000000000E+00  0.44491902292E+02  0.44491902292E+02  0.00000000000E+00 0.  1.
          2   -1    0    0  501    0  0.00000000000E+00 -0.00000000000E+00 -0.97609989942E+03  0.97609989942E+03  0.00000000000E+00 0. -1.
         23    2    1    2    0    0 -0.36145506551E+02 -0.52036395733E+02 -0.23245226644E+03  0.25744941117E+03  0.90729592832E+02 0.  0.
          5    1    1    2  502    0 -0.92020737045E+02  0.73473376537E+01 -0.56410051173E+03  0.57161933063E+03  0.41800000000E+01 0. -1.
         -5    1    1    2    0  502  0.12816624360E+03  0.44689058080E+02 -0.13505521897E+03  0.19152305992E+03  0.41800000000E+01 0.  1.
        -11    1    3    3    0    0  0.28630952082E+02 -0.86452877064E+01 -0.92886465931E+02  0.97582621249E+02  0.00000000000E+00 0. -1.
         11    1    3    3    0    0 -0.64776458633E+02 -0.43391108027E+02 -0.13956580051E+03  0.15986678992E+03  0.00000000000E+00 0.  1.
</event>
<event>
 7    1  0.4687179E-006  0.1136628E+03  0.7561462E-02  0.1253933E+00
          1   -1    0    0  501    0  0.00000000000E+00  0.00000000000E+00  0.42916976609E+03  0.42916976609E+03  0.00000000000E+00 0. -1.
         -1   -1    0    0    0  501 -0.00000000000E+00 -0.00000000000E+00 -0.33710286910E+02  0.33710286910E+02  0.00000000000E+00 0.  1.
         23    2    1    2    0    0 -0.30318173914E+02 -0.39877785529E+02  0.18586812248E+03  0.21371029021E+03  0.92820793693E+02 0.  0.
          5    1    1    2  502    0 -0.47608938653E+02  0.18319291579E+02  0.58315952277E+02  0.77591431058E+02  0.41800000000E+01 0.  1.
         -5    1    1    2    0  502  0.77927112568E+02  0.21558493949E+02  0.15127540442E+03  0.17157833173E+03  0.41800000000E+01 0.  1.
        -11    1    3    3    0    0  0.21450536218E+02  0.96630593940E+01  0.13695674704E+02  0.27222632615E+02  0.00000000000E+00 0.  1.
         11    1    3    3    0    0 -0.51768710132E+02 -0.49540844923E+02  0.17217244777E+03  0.18648765760E+03  0.00000000000E+00 0. -1.
</event>
<event>
 7    1  0.4687179E-006  0.1101310E+03  0.7561462E-02  0.1260327E+00
         -2   -1    0    0    0  501 -0.00000000000E+00  0.00000000000E+00  0.66106916029E+02  0.66106916029E+02  0.00000000000E+00 0.  1.
          2   -1    0    0  501    0  0.00000000000E+00 -0.00000000000E+00 -0.26646373367E+03  0.26646373367E+03  0.00000000000E+00 0. -1.
         23    2    1    2    0    0  0.28973176251E+02 -0.51401388950E+02 -0.15130175247E+03  0.18582208765E+03  0.90311019421E+02 0.  0.
          5    1    1    2  502    0 -0.51819976189E+02 -0.20291021640E+02  0.17949885910E+01  0.55836635603E+02  0.41800000000E+01 0.  1.
         -5    1    1    2    0  502  0.22846799938E+02  0.71692410590E+02 -0.50850053766E+02  0.90911926454E+02  0.41800000000E+01 0.  1.
        -11    1    3    3    0    0 -0.76187129455E+01 -0.51941813508E+02 -0.13667653678E+03  0.14641199569E+03  0.00000000000E+00 0. -1.
         11    1    3    3    0    0  0.36591889197E+02  0.54042455870E+00 -0.14625215692E+02  0.39410091952E+02  0.00000000000E+00 0.  1.
</event>
<event>
 7    1  0.4687179E-006  0.2230316E+03  0.7561462E-02  0.1131643E+00
          2   -1    0    0  501    0  0.00000000000E+00  0.00000000000E+00  0.71383316277E+03  0.71383316277E+03  0.00000000000E+00 0. -1.
         -2   -1    0    0    0  501 -0.00000000000E+00 -0.00000000000E+00 -0.86734310083E+02  0.86734310083E+02  0.00000000000E+00 0.  1.
         23    2    1    2    0    0 -0.15774939054E+03 -0.14686974152E+03  0.40101848513E+03  0.46409110716E+03  0.90050758695E+02 0.  0.
          5    1    1    2  502    0  0.11267159203E+03  0.14699441729E+03  0.22464967171E+03  0.29118240635E+03  0.41800000000E+01 0. -1.
         -5    1    1    2    0  502  0.45077798507E+02 -0.12467576584E+00  0.14306958427E+01  0.45293959342E+02  0.41800000000E+01 0. -1.
        -11    1    3    3    0    0 -0.30450836213E+02 -0.28589014927E+02  0.22159264262E+02  0.47282324321E+02  0.00000000000E+00 0.  1.
         11    1    3    3    0    0 -0.12729855433E+03 -0.11828072659E+03  0.37885922087E+03  0.41680878284E+03  0.00000000000E+00 0. -1.
</event>
<event>
 7    1  0.4687179E-006  0.1731621E+03  0.7561462E-02  0.1174590E+00
         -1   -1    0    0    0  501 -0.00000000000E+00  0.00000000000E+00  0.92713778120E+02  0.92713778120E+02  0.00000000000E+00 0.  1.
          1   -1    0    0  501    0  0.00000000000E+00 -0.00000000000E+00 -0.41919577397E+03  0.41919577397E+03  0.00000000000E+00 0. -1.
         23    2    1    2    0    0 -0.15259810446E+03  0.10560718963E+02 -0.23519544197E+03  0.29424653225E+03  0.88692815659E+02 0.  0.
          5    1    1    2  502    0  0.56050606945E+02  0.35016548890E+02  0.13970186157E+02  0.67679152893E+02  0.41800000000E+01 0.  1.
         -5    1    1    2    0  502  0.96547497513E+02 -0.45577267853E+02 -0.10525674004E+03  0.14998386695E+03  0.41800000000E+01 0.  1.
        -11    1    3    3    0    0 -0.10989592694E+03 -0.30464094411E+02 -0.12539760648E+03  0.16949848235E+03  0.00000000000E+00 0.  1.
         11    1    3    3    0    0 -0.42702177515E+02  0.41024813375E+02 -0.10979783548E+03  0.12474804990E+03  0.00000000000E+00 0. -1.
</event>
<event>
 7    1  0.4687179E-006  0.9497770E+02  0.7561462E-02  0.1291226E+00
         -3   -1    0    0    0  501 -0.00000000000E+00  0.00000000000E+00  0.41018278976E+02  0.41018278976E+02  0.00000000000E+00 0.  1.
          3   -1    0    0  501    0  0.00000000000E+00 -0.00000000000E+00 -0.31544227011E+03  0.31544227011E+03  0.00000000000E+00 0. -1.
         23    2    1    2    0    0  0.19054958408E+02 -0.27588946134E+02 -0.11668178272E+03  0.15236961754E+03  0.92073994933E+02 0.  0.
          5    1    1    2  502    0 -0.50776193698E+02 -0.16333672168E+01 -0.12446953049E+02  0.52471790279E+02  0.41800000000E+01 0. -1.
         -5    1    1    2    0  502  0.31721235289E+02  0.29222313350E+02 -0.14529525537E+03  0.15161914127E+03  0.41800000000E+01 0. -1.
        -11    1    3    3    0    0  0.37802836925E+02 -0.52361953390E+02 -0.62267560094E+02  0.89711078928E+02  0.00000000000E+00 0.  1.
         11    1    3    3    0    0 -0.18747878517E+02  0.24773007256E+02 -0.54414222628E+02  0.62658538617E+02  0.00000000000E+00 0. -1.
</event>
<event>
 7    1  0.4687179E-006  0.1027477E+03  0.7561462E-02  0.1274622E+00
         -2   -1    0    0    0  501 -0.00000000000E+00  0.00000000000E+00  0.67572255015E+02  0.67572255015E+02  0.00000000000E+00 0.  1.
          2   -1    0    0  501    0  0.00000000000E+00 -0.00000000000E+00 -0.21184757067E+03  0.21184757067E+03  0.00000000000E+00 0. -1.
         23    2    1    2    0    0  0.41984917479E+02  0.26736546870E+02 -0.57788752528E+02  0.11940028862E+03  0.91865732286E+02 0.  0.
          5    1    1    2  502    0 -0.32156710895E+02 -0.67922399316E+02 -0.14875487857E+02  0.76721958548E+02  0.41800000000E+01 0.  1.
         -5    1    1    2    0  502 -0.98282065842E+01  0.41185852447E+02 -0.71611075271E+02  0.83297578524E+02  0.41800000000E+01 0.  1.
        -11    1    3    3    0    0  0.61210453505E+02  0.96623745876E+01 -0.67758711349E+02  0.91822241666E+02  0.00000000000E+00 0. -1.
         11    1    3    3    0    0 -0.19225536026E+02  0.17074172282E+02  0.99699588212E+01  0.27578046949E+02  0.00000000000E+00 0.  1.
</event>
<event>
 7    1  0.4687179E-006  0.1883878E+03  0.7561462E-02  0.1159923E+00
          2   -1    0    0  501    0  0.00000000000E+00  0.00000000000E+00  0.20059997925E+03  0.20059997925E+03  0.00000000000E+00 0. -1.
         -2   -1    0    0    0  501 -0.00000000000E+00 -0.00000000000E+00 -0.20853046477E+03  0.20853046477E+03  0.00000000000E+00 0.  1.
         23    2    1    2    0    0 -0.63195413781E+02  0.14506789348E+03  0.65762500942E+02  0.19438235295E+03  0.91768396338E+02 0.  0.
          5    1    1    2  502    0  0.15052908696E+02 -0.15207300209E+03 -0.56552436152E+02  0.16299827747E+03  0.41800000000E+01 0. -1.
         -5    1    1    2    0  502  0.48142505084E+02  0.70051086075E+01 -0.17140550314E+02  0.51749813599E+02  0.41800000000E+01 0. -1.
        -11    1    3    3    0    0 -0.79469368022E+02  0.10391213944E+03  0.22965623695E+02  0.13281766844E+03  0.00000000000E+00 0.  1.
         11    1    3    3    0    0  0.16273954241E+02  0.41155754038E+02  0.42796877247E+02  0.61564684513E+02  0.00000000000E+00 0. -1.
</event>
<event>
 7    1  0.4687179E-006  0.1258357E+03  0.7561462E-02  0.1233769E+00
          1   -1    0    0  501    0  0.00000000000E+00  0.00000000000E+00  0.12189378369E+03  0.12189378369E+03  0.00000000000E+00 0. -1.
         -1   -1    0    0    0  501 -0.00000000000E+00 -0.00000000000E+00 -0.17425186991E+03  0.17425186991E+03  0.00000000000E+00 0.  1.
         23    2    1    2    0    0  0.44025472491E+02 -0.84909175453E+02 -0.70843794303E+01  0.13230139398E+03  0.91135394402E+02 0.  0.
          5    1    1    2  502    0 -0.47330938471E+00  0.76175084734E+02 -0.77543926339E+02  0.10878143439E+03  0.41800000000E+01 0. -1.
         -5    1    1    2    0  502 -0.43552163106E+02  0.87340907186E+01  0.32270219553E+02  0.55062825226E+02  0.41800000000E+01 0. -1.
        -11    1    3    3    0    0  0.69939284992E+02 -0.44950319774E+02  0.45905502349E+01  0.83265286791E+02  0.00000000000E+00 0. -1.
         11    1    3    3    0    0 -0.25913812501E+02 -0.39958855678E+02 -0.11674929665E+02  0.49036107188E+02  0.00000000000E+00 0.  1.
</event>
<event>
 7    1  0.6681375E-006  0.2016405E+03  0.7561462E-02  0.1148362E+00
         -2   -1    0    0    0  501 -0.00000000000E+00  0.00000000000E+00  0.12766553707E+03  0.12766553707E+03  0.00000000000E+00 0.  1.
          2   -1    0    0  501    0  0.00000000000E+00 -0.00000000000E+00 -0.34540480786E+03  0.34540480786E+03  0.00000000000E+00 0. -1.
         23    2    1    2    0    0  0.14032504558E+03 -0.11164151405E+03 -0.98715735407E+02  0.22413461165E+03  0.91304882928E+02 0.  0.
          5    1    1    2  502    0  0.14082282720E+02 -0.13351918977E+02 -0.12842362562E+02  0.23642823502E+02  0.41800000000E+01 0. -1.
         -5    1    1    2    0  502 -0.15440732830E+03  0.12499343303E+03 -0.10618117282E+03  0.22529290978E+03  0.41800000000E+01 0. -1.
        -11    1    3    3    0    0  0.10357246837E+03 -0.55168718449E+02 -0.17563057974E+02  0.11865624596E+03  0.00000000000E+00 0.  1.
         11    1    3    3    0    0  0.36752577213E+02 -0.56472795602E+02 -0.81152677433E+02  0.10547836569E+03  0.00000000000E+00 0. -1.
</event>
<event>
 7    1  0.4687179E-006  0.1962674E+03  0.7561462E-02  0.1152927E+00
          2   -1    0    0  501    0  0.00000000000E+00  0.00000000000E+00  0.24860356847E+03  0.24860356847E+03  0.00000000000E+00 0. -1.
         -2   -1    0    0    0  501 -0.00000000000E+00 -0.00000000000E+00 -0.36185576345E+03  0.36185576345E+03  0.00000000000E+00 0.  1.
         23    2    1    2    0    0  0.58255743120E+02 -0.14300115666E+03  0.43556041851E+02  0.18257448835E+03  0.87139271313E+02 0.  0.
          5    1    1    2  502    0 -0.27934680365E+02 -0.30847484678E+02  0.10448908247E+03  0.11254934222E+03  0.41800000000E+01 0. -1.
         -5    1    1    2    0  502 -0.30321062755E+02  0.17384864133E+03 -0.26129731929E+03  0.31533550135E+03  0.41800000000E+01 0.  1.
        -11    1    3    3    0    0  0.42903059300E+02 -0.15275143739E+02 -0.33024537491E+01  0.45660800631E+02  0.00000000000E+00 0.  1.
         11    1    3    3    0    0  0.15352683820E+02 -0.12772601292E+03  0.46858495600E+02  0.13691368772E+03  0.00000000000E+00 0. -1.
</event>
<event>
 7    1  0.4687179E-006  0.7323210E+02  0.7561462E-02  0.1349435E+00
          1   -1    0    0  501    0  0.00000000000E+00  0.00000000000E+00  0.69409597727E+03  0.69409597727E+03  0.00000000000E+00 0. -1.
         -1   -1    0    0    0  501 -0.00000000000E+00 -0.00000000000E+00 -0.22150615013E+02  0.22150615013E+02  0.00000000000E+00 0.  1.
         23    2    1    2    0    0 -0.18918456267E+02  0.14243086646E+02  0.45483615833E+03  0.46456405302E+03  0.91559024288E+02 0.  0.
          5    1    1    2  502    0  0.23239068834E+02 -0.28561705497E+02  0.31841644375E+01  0.37194578158E+02  0.41800000000E+01 0.  1.
         -5    1    1    2    0  502 -0.43206125673E+01  0.14318618851E+02  0.21392503949E+03  0.21448796111E+03  0.41800000000E+01 0.  1.
        -11    1    3    3    0    0 -0.48592875106E+02  0.33029462957E+02  0.31105254159E+03  0.31655314966E+03  0.00000000000E+00 0.  1.
         11    1    3    3    0    0  0.29674418840E+02 -0.18786376311E+02  0.14378361674E+03  0.14801090335E+03  0.00000000000E+00 0. -1.
</event>
<event>
 7    1  0.4687179E-006  0.1921963E+03  0.7561462E-02  0.1156495E+00
         -1   -1    0    0    0  501 -0.00000000000E+00  0.00000000000E+00  0.34748106675E+02  0.34748106675E+02  0.00000000000E+00 0.  1.
          1   -1    0    0  501    0  0.00000000000E+00 -0.00000000000E+00 -0.12066762788E+04  0.12066762788E+04  0.00000000000E+00 0. -1.
         23    2    1    2    0    0 -0.56497365020E+02  0.22749966574E+02 -0.35386108728E+03  0.36857127911E+03  0.83172143555E+02 0.  0.
          5    1    1    2  502    0  0.16978717315E+03 -0.28612077880E+02 -0.33564563821E+03  0.37725561893E+03  0.41800000000E+01 0. -1.
         -5    1    1    2    0  502 -0.11328980813E+03  0.58621113057E+01 -0.48242144663E+03  0.49559748743E+03  0.41800000000E+01 0.  1.
        -11    1    3    3    0    0 -0.56568514037E+01 -0.26954578014E+02 -0.15391437640E+03  0.15635915230E+03  0.00000000000E+00 0. -1.
         11    1    3    3    0    0 -0.50840513617E+02  0.49704544588E+02 -0.19994671087E+03  0.21221212681E+03  0.00000000000E+00 0.  1.
</event>
<event>
 7    1  0.4687179E-006  0.1413501E+03  0.7561462E-02  0.1211524E+00
          2   -1    0    0  501    0  0.00000000000E+00  0.00000000000E+00  0.30376855611E+03  0.30376855611E+03  0.00000000000E+00 0. -1.
         -2   -1    0    0    0  501 -0.00000000000E+00 -0.00000000000E+00 -0.83811078634E+02  0.83811078634E+02  0.00000000000E+00 0.  1.
         23    2    1    2    0    0  0.62830416099E+02  0.94928347264E+02  0.10187300494E+03  0.18130304844E+03  0.97640329455E+02 0.  0.
          5    1    1    2  502    0 -0.22461491725E+02 -0.88793460526E+02  0.11924531665E+02  0.92457904465E+02  0.41800000000E+01 0.  1.
         -5    1    1    2    0  502 -0.40368924374E+02 -0.61348867383E+01  0.10615994088E+03  0.11381868185E+03  0.41800000000E+01 0.  1.
        -11    1    3    3    0    0 -0.10185541039E+02  0.73034000641E+02  0.49223192721E+02  0.88660212032E+02  0.00000000000E+00 0.  1.
         11    1    3    3    0    0  0.73015957137E+02  0.21894346623E+02  0.52649812218E+02  0.92642836406E+02  0.00000000000E+00 0. -1.
</event>
<event>
 7    1  0.4687179E-006  0.1893815E+03  0.7561462E-02  0.1159020E+00
          3   -1    0    0  501    0  0.00000000000E+00  0.00000000000E+00  0.18546763018E+03  0.18546763018E+03  0.00000000000E+00 0. -1.
         -3   -1    0    0    0  501 -0.00000000000E+00 -0.00000000000E+00 -0.30859135805E+03  0.30859135805E+03  0.00000000000E+00 0.  1.
         23    2    1    2    0    0  0.15815007528E+03  0.74696245899E+02  0.66146233179E+02  0.20759249666E+03  0.90157334937E+02 0.  0.
          5    1    1    2  502    0 -0.15776192427E+03 -0.88495230952E+02 -0.12333676068E+03  0.21897410712E+03  0.41800000000E+01 0.  1.
         -5    1    1    2    0  502 -0.38815100892E+00  0.13798985053E+02 -0.65933200368E+02  0.67492384462E+02  0.41800000000E+01 0.  1.
        -11    1    3    3    0    0  0.15523009852E+02  0.30269502210E+02 -0.15464164580E+02  0.37367726517E+02  0.00000000000E+00 0. -1.
         11    1    3    3    0    0  0.14262706543E+03  0.44426743689E+02  0.81610397759E+02  0.17022477014E+03  0.00000000000E+00 0.  1.
</event>
<event>
 7    1  0.4687179E-006  0.1068787E+03  0.7561462E-02  0.1266462E+00
         -2   -1    0    0    0  501 -0.00000000000E+00  0.00000000000E+00  0.24747101453E+02  0.24747101453E+02  0.00000000000E+00 0.  1.
          2   -1    0    0  501    0  0.00000000000E+00 -0.00000000000E+00 -0.53596780851E+03  0.53596780851E+03  0.00000000000E+00 0. -1.
         23    2    1    2    0    0  0.11643351031E+02 -0.39944719758E+02 -0.23964901026E+03  0.25883716522E+03  0.88509218283E+02 0.  0.
          5    1    1    2  502    0 -0.56313054642E+02 -0.58130613055E+01 -0.68662396647E+02  0.89089555607E+02  0.41800000000E+01 0.  1.
         -5    1    1    2    0  502  0.44669703611E+02  0.45757781063E+02 -0.20290930016E+03  0.21278818914E+03  0.41800000000E+01 0.  1.
        -11    1    3    3    0    0 -0.49666328363E+01 -0.63715666400E+02 -0.12269622460E+03  0.13834275231E+03  0.00000000000E+00 0.  1.
         11    1    3    3    0    0  0.16609983868E+02  0.23770946642E+02 -0.11695278565E+03  0.12049441290E+03  0.00000000000E+00 0. -1.
</event>
<event>
 7    1  0.4687179E-006  0.8750847E+02  0.7561462E-02  0.1309000E+00
          2   -1    0    0  501    0  0.00000000000E+00  0.00000000000E+00  0.15333493659E+03  0.15333493659E+03  0.00000000000E+00 0. -1.
         -2   -1    0    0    0  501 -0.00000000000E+00 -0.00000000000E+00 -0.88393831938E+02  0.88393831938E+02  0.00000000000E+00 0.  1.
         23    2    1    2    0    0 -0.33435538906E+02  0.23072454830E+02  0.14683158867E+02  0.10090036403E+03  0.91186703385E+02 0.  0.
          5    1    1    2  502    0 -0.15072884257E+02 -0.21976325337E+02  0.79548917585E+02  0.83997936904E+02  0.41800000000E+01 0.  1.
         -5    1    1    2    0  502  0.48508423163E+02 -0.10961294931E+01 -0.29290971799E+02  0.56830467590E+02  0.41800000000E+01 0.  1.
        -11    1    3    3    0    0 -0.35062403297E+02 -0.30060259448E+02  0.18795949723E+01  0.46222550777E+02  0.00000000000E+00 0.  1.
         11    1    3    3    0    0  0.16268643911E+01  0.53132714278E+02  0.12803563894E+02  0.54677813258E+02  0.00000000000E+00 0. -1.
</event>
<event>
 7    1  0.4687179E-006  0.8726371E+02  0.7561462E-02  0.1309617E+00
         -1   -1    0    0    0  501 -0.00000000000E+00  0.00000000000E+00  0.91924234106E+02  0.91924234106E+02  0.00000000000E+00 0.  1.
          1   -1    0    0  501    0  0.00000000000E+00 -0.00000000000E+00 -0.15422065638E+03  0.15422065638E+03  0.00000000000E+00 0. -1.
         23    2    1    2    0    0 -0.28666612944E+01 -0.46507837838E+02 -0.44631236207E+02  0.11149379254E+03  0.90927013602E+02 0.  0.
          5    1    1    2  502    0 -0.23005060927E+02  0.67826326279E+02 -0.50347170167E+02  0.87646752984E+02  0.41800000000E+01 0. -1.
         -5    1    1    2    0  502  0.25871722222E+02 -0.21318488441E+02  0.32681984102E+02  0.47004344959E+02  0.41800000000E+01 0. -1.
        -11    1    3    3    0    0 -0.12476272955E+02 -0.54865009544E+02  0.84585216873E+01  0.56897919543E+02  0.00000000000E+00 0.  1.
         11    1    3    3    0    0  0.96096116604E+01  0.83571717065E+01 -0.53089757895E+02  0.54595872999E+02  0.00000000000E+00 0. -1.
</event>
<event>
 7    1  0.4687179E-006  0.1031052E+03  0.7561462E-02  0.1273898E+00
         -1   -1    0    0    0  501 -0.00000000000E+00  0.00000000000E+00  0.93724304024E+02  0.93724304024E+02  0.00000000000E+00 0.  1.
          1   -1    0    0  501    0  0.00000000000E+00 -0.00000000000E+00 -0.22379885528E+03  0.22379885528E+03  0.00000000000E+00 0. -1.
         23    2    1    2    0    0  0.54237466033E+02 -0.48136489869E+02 -0.12566503138E+03  0.17286482098E+03  0.93977241090E+02 0.  0.
          5    1    1    2  502    0 -0.12329602323E+02 -0.13788224287E+02 -0.52390485794E+02  0.55716870193E+02  0.41800000000E+01 0.  1.
         -5    1    1    2    0  502 -0.41907863709E+02  0.61924714156E+02  0.47980965911E+02  0.88941468134E+02  0.41800000000E+01 0.  1.
        -11    1    3    3    0    0  0.48112509106E+02  0.13852440259E+02 -0.28974533342E+02  0.57846583443E+02  0.00000000000E+00 0.  1.
         11    1    3    3    0    0  0.61249569264E+01 -0.61988930128E+02 -0.96690498035E+02  0.11501823754E+03  0.00000000000E+00 0. -1.
</event>
<event>
 7    1  0.4687179E-006  0.1361314E+03  0.7561462E-02  0.1218631E+00
          2   -1    0    0  501    0  0.00000000000E+00  0.00000000000E+00  0.57147033325E+03  0.57147033325E+03  0.00000000000E+00 0. -1.
         -2   -1    0    0    0  501 -0.00000000000E+00 -0.00000000000E+00 -0.40413350485E+02  0.40413350485E+02  0.00000000000E+00 0.  1.
         23    2    1    2    0    0  0.52312695155E+02  0.80466943641E+02  0.33791925883E+03  0.36256200073E+03  0.89723083923E+02 0.  0.
          5    1    1    2  502    0 -0.17893195980E+02 -0.10739877009E+03  0.16302083168E+03  0.19608142758E+03  0.41800000000E+01 0. -1.
         -5    1    1    2    0  502 -0.34419499175E+02  0.26931826448E+02  0.30116892250E+02  0.53240255428E+02  0.41800000000E+01 0. -1.
        -11    1    3    3    0    0 -0.13344760480E+02 -0.25202133701E+01  0.72943420946E+01  0.15415626302E+02  0.00000000000E+00 0.  1.
         11    1    3    3    0    0  0.65657455634E+02  0.82987157011E+02  0.33062491674E+03  0.34714637443E+03  0.00000000000E+00 0. -1.
</event>
<event>
 7    1  0.4687179E-006  0.1687535E+03  0.7561462E-02  0.1179154E+00
          2   -1    0    0  501    0  0.00000000000E+00  0.00000000000E+00  0.77933029401E+02  0.77933029401E+02  0.00000000000E+00 0. -1.
         -2   -1    0    0    0  501 -0.00000000000E+00 -0.00000000000E+00 -0.55073527942E+03  0.55073527942E+03  0.00000000000E+00 0.  1.
         23    2    1    2    0    0 -0.53879584626E+01 -0.10032089396E+03 -0.73281776027E+02  0.15210699811E+03  0.87595709459E+02 0.  0.
          5    1    1    2  502    0  0.45391805839E+02  0.14376512746E+03 -0.12546280003E+03  0.19618158553E+03  0.41800000000E+01 0. -1.
         -5    1    1    2    0  502 -0.40003847377E+02 -0.43444233503E+02 -0.27405767396E+03  0.28037972517E+03  0.41800000000E+01 0.  1.
        -11    1    3    3    0    0  0.18721266662E+02  0.50495194241E+01  0.32536124191E+01  0.19661369881E+02  0.00000000000E+00 0.  1.
         11    1    3    3    0    0 -0.24109225124E+02 -0.10537041339E+03 -0.76535388446E+02  0.13244562823E+03  0.00000000000E+00 0. -1.
</event>
<event>
 7    1  0.4687179E-006  0.1886306E+03  0.7561462E-02  0.1159702E+00
          2   -1    0    0  501    0  0.00000000000E+00  0.00000000000E+00  0.33560994125E+03  0.33560994125E+03  0.00000000000E+00 0. -1.
         -2   -1    0    0    0  501 -0.00000000000E+00 -0.00000000000E+00 -0.35137363508E+03  0.35137363508E+03  0.00000000000E+00 0.  1.
         23    2    1    2    0    0 -0.14919205230E+03  0.77064460961E+02  0.27135319203E+03  0.33162265192E+03  0.90243164997E+02 0.  0.
          5    1    1    2  502    0  0.16046884155E+03 -0.33971622662E+02 -0.21434511371E+03  0.26993632662E+03  0.41800000000E+01 0. -1.
         -5    1    1    2    0  502 -0.11276789256E+02 -0.43092838299E+02 -0.72771772141E+02  0.85424597800E+02  0.41800000000E+01 0. -1.
        -11    1    3    3    0    0 -0.19304330121E+02  0.15224429355E+02  0.12123697647E+03  0.12370466795E+03  0.00000000000E+00 0. -1.
         11    1    3    3    0    0 -0.12988772218E+03  0.61840031606E+02  0.15011621556E+03  0.20791798396E+03  0.00000000000E+00 0.  1.
</event>
<event>
 7    1  0.4687179E-006  0.9878847E+02  0.7561462E-02  0.1282864E+00
          1   -1    0    0  501    0  0.00000000000E+00  0.00000000000E+00  0.14524330071E+03  0.14524330071E+03  0.00000000000E+00 0. -1.
         -1   -1    0    0    0  501 -0.00000000000E+00 -0.00000000000E+00 -0.13531315599E+03  0.13531315599E+03  0.00000000000E+00 0.  1.
         23    2    1    2    0    0  0.37936902020E+02 -0.29960902351E+01  0.85569818764E+02  0.12950055080E+03  0.89442795581E+02 0.  0.
          5    1    1    2  502    0  0.16627029905E+02  0.49438748407E+02 -0.89620552996E+01  0.53088970631E+02  0.41800000000E+01 0.  1.
         -5    1    1    2    0  502 -0.54563931925E+02 -0.46442658172E+02 -0.66677618749E+02  0.97966935275E+02  0.41800000000E+01 0.  1.
        -11    1    3    3    0    0  0.48156901352E+02  0.16958504371E+02  0.11803173145E+02  0.52402222420E+02  0.00000000000E+00 0.  1.
         11    1    3    3    0    0 -0.10219999332E+02 -0.19954594606E+02  0.73766645620E+02  0.77098328375E+02  0.00000000000E+00 0. -1.
</event>
<event>
 7    1  0.4687179E-006  0.1856815E+03  0.7561462E-02  0.1162415E+00
          1   -1    0    0  501    0  0.00000000000E+00  0.00000000000E+00  0.23215779122E+03  0.23215779122E+03  0.00000000000E+00 0. -1.
         -1   -1    0    0    0  501 -0.00000000000E+00 -0.00000000000E+00 -0.16909093407E+03  0.16909093407E+03  0.00000000000E+00 0.  1.
         23    2    1    2    0    0 -0.13499391902E+03  0.75369763422E+02  0.88482528786E+02  0.20075346707E+03  0.92568014086E+02 0.  0.
          5    1    1    2  502    0  0.12528125392E+03 -0.59353541486E+01  0.89317373022E+00  0.12549458622E+03  0.41800000000E+01 0.  1.
         -5    1    1    2    0  502  0.97126650999E+01 -0.69434409273E+02 -0.26308845365E+02  0.75000671990E+02  0.41800000000E+01 0.  1.
        -11    1    3    3    0    0 -0.76060097578E+02  0.87006402203E+02  0.78880520697E+02  0.13991922317E+03  0.00000000000E+00 0.  1.
         11    1    3    3    0    0 -0.58933821441E+02 -0.11636638781E+02  0.96020080889E+01  0.60834243902E+02  0.00000000000E+00 0. -1.
</event>
<event>
 7    1  0.4687179E-006  0.9974823E+02  0.7561462E-02  0.1280826E+00
          1   -1    0    0  501    0  0.00000000000E+00  0.00000000000E+00  0.29972427618E+03  0.29972427618E+03  0.00000000000E+00 0. -1.
         -1   -1    0    0    0  501 -0.00000000000E+00 -0.00000000000E+00 -0.69010085745E+02  0.69010085745E+02  0.00000000000E+00 0.  1.
         23    2    1    2    0    0  0.49096078004E+02 -0.19534779888E+02  0.20353599765E+03  0.23024935561E+03  0.93786091291E+02 0.  0.
          5    1    1    2  502    0  0.37034668500E+01 -0.24698931254E+02  0.57713572999E+02  0.63024453827E+02  0.41800000000E+01 0.  1.
         -5    1    1    2    0  502 -0.52799544854E+02  0.44233711142E+02 -0.30535380207E+02  0.75460552493E+02  0.41800000000E+01 0.  1.
        -11    1    3    3    0    0  0.48179584572E+02  0.29257120809E+02  0.84251429109E+02  0.10136841123E+03  0.00000000000E+00 0.  1.
         11    1    3    3    0    0  0.91649343176E+00 -0.48791900697E+02  0.11928456854E+03  0.12888094438E+03  0.00000000000E+00 0. -1.
</event>
<event>
 7    1  0.4687179E-006  0.7668378E+02  0.7561462E-02  0.1338735E+00
          2   -1    0    0  501    0  0.00000000000E+00  0.00000000000E+00  0.24651972334E+02  0.24651972334E+02  0.00000000000E+00 0.  1.
         -2   -1    0    0    0  501 -0.00000000000E+00 -0.00000000000E+00 -0.44498291937E+03  0.44498291937E+03  0.00000000000E+00 0. -1.
         23    2    1    2    0    0 -0.19847897578E+01 -0.18397258232E+02 -0.14764980544E+03  0.16906062510E+03  0.80241083065E+02 0.  0.
          5    1    1    2  502    0  0.15591790778E+02  0.43929948275E+02 -0.26664989861E+03  0.27072603334E+03  0.41800000000E+01 0. -1.
         -5    1    1    2    0  502 -0.13607001021E+02 -0.25532690043E+02 -0.60312429871E+01  0.29848233274E+02  0.41800000000E+01 0. -1.
        -11    1    3    3    0    0  0.34496655564E+02  0.36787150550E+01 -0.38223007129E+02  0.51619283834E+02  0.00000000000E+00 0.  1.
         11    1    3    3    0    0 -0.36481445322E+02 -0.22075973287E+02 -0.10942679831E+03  0.11744134126E+03  0.00000000000E+00 0. -1.
</event>
<event>
 7    1  0.4687179E-006  0.1569419E+03  0.7561462E-02  0.1192193E+00
          2   -1    0    0  501    0  0.00000000000E+00  0.00000000000E+00  0.15137956229E+03  0.15137956229E+03  0.00000000000E+00 0. -1.
         -2   -1    0    0    0  501 -0.00000000000E+00 -0.00000000000E+00 -0.18134784403E+03  0.18134784403E+03  0.00000000000E+00 0.  1.
         23    2    1    2    0    0  0.99588313607E+02  0.67932574685E+02 -0.49402235593E+02  0.15792793860E+03  0.89263575987E+02 0.  0.
          5    1    1    2  502    0  0.22576755523E+02  0.13295827679E+02 -0.13708344926E+01  0.26567659114E+02  0.41800000000E+01 0. -1.
         -5    1    1    2    0  502 -0.12216506913E+03 -0.81228402364E+02  0.20804788350E+02  0.14823180861E+03  0.41800000000E+01 0. -1.
        -11    1    3    3    0    0 -0.11660343268E+02  0.87302162833E+01 -0.25928213043E+02  0.29739746352E+02  0.00000000000E+00 0.  1.
         11    1    3    3    0    0  0.11124865687E+03  0.59202358402E+02 -0.23474022550E+02  0.12818819225E+03  0.00000000000E+00 0. -1.
</event>
<event>
 7    1  0.4687179E-006  0.1162383E+03  0.7561462E-02  0.1249435E+00
          1   -1    0    0  501    0  0.00000000000E+00  0.00000000000E+00  0.40964954858E+03  0.40964954858E+03  0.00000000000E+00 0. -1.
         -1   -1    0    0    0  501 -0.00000000000E+00 -0.00000000000E+00 -0.52170927992E+02  0.52170927992E+02  0.00000000000E+00 0.  1.
         23    2    1    2    0    0 -0.51606621347E+02  0.50654649708E+02  0.26592171160E+03  0.29076583362E+03  0.92743066574E+02 0.  0.
          5    1    1    2  502    0 -0.32324272783E+02 -0.31447824365E+01 -0.65762868892E+01  0.33398625971E+02  0.41800000000E+01 0.  1.
         -5    1    1    2    0  502  0.83930894129E+02 -0.47509867271E+02  0.98133195872E+02  0.13765601698E+03  0.41800000000E+01 0.  1.
        -11    1    3    3    0    0 -0.60582869371E+02  0.98036522212E+01  0.22110416721E+03  0.22946339232E+03  0.00000000000E+00 0. -1.
         11    1    3    3    0    0  0.89762480240E+01  0.40850997487E+02  0.44817544392E+02  0.61302441302E+02  0.00000000000E+00 0.  1.
</event>
<event>
 7    1  0.4687179E-006  0.1209191E+03  0.7561462E-02  0.1241588E+00
          2   -1    0    0  501    0  0.00000000000E+00  0.00000000000E+00  0.67743928025E+02  0.67743928025E+02  0.00000000000E+00 0. -1.
         -2   -1    0    0    0  501 -0.00000000000E+00 -0.00000000000E+00 -0.28254761166E+03  0.28254761166E+03  0.00000000000E+00 0.  1.
         23    2    1    2    0    0  0.70214010719E+02  0.35910375720E+02 -0.53092173634E+02  0.13116080105E+03  0.90359362802E+02 0.  0.
          5    1    1    2  502    0 -0.94145016955E+02 -0.10104629672E+02 -0.61868187211E+02  0.11318362402E+03  0.41800000000E+01 0.  1.
         -5    1    1    2    0  502  0.23931006236E+02 -0.25805746047E+02 -0.99843322793E+02  0.10594711461E+03  0.41800000000E+01 0.  1.
        -11    1    3    3    0    0 -0.10105334848E+02 -0.13842289825E+02  0.77246294075E+01  0.18798847824E+02  0.00000000000E+00 0. -1.
         11    1    3    3    0    0  0.80319345567E+02  0.49752665545E+02 -0.60816803042E+02  0.11236195323E+03  0.00000000000E+00 0.  1.
</event>
<event>
 7    1  0.4687179E-006  0.9725283E+02  0.7561462E-02  0.1286181E+00
          1   -1    0    0  501    0  0.00000000000E+00  0.00000000000E+00  0.40859600205E+02  0.40859600205E+02  0.00000000000E+00 0. -1.
         -1   -1    0    0    0  501 -0.00000000000E+00 -0.00000000000E+00 -0.29649895770E+03  0.29649895770E+03  0.00000000000E+00 0.  1.
         23    2    1    2    0    0 -0.82293950420E+01  0.31830980024E+01 -0.58363808127E+02  0.10359963388E+03  0.85139268170E+02 0.  0.
          5    1    1    2  502    0 -0.11742971892E+02  0.50311128832E+02 -0.15252396148E+03  0.16109046620E+03  0.41800000000E+01 0. -1.
         -5    1    1    2    0  502  0.19972366934E+02 -0.53494226834E+02 -0.44751587888E+02  0.72668457835E+02  0.41800000000E+01 0. -1.
        -11    1    3    3    0    0  0.12754724529E+02 -0.37518411014E+02 -0.30392543883E+02  0.49940173072E+02  0.00000000000E+00 0.  1.
         11    1    3    3    0    0 -0.20984119571E+02  0.40701509016E+02 -0.27971264245E+02  0.53659460804E+02  0.00000000000E+00 0. -1.
</event>
<event>
 7    1  0.4687179E-006  0.1212229E+03  0.7561462E-02  0.1241093E+00
          2   -1    0    0  501    0  0.00000000000E+00  0.00000000000E+00  0.56236381622E+03  0.56236381622E+03  0.00000000000E+00 0.  1.
         -2   -1    0    0    0  501 -0.00000000000E+00 -0.00000000000E+00 -0.30555952934E+02  0.30555952934E+02  0.00000000000E+00 0. -1.
         23    2    1    2    0    0 -0.18580854140E+02  0.64485303475E+02  0.30086010826E+03  0.32183300399E+03  0.92499055205E+02 0.  0.
          5    1    1    2  502    0  0.53803582540E+02  0.31580667800E+01  0.15160719526E+03  0.16095655605E+03  0.41800000000E+01 0. -1.
         -5    1    1    2    0  502 -0.35222728400E+02 -0.67643370255E+02  0.79340559770E+02  0.11013020912E+03  0.41800000000E+01 0. -1.
        -11    1    3    3    0    0 -0.48278192840E+02  0.66575593438E+02  0.24647494532E+03  0.25983262347E+03  0.00000000000E+00 0.  1.
         11    1    3    3    0    0  0.29697338700E+02 -0.20902899629E+01  0.54385162931E+02  0.62000380524E+02  0.00000000000E+00 0. -1.
</event>
<event>
 7    1  0.4687179E-006  0.2693623E+03  0.7561462E-02  0.1101645E+00
         -2   -1    0    0    0  501 -0.00000000000E+00  0.00000000000E+00  0.11789033675E+03  0.11789033675E+03  0.00000000000E+00 0.  1.
          2   -1    0    0  501    0  0.00000000000E+00 -0.00000000000E+00 -0.75702519958E+03  0.75702519958E+03  0.00000000000E+00 0. -1.
         23    2    1    2    0    0  0.21478583415E+03 -0.13270917783E+03 -0.48782061829E+03  0.55732403316E+03  0.94320951410E+02 0.  0.
          5    1    1    2  502    0 -0.11356479679E+03  0.12648816738E+03 -0.12959492008E+03  0.21379554548E+03  0.41800000000E+01 0. -1.
         -5    1    1    2    0  502 -0.10122103737E+03  0.62210104466E+01 -0.21719324456E+02  0.10379595768E+03  0.41800000000E+01 0.  1.
        -11    1    3    3    0    0  0.87195753476E+01  0.12396803883E+02 -0.13943352748E+02  0.20594388231E+02  0.00000000000E+00 0.  1.
         11    1    3    3    0    0  0.20606625881E+03 -0.14510598171E+03 -0.47387726554E+03  0.53672964493E+03  0.00000000000E+00 0. -1.
</event>
<event>
 7    1  0.4687179E-006  0.2036848E+03  0.7561462E-02  0.1146667E+00
          1   -1    0    0  501    0  0.00000000000E+00  0.00000000000E+00  0.46648412236E+02  0.46648412236E+02  0.00000000000E+00 0. -1.
         -1   -1    0    0    0  501 -0.00000000000E+00 -0.00000000000E+00 -0.10852052510E+04  0.10852052510E+04  0.00000000000E+00 0.  1.
         23    2    1    2    0    0 -0.11340042971E+03  0.14577743677E+03 -0.32902583302E+03  0.38808344649E+03  0.90774688756E+02 0.  0.
          5    1    1    2  502    0  0.18906761681E+02  0.21875737320E+02 -0.68731659983E+02  0.74682842772E+02  0.41800000000E+01 0.  1.
         -5    1    1    2    0  502  0.94493668026E+02 -0.16765317409E+03 -0.64079934573E+03  0.66908737394E+03  0.41800000000E+01 0.  1.
        -11    1    3    3    0    0 -0.60272328998E+02  0.92627417973E+02 -0.10755481823E+03  0.15420969855E+03  0.00000000000E+00 0. -1.
         11    1    3    3    0    0 -0.53128100709E+02  0.53150018795E+02 -0.22147101480E+03  0.23387374794E+03  0.00000000000E+00 0.  1.
</event>
<event>
 7    1  0.4687179E-006  0.1629550E+03  0.7561462E-02  0.1185400E+00
         -2   -1    0    0    0  501 -0.00000000000E+00  0.00000000000E+00  0.14804666463E+03  0.14804666463E+03  0.00000000000E+00 0.  1.
          2   -1    0    0  501    0  0.00000000000E+00 -0.00000000000E+00 -0.24902997667E+03  0.24902997667E+03  0.00000000000E+00 0. -1.
         23    2    1    2    0    0 -0.71071604806E+02 -0.13376873853E+03 -0.92894114992E+02  0.20044994749E+03  0.92766461778E+02 0.  0.
          5    1    1    2  502    0  0.38420771835E+02  0.61104722710E+02 -0.66123225807E+02  0.97978039565E+02  0.41800000000E+01 0. -1.
         -5    1    1    2    0  502  0.32650832971E+02  0.72664015821E+02  0.58034028757E+02  0.98648654237E+02  0.41800000000E+01 0. -1.
        -11    1    3    3    0    0 -0.85486110381E+02 -0.76287770586E+02 -0.41036844990E+02  0.12170341678E+03  0.00000000000E+00 0.  1.
         11    1    3    3    0    0  0.14414505575E+02 -0.57480967945E+02 -0.51857270001E+02  0.78746530710E+02  0.00000000000E+00 0. -1.
</event>
<event>
 7    1  0.4687179E-006  0.9045901E+02  0.7561462E-02  0.1301744E+00
         -3   -1    0    0    0  501 -0.00000000000E+00  0.00000000000E+00  0.22694124399E+02  0.22694124399E+02  0.00000000000E+00 0.  1.
          3   -1    0    0  501    0  0.00000000000E+00 -0.00000000000E+00 -0.52506794885E+03  0.52506794885E+03  0.00000000000E+00 0. -1.
         23    2    1    2    0    0  0.61594035166E+01  0.19330366996E+02 -0.24502843278E+03  0.26090670468E+03  0.87302773914E+02 0.  0.
          5    1    1    2  502    0 -0.11411162118E+02 -0.58911392928E+02 -0.23131671423E+03  0.23900975193E+03  0.41800000000E+01 0.  1.
         -5    1    1    2    0  502  0.52517586012E+01  0.39581025933E+02 -0.26028677438E+02  0.47845616638E+02  0.41800000000E+01 0.  1.
        -11    1    3    3    0    0  0.34731104734E+02  0.33912982956E+02 -0.86725437531E+02  0.99386324834E+02  0.00000000000E+00 0.  1.
         11    1    3    3    0    0 -0.28571701217E+02 -0.14582615961E+02 -0.15830299525E+03  0.16152037984E+03  0.00000000000E+00 0. -1.
</event>
<event>
 7    1  0.4687179E-006  0.1011903E+03  0.7561462E-02  0.1277813E+00
          2   -1    0    0  501    0  0.00000000000E+00  0.00000000000E+00  0.47837151149E+03  0.47837151149E+03  0.00000000000E+00 0. -1.
         -2   -1    0    0    0  501 -0.00000000000E+00 -0.00000000000E+00 -0.39456832380E+02  0.39456832380E+02  0.00000000000E+00 0.  1.
         23    2    1    2    0    0 -0.28009431507E+01 -0.84349734761E+02  0.19592755985E+03  0.23178632287E+03  0.90634252480E+02 0.  0.
          5    1    1    2  502    0  0.19070815101E+02  0.76458546937E+02  0.25295308476E+03  0.26497611379E+03  0.41800000000E+01 0.  1.
         -5    1    1    2    0  502 -0.16269871950E+02  0.78911878236E+01 -0.99659654990E+01  0.21065907217E+02  0.41800000000E+01 0.  1.
        -11    1    3    3    0    0 -0.20621210072E+02 -0.20732232187E+01  0.25529908917E+01  0.20881817973E+02  0.00000000000E+00 0.  1.
         11    1    3    3    0    0  0.17820266922E+02 -0.82276511542E+02  0.19337456896E+03  0.21090450489E+03  0.00000000000E+00 0. -1.
</event>
<event>
 7    1  0.4687179E-006  0.1152591E+03  0.7561462E-02  0.1251129E+00
          2   -1    0    0  501    0  0.00000000000E+00  0.00000000000E+00  0.11608980969E+02  0.11608980969E+02  0.00000000000E+00 0.  1.
         -2   -1    0    0    0  501 -0.00000000000E+00 -0.00000000000E+00 -0.18031027863E+04  0.18031027863E+04  0.00000000000E+00 0. -1.
         23    2    1    2    0    0  0.46122554404E+02 -0.27847162943E+02 -0.30738200594E+03  0.32436490806E+03  0.88465481969E+02 0.  0.
          5    1    1    2  502    0 -0.65325036980E+02  0.60313770505E+02 -0.12513330899E+04  0.12544947531E+04  0.41800000000E+01 0. -1.
         -5    1    1    2    0  502  0.19202482576E+02 -0.32466607562E+02 -0.23277870955E+03  0.23585210612E+03  0.41800000000E+01 0. -1.
        -11    1    3    3    0    0  0.68900105900E+02 -0.17545688195E+01 -0.20139165596E+03  0.21285887860E+03  0.00000000000E+00 0.  1.
         11    1    3    3    0    0 -0.22777551496E+02 -0.26092594124E+02 -0.10599034997E+03  0.11150602947E+03  0.00000000000E+00 0. -1.
</event>
<event>
 7    1  0.4687179E-006  0.4469328E+03  0.7561462E-02  0.1028641E+00
         -1   -1    0    0    0  501 -0.00000000000E+00  0.00000000000E+00  0.24320111733E+03  0.24320111733E+03  0.00000000000E+00 0.  1.
          1   -1    0    0  501    0  0.00000000000E+00 -0.00000000000E+00 -0.84336108759E+03  0.84336108759E+03  0.00000000000E+00 0. -1.
         23    2    1    2    0    0  0.38466460691E+03 -0.20985853250E+03 -0.25136265304E+03  0.51270350013E+03  0.87602695333E+02 0.  0.
          5    1    1    2  502    0 -0.27593426051E+03  0.19447156428E+03 -0.30689895300E+03  0.45624921391E+03  0.41800000000E+01 0. -1.
         -5    1    1    2    0  502 -0.10873034640E+03  0.15386968219E+02 -0.41898364219E+02  0.11760949088E+03  0.41800000000E+01 0. -1.
        -11    1    3    3    0    0  0.13867500906E+03 -0.12339354964E+03 -0.11639638041E+03  0.21910007668E+03  0.00000000000E+00 0. -1.
         11    1    3    3    0    0  0.24598959785E+03 -0.86464982861E+02 -0.13496627263E+03  0.29360342345E+03  0.00000000000E+00 0.  1.
</event>
<event>
 7    1  0.4687179E-006  0.1549981E+03  0.7561462E-02  0.1194462E+00
          1   -1    0    0  501    0  0.00000000000E+00  0.00000000000E+00  0.10210605410E+03  0.10210605410E+03  0.00000000000E+00 0. -1.
         -1   -1    0    0    0  501 -0.00000000000E+00 -0.00000000000E+00 -0.40569342668E+03  0.40569342668E+03  0.00000000000E+00 0.  1.
         23    2    1    2    0    0 -0.70337000608E+02 -0.12352032939E+03 -0.27709199067E+02  0.17317801679E+03  0.94964521579E+02 0.  0.
          5    1    1    2  502    0  0.62415822198E+02  0.47105760884E+02 -0.42944928904E+02  0.89310844177E+02  0.41800000000E+01 0. -1.
         -5    1    1    2    0  502  0.79211784104E+01  0.76414568510E+02 -0.23293324461E+03  0.24531061981E+03  0.41800000000E+01 0. -1.
        -11    1    3    3    0    0 -0.18105682883E+02 -0.91958154596E+02  0.19856245897E+02  0.95803906238E+02  0.00000000000E+00 0. -1.
         11    1    3    3    0    0 -0.52231317725E+02 -0.31562174798E+02 -0.47565444964E+02  0.77374110553E+02  0.00000000000E+00 0.  1.
</event>
<event>
 7    1  0.4687179E-006  0.3762528E+03  0.7561462E-02  0.1052327E+00
          1   -1    0    0  501    0  0.00000000000E+00  0.00000000000E+00  0.91494179818E+03  0.91494179818E+03  0.00000000000E+00 0. -1.
         -1   -1    0    0    0  501 -0.00000000000E+00 -0.00000000000E+00 -0.17707223953E+03  0.17707223953E+03  0.00000000000E+00 0.  1.
         23    2    1    2    0    0 -0.16199299601E+03  0.32358773480E+03  0.54966593269E+03  0.66537789508E+03  0.98205665983E+02 0.  0.
          5    1    1    2  502    0 -0.22517321250E+01  0.99274021266E+01  0.69894222000E+01  0.13036411824E+02  0.41800000000E+01 0.  1.
         -5    1    1    2    0  502  0.16424472813E+03 -0.33351513693E+03  0.18121420376E+03  0.41359973081E+03  0.41800000000E+01 0.  1.
        -11    1    3    3    0    0 -0.55602912081E+02  0.45094431054E+02  0.15530959765E+03  0.17101538722E+03  0.00000000000E+00 0. -1.
         11    1    3    3    0    0 -0.10639008393E+03  0.27849330375E+03  0.39435633504E+03  0.49436250786E+03  0.00000000000E+00 0.  1.
</event>
<event>
 7    1  0.4687179E-006  0.1281355E+03  0.7561462E-02  0.1230249E+00
         -2   -1    0    0    0  501 -0.00000000000E+00  0.00000000000E+00  0.27157072260E+02  0.27157072260E+02  0.00000000000E+00 0.  1.
          2   -1    0    0  501    0  0.00000000000E+00 -0.00000000000E+00 -0.83060072223E+03  0.83060072223E+03  0.00000000000E+00 0. -1.
         23    2    1    2    0    0  0.69740603007E+02  0.74778714846E+02 -0.35924187335E+03  0.38508578004E+03  0.93705530887E+02 0.  0.
          5    1    1    2  502    0  0.70888099749E+01  0.11412739243E+02 -0.39875294603E+00  0.14075981238E+02  0.41800000000E+01 0.  1.
         -5    1    1    2    0  502 -0.76829412982E+02 -0.86191454089E+02 -0.44380302367E+03  0.45859603321E+03  0.41800000000E+01 0.  1.
        -11    1    3    3    0    0  0.73892000294E+02  0.26949699005E+02 -0.13935709933E+03  0.16002098337E+03  0.00000000000E+00 0.  1.
         11    1    3    3    0    0 -0.41513972874E+01  0.47829015840E+02 -0.21988477402E+03  0.22506479667E+03  0.00000000000E+00 0. -1.
</event>
<event>
 7    1  0.4687179E-006  0.1176103E+03  0.7561462E-02  0.1247092E+00
         -2   -1    0    0    0  501 -0.00000000000E+00  0.00000000000E+00  0.33425470784E+02  0.33425470784E+02  0.00000000000E+00 0.  1.
          2   -1    0    0  501    0  0.00000000000E+00 -0.00000000000E+00 -0.47184762643E+03  0.47184762643E+03  0.00000000000E+00 0. -1.
         23    2    1    2    0    0 -0.65669056271E+02  0.14194173993E+02 -0.23256853182E+03  0.25519275086E+03  0.80754681428E+02 0.  0.
          5    1    1    2  502    0 -0.32409667967E+02 -0.11401193235E+01 -0.17039801077E+02  0.36871583510E+02  0.41800000000E+01 0. -1.
         -5    1    1    2    0  502  0.98078724239E+02 -0.13054054669E+02 -0.18881382275E+03  0.21320876284E+03  0.41800000000E+01 0. -1.
        -11    1    3    3    0    0  0.14071555576E+02  0.18956070253E+02 -0.36427672041E+02  0.43408715324E+02  0.00000000000E+00 0.  1.
         11    1    3    3    0    0 -0.79740611848E+02 -0.47618962601E+01 -0.19614085978E+03  0.21178403554E+03  0.00000000000E+00 0. -1.
</event>
<event>
 7    1  0.4687179E-006  0.1550901E+03  0.7561462E-02  0.1194354E+00
          2   -1    0    0  501    0  0.00000000000E+00  0.00000000000E+00  0.78945041269E+03  0.78945041269E+03  0.00000000000E+00 0. -1.
         -2   -1    0    0    0  501 -0.00000000000E+00 -0.00000000000E+00 -0.39921666498E+02  0.39921666498E+02  0.00000000000E+00 0.  1.
         23    2    1    2    0    0  0.35429983580E+02 -0.77271583854E+02  0.30219174815E+03  0.32711598312E+03  0.91971910695E+02 0.  0.
          5    1    1    2  502    0 -0.90188156209E+02 -0.24657752119E+00  0.36668876401E+03  0.37764015461E+03  0.41800000000E+01 0. -1.
         -5    1    1    2    0  502  0.54758172629E+02  0.77518161375E+02  0.80648234028E+02  0.12461594145E+03  0.41800000000E+01 0.  1.
        -11    1    3    3    0    0 -0.14348762464E+02  0.14558291262E+02  0.41021728958E+02  0.45832445662E+02  0.00000000000E+00 0.  1.
         11    1    3    3    0    0  0.49778746044E+02 -0.91829875116E+02  0.26117001919E+03  0.28128353746E+03  0.00000000000E+00 0. -1.
</event>
<event>
 7    1  0.4687179E-006  0.9864453E+02  0.7561462E-02  0.1283172E+00
          1   -1    0    0  501    0  0.00000000000E+00  0.00000000000E+00  0.47931862884E+03  0.47931862884E+03  0.00000000000E+00 0.  1.
         -1   -1    0    0    0  501 -0.00000000000E+00 -0.00000000000E+00 -0.28998422574E+02  0.28998422574E+02  0.00000000000E+00 0. -1.
         23    2    1    2    0    0 -0.14532974185E+02 -0.21975041182E+02  0.27477989342E+03  0.29116393911E+03  0.92619327531E+02 0.  0.
          5    1    1    2  502    0  0.53542802041E+02 -0.64155796985E+01  0.15568501408E+03  0.16481288579E+03  0.41800000000E+01 0.  1.
         -5    1    1    2    0  502 -0.39009827855E+02  0.28390620880E+02  0.19855298768E+02  0.52340226523E+02  0.41800000000E+01 0.  1.
        -11    1    3    3    0    0  0.38079459594E+02 -0.17687166060E+02  0.96621458208E+02  0.10534983281E+03  0.00000000000E+00 0. -1.
         11    1    3    3    0    0 -0.52612433780E+02 -0.42878751217E+01  0.17815843522E+03  0.18581410630E+03  0.00000000000E+00 0.  1.
</event>
<event>
 7    1  0.4687179E-006  0.1038317E+03  0.7561462E-02  0.1272439E+00
          1   -1    0    0  501    0  0.00000000000E+00  0.00000000000E+00  0.49499011827E+02  0.49499011827E+02  0.00000000000E+00 0. -1.
         -1   -1    0    0    0  501 -0.00000000000E+00 -0.00000000000E+00 -0.26080263469E+03  0.26080263469E+03  0.00000000000E+00 0.  1.
         23    2    1    2    0    0  0.18072644414E+02 -0.14334816888E+02 -0.61440815690E+02  0.11372976992E+03  0.92883686841E+02 0.  0.
          5    1    1    2  502    0  0.43011650090E+02  0.25233806486E+02 -0.11467315827E+03  0.12511655630E+03  0.41800000000E+01 0. -1.
         -5    1    1    2    0  502 -0.61084294504E+02 -0.10898989598E+02 -0.35189648904E+02  0.71455320301E+02  0.41800000000E+01 0. -1.
        -11    1    3    3    0    0  0.42161887426E+02 -0.41475311885E+02 -0.33861968660E+02  0.68150269029E+02  0.00000000000E+00 0. -1.
         11    1    3    3    0    0 -0.24089243011E+02  0.27140494997E+02 -0.27578847030E+02  0.45579500887E+02  0.00000000000E+00 0.  1.
</event>
<event>
 7    1  0.4687179E-006  0.1294095E+03  0.7561462E-02  0.1228335E+00
         -1   -1    0    0    0  501 -0.00000000000E+00  0.00000000000E+00  0.10875970750E+04  0.10875970750E+04  0.00000000000E+00 0.  1.
          1   -1    0    0  501    0  0.00000000000E+00 -0.00000000000E+00 -0.23785218577E+02  0.23785218577E+02  0.00000000000E+00 0. -1.
         23    2    1    2    0    0 -0.38788591680E+02  0.10608520255E+03  0.38190554614E+03  0.40895685167E+03  0.92925966825E+02 0.  0.
          5    1    1    2  502    0  0.20827390089E+01  0.25935699375E+01 -0.41925998521E+01  0.67907805384E+01  0.41800000000E+01 0. -1.
         -5    1    1    2    0  502  0.36705852671E+02 -0.10867877249E+03  0.68609891010E+03  0.69563466133E+03  0.41800000000E+01 0. -1.
        -11    1    3    3    0    0 -0.56102452924E+02  0.36375102873E+02  0.11989058735E+03  0.13727485665E+03  0.00000000000E+00 0. -1.
         11    1    3    3    0    0  0.17313861244E+02  0.69710099677E+02  0.26201495879E+03  0.27168199502E+03  0.00000000000E+00 0.  1.
</event>
<event>
 7    1  0.4687179E-006  0.1399923E+03  0.7561462E-02  0.1213339E+00
          1   -1    0    0  501    0  0.00000000000E+00  0.00000000000E+00  0.73847209726E+02  0.73847209726E+02  0.00000000000E+00 0. -1.
         -1   -1    0    0    0  501 -0.00000000000E+00 -0.00000000000E+00 -0.38139643948E+03  0.38139643948E+03  0.00000000000E+00 0.  1.
         23    2    1    2    0    0  0.11368373966E+03 -0.56254908820E+02 -0.13857607845E+03  0.20971184995E+03  0.93204737331E+02 0.  0.
          5    1    1    2  502    0  0.10326324697E+01  0.36198522944E+02  0.43123220444E+01  0.36707872651E+02  0.41800000000E+01 0.  1.
         -5    1    1    2    0  502 -0.11471637213E+03  0.20056385876E+02 -0.17328547336E+03  0.20882392661E+03  0.41800000000E+01 0.  1.
        -11    1    3    3    0    0  0.80094426977E+02 -0.36368688822E+02 -0.14554288054E+03  0.17006036821E+03  0.00000000000E+00 0.  1.
         11    1    3    3    0    0  0.33589312686E+02 -0.19886219997E+02  0.69668020960E+01  0.39651481737E+02  0.00000000000E+00 0. -1.
</event>
<event>
 7    1  0.4687179E-006  0.1015003E+03  0.7561462E-02  0.1277172E+00
         -2   -1    0    0    0  501 -0.00000000000E+00  0.00000000000E+00  0.23331210357E+03  0.23331210357E+03  0.00000000000E+00 0.  1.
          2   -1    0    0  501    0  0.00000000000E+00 -0.00000000000E+00 -0.78693757917E+02  0.78693757917E+02  0.00000000000E+00 0. -1.
         23    2    1    2    0    0  0.62761313668E+02 -0.66809180440E+00  0.13092066145E+02  0.11296681567E+03  0.93008980253E+02 0.  0.
          5    1    1    2  502    0  0.17728214319E+02  0.42355997652E+02  0.28935079335E+02  0.54433733440E+02  0.41800000000E+01 0.  1.
         -5    1    1    2    0  502 -0.80489527987E+02 -0.41687905848E+02  0.11259120017E+03  0.14460531237E+03  0.41800000000E+01 0.  1.
        -11    1    3    3    0    0  0.50914947840E+02  0.79121445189E+01  0.50900292236E+02  0.72427713578E+02  0.00000000000E+00 0.  1.
         11    1    3    3    0    0  0.11846365828E+02 -0.85802363233E+01 -0.37808226090E+02  0.40539102097E+02  0.00000000000E+00 0. -1.
</event>
<event>
 7    1  0.4687179E-006  0.1100556E+03  0.7561462E-02  0.1260467E+00
          2   -1    0    0  501    0  0.00000000000E+00  0.00000000000E+00  0.87048669922E+03  0.87048669922E+03  0.00000000000E+00 0. -1.
         -2   -1    0    0    0  501 -0.00000000000E+00 -0.00000000000E+00 -0.15137285930E+02  0.15137285930E+02  0.00000000000E+00 0.  1.
         23    2    1    2    0    0 -0.15804214647E+01  0.41471674862E+02  0.34368222968E+03  0.35725552673E+03  0.88270260181E+02 0.  0.
          5    1    1    2  502    0 -0.55875404755E+02 -0.23485378571E+01  0.15185357725E+03  0.16187821907E+03  0.41800000000E+01 0.  1.
         -5    1    1    2    0  502  0.57455826220E+02 -0.39123137005E+02  0.35981360636E+03  0.36649023935E+03  0.41800000000E+01 0.  1.
        -11    1    3    3    0    0 -0.26090589938E+02 -0.16899435788E+02  0.15937915720E+03  0.16238234375E+03  0.00000000000E+00 0. -1.
         11    1    3    3    0    0  0.24510168473E+02  0.58371110650E+02  0.18430307249E+03  0.19487318298E+03  0.00000000000E+00 0.  1.
</event>
<event>
 7    1  0.4687179E-006  0.9983350E+02  0.7561462E-02  0.1280646E+00
          2   -1    0    0  501    0  0.00000000000E+00  0.00000000000E+00  0.80673186978E+02  0.80673186978E+02  0.00000000000E+00 0. -1.
         -2   -1    0    0    0  501 -0.00000000000E+00 -0.00000000000E+00 -0.23350418465E+03  0.23350418465E+03  0.00000000000E+00 0.  1.
         23    2    1    2    0    0 -0.40853319114E+01  0.54097767557E+01  0.23569482064E+02  0.97819802558E+02  0.94695499716E+02 0.  0.
          5    1    1    2  502    0  0.19028226089E+02  0.47395034947E+02 -0.14317508182E+03  0.15206886328E+03  0.41800000000E+01 0. -1.
         -5    1    1    2    0  502 -0.14942894178E+02 -0.52804811703E+02 -0.33225397919E+02  0.64288705791E+02  0.41800000000E+01 0. -1.
        -11    1    3    3    0    0 -0.47979599704E+02  0.10749017059E+02  0.21182358538E+02  0.53537609853E+02  0.00000000000E+00 0. -1.
         11    1    3    3    0    0  0.43894267793E+02 -0.53392403036E+01  0.23871235255E+01  0.44282192705E+02  0.00000000000E+00 0.  1.
</event>
<event>
 7    1  0.4687179E-006  0.9748524E+02  0.7561462E-02  0.1285675E+00
          2   -1    0    0  501    0  0.00000000000E+00  0.00000000000E+00  0.22470483663E+03  0.22470483663E+03  0.00000000000E+00 0. -1.
         -2   -1    0    0    0  501 -0.00000000000E+00 -0.00000000000E+00 -0.70416180489E+02  0.70416180489E+02  0.00000000000E+00 0.  1.
         23    2    1    2    0    0 -0.56518141892E+02  0.23070580823E+02  0.91824844177E+02  0.14256279186E+03  0.90364791550E+02 0.  0.
          5    1    1    2  502    0  0.63596234091E+01 -0.37289741010E+02  0.86870438800E+02  0.94841526410E+02  0.41800000000E+01 0.  1.
         -5    1    1    2    0  502  0.50158518483E+02  0.14219160187E+02 -0.24406626835E+02  0.57716698852E+02  0.41800000000E+01 0.  1.
        -11    1    3    3    0    0  0.22083104045E+02 -0.18294522927E+01  0.38342556556E+02  0.44285009012E+02  0.00000000000E+00 0.  1.
         11    1    3    3    0    0 -0.78601245937E+02  0.24900033116E+02  0.53482287621E+02  0.98277782847E+02  0.00000000000E+00 0. -1.
</event>
<event>
 7    1  0.4687179E-006  0.1129001E+03  0.7561462E-02  0.1255292E+00
         -2   -1    0    0    0  501 -0.00000000000E+00  0.00000000000E+00  0.75820342228E+02  0.75820342228E+02  0.00000000000E+00 0.  1.
          2   -1    0    0  501    0  0.00000000000E+00 -0.00000000000E+00 -0.27182071997E+03  0.27182071997E+03  0.00000000000E+00 0. -1.
         23    2    1    2    0    0  0.37499952405E+02 -0.82770585410E+02 -0.11612152290E+03  0.17361530948E+03  0.91656158364E+02 0.  0.
          5    1    1    2  502    0  0.31061064738E+02  0.48586747277E+02  0.68593879799E+01  0.58223580765E+02  0.41800000000E+01 0.  1.
         -5    1    1    2    0  502 -0.68561017143E+02  0.34183838132E+02 -0.86738242814E+02  0.11580217195E+03  0.41800000000E+01 0.  1.
        -11    1    3    3    0    0  0.90104506692E+01 -0.29528279675E+02 -0.10843316514E+03  0.11274244464E+03  0.00000000000E+00 0. -1.
         11    1    3    3    0    0  0.28489501736E+02 -0.53242305735E+02 -0.76883577677E+01  0.60872864844E+02  0.00000000000E+00 0.  1.
</event>
<event>
 7    1  0.4687179E-006  0.1281122E+03  0.7561462E-02  0.1230284E+00
          2   -1    0    0  501    0  0.00000000000E+00  0.00000000000E+00  0.27085579330E+03  0.27085579330E+03  0.00000000000E+00 0. -1.
         -2   -1    0    0    0  501 -0.00000000000E+00 -0.00000000000E+00 -0.92087580859E+02  0.92087580859E+02  0.00000000000E+00 0.  1.
         23    2    1    2    0    0  0.10864366370E+03  0.31911946713E+02  0.10592116691E+03  0.17916088399E+03  0.89763638219E+02 0.  0.
          5    1    1    2  502    0 -0.58731164591E+02 -0.53642554289E+02  0.95772888049E+02  0.12456641526E+03  0.41800000000E+01 0. -1.
         -5    1    1    2    0  502 -0.49912499107E+02  0.21730607576E+02 -0.22925842521E+02  0.59216074912E+02  0.41800000000E+01 0. -1.
        -11    1    3    3    0    0  0.74874581422E+02 -0.91440698924E+00  0.14426705439E+02  0.76257254822E+02  0.00000000000E+00 0.  1.
         11    1    3    3    0    0  0.33769082276E+02  0.32826353702E+02  0.91494461470E+02  0.10290362916E+03  0.00000000000E+00 0. -1.
</event>
<event>
 7    1  0.4687179E-006  0.1500862E+03  0.7561462E-02  0.1200367E+00
          2   -1    0    0  501    0  0.00000000000E+00  0.00000000000E+00  0.10053074991E+04  0.10053074991E+04  0.00000000000E+00 0. -1.
         -2   -1    0    0    0  501 -0.00000000000E+00 -0.00000000000E+00 -0.33250401995E+02  0.33250401995E+02  0.00000000000E+00 0.  1.
         23    2    1    2    0    0 -0.77639965386E+02 -0.20117484007E+02  0.28022578966E+03  0.30561401907E+03  0.91873598370E+02 0.  0.
          5    1    1    2  502    0  0.11276651282E+03 -0.30129099982E+02  0.64550930563E+03  0.65599068982E+03  0.41800000000E+01 0. -1.
         -5    1    1    2    0  502 -0.35126547433E+02  0.50246583989E+02  0.46322001815E+02  0.76953192197E+02  0.41800000000E+01 0.  1.
        -11    1    3    3    0    0 -0.31692263480E+02 -0.55515030457E+02  0.14348306324E+03  0.15707866694E+03  0.00000000000E+00 0. -1.
         11    1    3    3    0    0 -0.45947701907E+02  0.35397546450E+02  0.13674272642E+03  0.14853535214E+03  0.00000000000E+00 0.  1.
</event>
<event>
 7    1  0.4687179E-006  0.9776581E+02  0.7561462E-02  0.1285066E+00
          1   -1    0    0  501    0  0.00000000000E+00  0.00000000000E+00  0.14350471992E+03  0.14350471992E+03  0.00000000000E+00 0. -1.
         -1   -1    0    0    0  501 -0.00000000000E+00 -0.00000000000E+00 -0.21683598090E+03  0.21683598090E+03  0.00000000000E+00 0.  1.
         23    2    1    2    0    0  0.82559899831E+01 -0.19277307278E+02  0.10579122953E+03  0.14085875237E+03  0.90606997119E+02 0.  0.
          5    1    1    2  502    0 -0.39186668558E-01 -0.43464514820E+02 -0.19687787253E+02  0.47898297998E+02  0.41800000000E+01 0. -1.
         -5    1    1    2    0  502 -0.82168033145E+01  0.62741822098E+02 -0.15943470326E+03  0.17158365044E+03  0.41800000000E+01 0. -1.
        -11    1    3    3    0    0  0.19864585021E+02 -0.50967381506E+02  0.43026573184E+02  0.69595701847E+02  0.00000000000E+00 0.  1.
         11    1    3    3    0    0 -0.11608595038E+02  0.31690074228E+02  0.62764656349E+02  0.71263050524E+02  0.00000000000E+00 0. -1.
</event>
<event>
 7    1  0.4687179E-006  0.1155841E+03  0.7561462E-02  0.1250565E+00
         -1   -1    0    0    0  501 -0.00000000000E+00  0.00000000000E+00  0.93264049651E+02  0.93264049651E+02  0.00000000000E+00 0.  1.
          1   -1    0    0  501    0  0.00000000000E+00 -0.00000000000E+00 -0.20286056328E+03  0.20286056328E+03  0.00000000000E+00 0. -1.
         23    2    1    2    0    0 -0.23753593501E+02 -0.76673920264E+02 -0.24606095332E+02  0.12490570552E+03  0.92481631095E+02 0.  0.
          5    1    1    2  502    0  0.60311649396E+02 -0.30024197157E+01 -0.29020610441E+02  0.67128070190E+02  0.41800000000E+01 0. -1.
         -5    1    1    2    0  502 -0.36558055895E+02  0.79676339979E+02 -0.55969807860E+02  0.10409083723E+03  0.41800000000E+01 0. -1.
        -11    1    3    3    0    0 -0.18905422328E+02 -0.26978097219E+02 -0.56681389907E+02  0.65559230355E+02  0.00000000000E+00 0. -1.
         11    1    3    3    0    0 -0.48481711732E+01 -0.49695823045E+02  0.32075294575E+02  0.59346475160E+02  0.00000000000E+00 0.  1.
</event>
<event>
 7    1  0.4687179E-006  0.1020279E+03  0.7561462E-02  0.1276089E+00
          2   -1    0    0  501    0  0.00000000000E+00  0.00000000000E+00  0.51090840691E+03  0.51090840691E+03  0.00000000000E+00 0.  1.
         -2   -1    0    0    0  501 -0.00000000000E+00 -0.00000000000E+00 -0.24108997748E+02  0.24108997748E+02  0.00000000000E+00 0. -1.
         23    2    1    2    0    0 -0.92188572042E+01  0.46630659223E+01  0.25020840909E+03  0.26719424594E+03  0.93176099789E+02 0.  0.
          5    1    1    2  502    0  0.35907558254E+01 -0.63617244964E+02  0.97000928470E+02  0.11613225180E+03  0.41800000000E+01 0. -1.
         -5    1    1    2    0  502  0.56281013788E+01  0.58954179041E+02  0.13959007160E+03  0.15169090692E+03  0.41800000000E+01 0. -1.
        -11    1    3    3    0    0 -0.85286751249E+01  0.42318307835E+02  0.19899568018E+03  0.20362430653E+03  0.00000000000E+00 0.  1.
         11    1    3    3    0    0 -0.69018207928E+00 -0.37655241913E+02  0.51212728912E+02  0.63569939417E+02  0.00000000000E+00 0. -1.
</event>
<event>
 7    1  0.4687179E-006  0.1316936E+03  0.7561462E-02  0.1224964E+00
          1   -1    0    0  501    0  0.00000000000E+00  0.00000000000E+00  0.62257559530E+03  0.62257559530E+03  0.00000000000E+00 0. -1.
         -1   -1    0    0    0  501 -0.00000000000E+00 -0.00000000000E+00 -0.35071481792E+02  0.35071481792E+02  0.00000000000E+00 0.  1.
         23    2    1    2    0    0 -0.95656186256E+02  0.29769982819E+02  0.28178789823E+03  0.31247070431E+03  0.90538188714E+02 0.  0.
          5    1    1    2  502    0  0.67589794230E+02 -0.68363097876E+02  0.26626725623E+03  0.28312120651E+03  0.41800000000E+01 0. -1.
         -5    1    1    2    0  502  0.28066392026E+02  0.38593115057E+02  0.39448959045E+02  0.62055166271E+02  0.41800000000E+01 0. -1.
        -11    1    3    3    0    0 -0.29281675406E+02  0.42563549326E+02  0.19897409164E+03  0.20557179133E+03  0.00000000000E+00 0. -1.
         11    1    3    3    0    0 -0.66374510850E+02 -0.12793566507E+02  0.82813806597E+02  0.10689891299E+03  0.00000000000E+00 0.  1.
</event>
<event>
 7    1  0.4687179E-006  0.1042122E+03  0.7561462E-02  0.1271680E+00
          1   -1    0    0  501    0  0.00000000000E+00  0.00000000000E+00  0.27056696650E+03  0.27056696650E+03  0.00000000000E+00 0. -1.
         -1   -1    0    0    0  501 -0.00000000000E+00 -0.00000000000E+00 -0.12919565684E+03  0.12919565684E+03  0.00000000000E+00 0.  1.
         23    2    1    2    0    0 -0.83670998959E+02 -0.19164442255E+02  0.20163663878E+03  0.23652408643E+03  0.88984253934E+02 0.  0.
          5    1    1    2  502    0  0.26200864455E+02  0.31212525877E+01 -0.91809048321E+02  0.95616950743E+02  0.41800000000E+01 0.  1.
         -5    1    1    2    0  502  0.57470134504E+02  0.16043189667E+02  0.31543719202E+02  0.67621586167E+02  0.41800000000E+01 0.  1.
        -11    1    3    3    0    0  0.44838884128E+01 -0.32438419372E+02  0.37869178614E+02  0.50064268651E+02  0.00000000000E+00 0.  1.
         11    1    3    3    0    0 -0.88154887372E+02  0.13273977118E+02  0.16376746016E+03  0.18645981777E+03  0.00000000000E+00 0. -1.
</event>
<event>
 7    1  0.4687179E-006  0.1321182E+03  0.7561462E-02  0.1224346E+00
          1   -1    0    0  501    0  0.00000000000E+00  0.00000000000E+00  0.93658388173E+03  0.93658388173E+03  0.00000000000E+00 0. -1.
         -1   -1    0    0    0  501 -0.00000000000E+00 -0.00000000000E+00 -0.33612780996E+02  0.33612780996E+02  0.00000000000E+00 0.  1.
         23    2    1    2    0    0 -0.37874576296E+02 -0.79118964446E+02  0.72378185049E+03  0.73471806495E+03  0.90863489981E+02 0.  0.
          5    1    1    2  502    0 -0.28053903398E+02  0.64244374699E+02  0.40317691743E+02  0.80977465037E+02  0.41800000000E+01 0. -1.
         -5    1    1    2    0  502  0.65928479694E+02  0.14874589747E+02  0.13887155851E+03  0.15450113274E+03  0.41800000000E+01 0. -1.
        -11    1    3    3    0    0 -0.44418311525E+02  0.24288168303E+01  0.25600820831E+03  0.25984435394E+03  0.00000000000E+00 0.  1.
         11    1    3    3    0    0  0.65437352282E+01 -0.81547781276E+02  0.46777364217E+03  0.47487371102E+03  0.00000000000E+00 0. -1.
</event>
<event>
 7    1  0.4687179E-006  0.1259081E+03  0.7561462E-02  0.1233657E+00
          2   -1    0    0  501    0  0.00000000000E+00  0.00000000000E+00  0.36845140985E+03  0.36845140985E+03  0.00000000000E+00 0.  1.
         -2   -1    0    0    0  501 -0.00000000000E+00 -0.00000000000E+00 -0.51832201667E+02  0.51832201667E+02  0.00000000000E+00 0. -1.
         23    2    1    2    0    0 -0.85213024707E+02  0.10789137739E+02  0.13900352823E+03  0.18667515495E+03  0.90266092982E+02 0.  0.
          5    1    1    2  502    0 -0.16370917509E+02  0.33917078248E+02  0.27256707642E+02  0.46677356913E+02  0.41800000000E+01 0. -1.
         -5    1    1    2    0  502  0.10158394222E+03 -0.44706215986E+02  0.15035897231E+03  0.18693109966E+03  0.41800000000E+01 0. -1.
        -11    1    3    3    0    0 -0.75678003761E+02  0.30003401279E+02  0.14328995207E+03  0.16480101549E+03  0.00000000000E+00 0.  1.
         11    1    3    3    0    0 -0.95350209456E+01 -0.19214263540E+02 -0.42864238404E+01  0.21874139461E+02  0.00000000000E+00 0. -1.
</event>
<event>
 7    1  0.4687179E-006  0.1044627E+03  0.7561462E-02  0.1271182E+00
          2   -1    0    0  501    0  0.00000000000E+00  0.00000000000E+00  0.21124091559E+03  0.21124091559E+03  0.00000000000E+00 0. -1.
         -2   -1    0    0    0  501 -0.00000000000E+00 -0.00000000000E+00 -0.10709469502E+03  0.10709469502E+03  0.00000000000E+00 0.  1.
         23    2    1    2    0    0 -0.72199483181E+02 -0.55464058289E+02  0.10281275756E+03  0.16361949776E+03  0.88948579502E+02 0.  0.
          5    1    1    2  502    0  0.87640854682E+02  0.44245381437E+02  0.44092644208E+02  0.10770425647E+03  0.41800000000E+01 0.  1.
         -5    1    1    2    0  502 -0.15441371501E+02  0.11218676852E+02 -0.42759181195E+02  0.47011856384E+02  0.41800000000E+01 0.  1.
        -11    1    3    3    0    0 -0.25228977400E+02 -0.17149642451E+02 -0.12798122570E+02  0.33081769574E+02  0.00000000000E+00 0.  1.
         11    1    3    3    0    0 -0.46970505781E+02 -0.38314415837E+02  0.11561088013E+03  0.13053772818E+03  0.00000000000E+00 0. -1.
</event>
<event>
 7    1  0.4687179E-006  0.6415163E+02  0.7561462E-02  0.1381191E+00
          3   -1    0    0  501    0  0.00000000000E+00  0.00000000000E+00  0.37184608760E+03  0.37184608760E+03  0.00000000000E+00 0. -1.
         -3   -1    0    0    0  501 -0.00000000000E+00 -0.00000000000E+00 -0.36205472069E+02  0.36205472069E+02  0.00000000000E+00 0.  1.
         23    2    1    2    0    0 -0.12332587052E+02 -0.36287538204E+02  0.17264064423E+03  0.19904298855E+03  0.91347912505E+02 0.  0.
          5    1    1    2  502    0  0.14230270184E+02  0.48425651708E+01  0.17451297770E+03  0.17520902606E+03  0.41800000000E+01 0.  1.
         -5    1    1    2    0  502 -0.18976831319E+01  0.31444973033E+02 -0.11513006394E+02  0.33799545064E+02  0.41800000000E+01 0.  1.
        -11    1    3    3    0    0 -0.25777447004E+02  0.13676977077E+02  0.14366346394E+02  0.32525811054E+02  0.00000000000E+00 0.  1.
         11    1    3    3    0    0  0.13444859951E+02 -0.49964515281E+02  0.15827429783E+03  0.16651717750E+03  0.00000000000E+00 0. -1.
</event>
<event>
 7    1  0.4687179E-006  0.1556834E+03  0.7561462E-02  0.1193658E+00
         -1   -1    0    0    0  501 -0.00000000000E+00  0.00000000000E+00  0.28171622640E+03  0.28171622640E+03  0.00000000000E+00 0.  1.
          1   -1    0    0  501    0  0.00000000000E+00 -0.00000000000E+00 -0.18882931705E+03  0.18882931705E+03  0.00000000000E+00 0. -1.
         23    2    1    2    0    0  0.64519151462E+02 -0.11365170627E+03 -0.11421078909E+03  0.19556244254E+03  0.90117330989E+02 0.  0.
          5    1    1    2  502    0  0.37020562641E+02  0.19239375767E+02  0.54456297636E+02  0.68728715908E+02  0.41800000000E+01 0.  1.
         -5    1    1    2    0  502 -0.10153971410E+03  0.94412330505E+02  0.15264140080E+03  0.20625438500E+03  0.41800000000E+01 0.  1.
        -11    1    3    3    0    0  0.54078318557E+02 -0.97421777275E+02 -0.39215814167E+02  0.11812428754E+03  0.00000000000E+00 0.  1.
         11    1    3    3    0    0  0.10440832905E+02 -0.16229928998E+02 -0.74994974922E+02  0.77438155005E+02  0.00000000000E+00 0. -1.
</event>
<event>
 7    1  0.4687179E-006  0.1817875E+03  0.7561462E-02  0.1166084E+00
          1   -1    0    0  501    0  0.00000000000E+00  0.00000000000E+00  0.27111466908E+03  0.27111466908E+03  0.00000000000E+00 0. -1.
         -1   -1    0    0    0  501 -0.00000000000E+00 -0.00000000000E+00 -0.14203627714E+03  0.14203627714E+03  0.00000000000E+00 0.  1.
         23    2    1    2    0    0  0.35931933229E+02  0.15861041602E+03  0.77035164833E+02  0.20148148746E+03  0.90620115169E+02 0.  0.
          5    1    1    2  502    0 -0.65148163096E+02 -0.64405825595E+02  0.64572013593E+02  0.11215797281E+03  0.41800000000E+01 0.  1.
         -5    1    1    2    0  502  0.29216229867E+02 -0.94204590428E+02 -0.12528786484E+02  0.99511485951E+02  0.41800000000E+01 0.  1.
        -11    1    3    3    0    0 -0.11364323128E+02  0.84317013032E+02  0.93121634020E+00  0.85084509111E+02  0.00000000000E+00 0.  1.
         11    1    3    3    0    0  0.47296256357E+02  0.74293402991E+02  0.76103948493E+02  0.11639697835E+03  0.00000000000E+00 0. -1.
</event>
<event>
 7    1  0.4687179E-006  0.1384037E+03  0.7561462E-02  0.1215493E+00
          1   -1    0    0  501    0  0.00000000000E+00  0.00000000000E+00  0.43603024781E+03  0.43603024781E+03  0.00000000000E+00 0. -1.
         -1   -1    0    0    0  501 -0.00000000000E+00 -0.00000000000E+00 -0.54086520298E+02  0.54086520298E+02  0.00000000000E+00 0.  1.
         23    2    1    2    0    0  0.52198706470E+02  0.90752064368E+02  0.22595356695E+03  0.26441850557E+03  0.88890323008E+02 0.  0.
          5    1    1    2  502    0 -0.36091233090E+02 -0.12075984371E+03  0.13805072493E+03  0.18697858704E+03  0.41800000000E+01 0. -1.
         -5    1    1    2    0  502 -0.16107473380E+02  0.30007779343E+02  0.17939435628E+02  0.38719675495E+02  0.41800000000E+01 0. -1.
        -11    1    3    3    0    0  0.21661962515E+02  0.81720552472E+02  0.84897836752E+02  0.11981290415E+03  0.00000000000E+00 0.  1.
         11    1    3    3    0    0  0.30536743955E+02  0.90315118957E+01  0.14105573020E+03  0.14460560141E+03  0.00000000000E+00 0. -1.
</event>
<event>
 7    1  0.4687179E-006  0.8283327E+02  0.7561462E-02  0.1321198E+00
          1   -1    0    0  501    0  0.00000000000E+00  0.00000000000E+00  0.44491006448E+03  0.44491006448E+03  0.00000000000E+00 0. -1.
         -1   -1    0    0    0  501 -0.00000000000E+00 -0.00000000000E+00 -0.27242657871E+02  0.27242657871E+02  0.00000000000E+00 0.  1.
         23    2    1    2    0    0 -0.39832799508E+01 -0.24062231014E+01  0.19132115826E+03  0.21350168676E+03  0.94644219168E+02 0.  0.
          5    1    1    2  502    0 -0.43367627626E+02  0.15959970921E+02  0.27901318240E+02  0.54142661157E+02  0.41800000000E+01 0.  1.
         -5    1    1    2    0  502  0.47350907577E+02 -0.13553747820E+02  0.19844493011E+03  0.20450837444E+03  0.41800000000E+01 0.  1.
        -11    1    3    3    0    0 -0.29122110661E+02 -0.23183579757E+02  0.27023509854E+02  0.45998323715E+02  0.00000000000E+00 0.  1.
         11    1    3    3    0    0  0.25138830711E+02  0.20777356656E+02  0.16429764841E+03  0.16750336304E+03  0.00000000000E+00 0. -1.
</event>
<event>
 7    1  0.4687179E-006  0.1106879E+03  0.7561462E-02  0.1259301E+00
          1   -1    0    0  501    0  0.00000000000E+00  0.00000000000E+00  0.81696134555E+03  0.81696134555E+03  0.00000000000E+00 0. -1.
         -1   -1    0    0    0  501 -0.00000000000E+00 -0.00000000000E+00 -0.16844908858E+02  0.16844908858E+02  0.00000000000E+00 0.  1.
         23    2    1    2    0    0  0.12336532694E+02 -0.63254910506E+01  0.33586728526E+03  0.34856077179E+03  0.92171451355E+02 0.  0.
          5    1    1    2  502    0  0.28870267455E+02  0.59517552864E+02  0.15235487494E+03  0.16614846301E+03  0.41800000000E+01 0. -1.
         -5    1    1    2    0  502 -0.41206800149E+02 -0.53192061813E+02  0.31189427649E+03  0.31909701962E+03  0.41800000000E+01 0.  1.
        -11    1    3    3    0    0 -0.29655258507E+02 -0.27681919623E+02  0.97852429005E+02  0.10592837624E+03  0.00000000000E+00 0.  1.
         11    1    3    3    0    0  0.41991791201E+02  0.21356428572E+02  0.23801485625E+03  0.24263239554E+03  0.00000000000E+00 0. -1.
</event>
<event>
 7    1  0.4687179E-006  0.1118409E+03  0.7561462E-02  0.1257198E+00
         -1   -1    0    0    0  501 -0.00000000000E+00  0.00000000000E+00  0.31142404557E+02  0.31142404557E+02  0.00000000000E+00 0.  1.
          1   -1    0    0  501    0  0.00000000000E+00 -0.00000000000E+00 -0.50558937409E+03  0.50558937409E+03  0.00000000000E+00 0. -1.
         23    2    1    2    0    0 -0.65903446032E+02 -0.13112477578E+02 -0.27479442282E+03  0.29173429362E+03  0.71286197765E+02 0.  0.
          5    1    1    2  502    0  0.41911268157E+02  0.59944923813E+02 -0.56793038295E+02  0.92697733998E+02  0.41800000000E+01 0.  1.
         -5    1    1    2    0  502  0.23992177876E+02 -0.46832446235E+02 -0.14285950842E+03  0.15229975104E+03  0.41800000000E+01 0.  1.
        -11    1    3    3    0    0 -0.59993486417E+02  0.20580697802E+02 -0.16680382155E+03  0.17845531211E+03  0.00000000000E+00 0.  1.
         11    1    3    3    0    0 -0.59099596149E+01 -0.33693175380E+02 -0.10799060126E+03  0.11327898151E+03  0.00000000000E+00 0. -1.
</event>
<event>
 7    1  0.4687179E-006  0.7838992E+02  0.7561462E-02  0.1333684E+00
         -3   -1    0    0    0  501 -0.00000000000E+00  0.00000000000E+00  0.80630793033E+02  0.80630793033E+02  0.00000000000E+00 0.  1.
          3   -1    0    0  501    0  0.00000000000E+00 -0.00000000000E+00 -0.34920180931E+03  0.34920180931E+03  0.00000000000E+00 0. -1.
         23    2    1    2    0    0 -0.16412008269E+02  0.46288208801E+02 -0.27593363872E+03  0.29524801658E+03  0.92844310686E+02 0.  0.
          5    1    1    2  502    0  0.65350488191E+01 -0.50029248501E+01 -0.56795454774E+02  0.57540700406E+02  0.41800000000E+01 0.  1.
         -5    1    1    2    0  502  0.98769594498E+01 -0.41285283951E+02  0.64158077218E+02  0.77043885359E+02  0.41800000000E+01 0.  1.
        -11    1    3    3    0    0 -0.50516222446E+02  0.41543781959E+01 -0.12573312545E+03  0.13556535850E+03  0.00000000000E+00 0.  1.
         11    1    3    3    0    0  0.34104214177E+02  0.42133830605E+02 -0.15020051327E+03  0.15968265808E+03  0.00000000000E+00 0. -1.
</event>
<event>
 7    1  0.4687179E-006  0.9264712E+02  0.7561462E-02  0.1296565E+00
         -2   -1    0    0    0  501 -0.00000000000E+00  0.00000000000E+00  0.67944848286E+02  0.67944848286E+02  0.00000000000E+00 0. -1.
          2   -1    0    0  501    0  0.00000000000E+00 -0.00000000000E+00 -0.28147251148E+03  0.28147251148E+03  0.00000000000E+00 0.  1.
         23    2    1    2    0    0  0.76808909264E+02  0.11099527709E+02 -0.14280328966E+03  0.18609537729E+03  0.90641612158E+02 0.  0.
          5    1    1    2  502    0 -0.57430372445E+02 -0.57940010469E+01 -0.10699747929E+03  0.12164600734E+03  0.41800000000E+01 0.  1.
         -5    1    1    2    0  502 -0.19378536819E+02 -0.53055266619E+01  0.36273105753E+02  0.41675975134E+02  0.41800000000E+01 0.  1.
        -11    1    3    3    0    0 -0.14742426995E+02  0.69790441431E+00  0.15520185294E+01  0.14840316229E+02  0.00000000000E+00 0. -1.
         11    1    3    3    0    0  0.91551336258E+02  0.10401623295E+02 -0.14435530819E+03  0.17125506106E+03  0.00000000000E+00 0.  1.
</event>
<event>
 7    1  0.4687179E-006  0.1296282E+03  0.7561462E-02  0.1228008E+00
          2   -1    0    0  501    0  0.00000000000E+00  0.00000000000E+00  0.42783226936E+03  0.42783226936E+03  0.00000000000E+00 0. -1.
         -2   -1    0    0    0  501 -0.00000000000E+00 -0.00000000000E+00 -0.70593076250E+02  0.70593076250E+02  0.00000000000E+00 0.  1.
         23    2    1    2    0    0  0.71897564038E+02  0.29956589978E+02  0.32818843443E+03  0.34824791442E+03  0.86615843860E+02 0.  0.
          5    1    1    2  502    0 -0.39373243318E+01 -0.67731070255E+02  0.28913478999E+01  0.68035525231E+02  0.41800000000E+01 0. -1.
         -5    1    1    2    0  502 -0.67960239706E+02  0.37774480277E+02  0.26159410771E+02  0.82141905949E+02  0.41800000000E+01 0. -1.
        -11    1    3    3    0    0  0.13114282882E+02  0.49704549588E+02  0.18908546359E+03  0.19594856266E+03  0.00000000000E+00 0. -1.
         11    1    3    3    0    0  0.58783281155E+02 -0.19747959610E+02  0.13910297084E+03  0.15229935177E+03  0.00000000000E+00 0.  1.
</event>
<event>
 7    1  0.4687179E-006  0.1083029E+03  0.7561462E-02  0.1263745E+00
         -1   -1    0    0    0  501 -0.00000000000E+00  0.00000000000E+00  0.28902870634E+02  0.28902870634E+02  0.00000000000E+00 0.  1.
          1   -1    0    0  501    0  0.00000000000E+00 -0.00000000000E+00 -0.47895873799E+03  0.47895873799E+03  0.00000000000E+00 0. -1.
         23    2    1    2    0    0 -0.21616216701E+02  0.95787260469E+01 -0.28348916422E+03  0.29821598102E+03  0.89485486449E+02 0.  0.
          5    1    1    2  502    0  0.44056653555E+02 -0.56994962966E+02 -0.75291010741E+02  0.10428625616E+03  0.41800000000E+01 0. -1.
         -5    1    1    2    0  502 -0.22440436854E+02  0.47416236919E+02 -0.91275692395E+02  0.10535937145E+03  0.41800000000E+01 0. -1.
        -11    1    3    3    0    0 -0.54709542864E+02  0.18142268181E+02 -0.15925496642E+03  0.16936475520E+03  0.00000000000E+00 0.  1.
         11    1    3    3    0    0  0.33093326163E+02 -0.85635421341E+01 -0.12423419781E+03  0.12885122582E+03  0.00000000000E+00 0. -1.
</event>
<event>
 7    1  0.4687179E-006  0.1483504E+03  0.7561462E-02  0.1202515E+00
         -2   -1    0    0    0  501 -0.00000000000E+00  0.00000000000E+00  0.84742185596E+02  0.84742185596E+02  0.00000000000E+00 0. -1.
          2   -1    0    0  501    0  0.00000000000E+00 -0.00000000000E+00 -0.33603054213E+03  0.33603054213E+03  0.00000000000E+00 0.  1.
         23    2    1    2    0    0  0.11361908304E+03 -0.52730976283E+02 -0.15902337616E+03  0.22110268915E+03  0.88927572166E+02 0.  0.
          5    1    1    2  502    0 -0.11903770861E+03  0.59790635517E+02 -0.11427769951E+03  0.17556127469E+03  0.41800000000E+01 0. -1.
         -5    1    1    2    0  502  0.54186255658E+01 -0.70596592341E+01  0.22012719147E+02  0.24108763879E+02  0.41800000000E+01 0. -1.
        -11    1    3    3    0    0  0.30434334503E+02 -0.62814737871E+02 -0.70351689614E+02  0.99102473440E+02  0.00000000000E+00 0.  1.
         11    1    3    3    0    0  0.83184748540E+02  0.10083761588E+02 -0.88671686551E+02  0.12200021571E+03  0.00000000000E+00 0. -1.
</event>
<event>
 7    1  0.4687179E-006  0.7721750E+02  0.7561462E-02  0.1337139E+00
         -1   -1    0    0    0  501 -0.00000000000E+00  0.00000000000E+00  0.50747808332E+02  0.50747808332E+02  0.00000000000E+00 0.  1.
          1   -1    0    0  501    0  0.00000000000E+00 -0.00000000000E+00 -0.43369245442E+03  0.43369245442E+03  0.00000000000E+00 0. -1.
         23    2    1    2    0    0  0.35717680443E+02 -0.96618209171E+01 -0.32890237593E+03  0.34324007698E+03  0.90927850944E+02 0.  0.
          5    1    1    2  502    0 -0.56741613591E+02  0.76312598241E+01  0.22522819452E+02  0.61665197927E+02  0.41800000000E+01 0.  1.
         -5    1    1    2    0  502  0.21023933148E+02  0.20305610930E+01 -0.76565089609E+02  0.79534987837E+02  0.41800000000E+01 0.  1.
        -11    1    3    3    0    0 -0.16974638553E+02  0.94737099428E+01 -0.15497218882E+02  0.24860678333E+02  0.00000000000E+00 0.  1.
         11    1    3    3    0    0  0.52692318996E+02 -0.19135530860E+02 -0.31340515705E+03  0.31837939865E+03  0.00000000000E+00 0. -1.
</event>
<event>
 7    1  0.4687179E-006  0.1165134E+03  0.7561462E-02  0.1248962E+00
         -1   -1    0    0    0  501 -0.00000000000E+00  0.00000000000E+00  0.18939113098E+03  0.18939113098E+03  0.00000000000E+00 0.  1.
          1   -1    0    0  501    0  0.00000000000E+00 -0.00000000000E+00 -0.10155967945E+03  0.10155967945E+03  0.00000000000E+00 0. -1.
         23    2    1    2    0    0  0.58058222046E+02  0.60539537746E+02  0.77474600905E+01  0.12035260467E+03  0.85958906087E+02 0.  0.
          5    1    1    2  502    0  0.19878490338E+02 -0.62919494619E+02  0.12417146773E+02  0.67273138140E+02  0.41800000000E+01 0. -1.
         -5    1    1    2    0  502 -0.77936712384E+02  0.23799568728E+01  0.67666844660E+02  0.10332506762E+03  0.41800000000E+01 0. -1.
        -11    1    3    3    0    0  0.41263431071E+02  0.58947183553E+02  0.41179906107E+02  0.82904920599E+02  0.00000000000E+00 0.  1.
         11    1    3    3    0    0  0.16794790974E+02  0.15923541933E+01 -0.33432446016E+02  0.37447684072E+02  0.00000000000E+00 0. -1.
</event>
<event>
 7    1  0.4687179E-006  0.5848316E+02  0.7561462E-02  0.1404310E+00
          1   -1    0    0  501    0  0.00000000000E+00  0.00000000000E+00  0.36128210729E+02  0.36128210729E+02  0.00000000000E+00 0. -1.
         -1   -1    0    0    0  501 -0.00000000000E+00 -0.00000000000E+00 -0.31331628481E+03  0.31331628481E+03  0.00000000000E+00 0.  1.
         23    2    1    2    0    0  0.29285255628E+02  0.12915082546E+02 -0.94166977200E+02  0.12545679185E+03  0.76469349886E+02 0.  0.
          5    1    1    2  502    0 -0.81732363452E+01  0.33638412260E+01 -0.19444031645E+03  0.19468596837E+03  0.41800000000E+01 0. -1.
         -5    1    1    2    0  502 -0.21112019283E+02 -0.16278923772E+02  0.11419219565E+02  0.29301735321E+02  0.41800000000E+01 0. -1.
        -11    1    3    3    0    0  0.54089436720E+02  0.11878780981E+02 -0.49129874642E+02  0.74030515226E+02  0.00000000000E+00 0. -1.
         11    1    3    3    0    0 -0.24804181092E+02  0.10363015648E+01 -0.45037102558E+02  0.51426276624E+02  0.00000000000E+00 0.  1.
</event>
<event>
 7    1  0.4687179E-006  0.1494637E+03  0.7561462E-02  0.1201134E+00
          1   -1    0    0  501    0  0.00000000000E+00  0.00000000000E+00  0.52044190642E+03  0.52044190642E+03  0.00000000000E+00 0. -1.
         -1   -1    0    0    0  501 -0.00000000000E+00 -0.00000000000E+00 -0.64563182142E+02  0.64563182142E+02  0.00000000000E+00 0.  1.
         23    2    1    2    0    0 -0.94729856795E+02  0.10914309455E+03  0.26597188519E+03  0.31556322683E+03  0.89180410172E+02 0.  0.
          5    1    1    2  502    0  0.26585905783E+02 -0.15250366803E+01  0.12217782317E+03  0.12511606211E+03  0.41800000000E+01 0. -1.
         -5    1    1    2    0  502  0.68143951013E+02 -0.10761805787E+03  0.67729015915E+02  0.14432579962E+03  0.41800000000E+01 0. -1.
        -11    1    3    3    0    0 -0.36929146580E+02  0.43454465402E+02  0.19418413408E+03  0.20238460999E+03  0.00000000000E+00 0. -1.
         11    1    3    3    0    0 -0.57800710215E+02  0.65688629150E+02  0.71787751107E+02  0.11317861684E+03  0.00000000000E+00 0.  1.
</event>
<event>
 7    1  0.4687179E-006  0.1925046E+03  0.7561462E-02  0.1156222E+00
         -2   -1    0    0    0  501 -0.00000000000E+00  0.00000000000E+00  0.61287979308E+03  0.61287979308E+03  0.00000000000E+00 0.  1.
          2   -1    0    0  501    0  0.00000000000E+00 -0.00000000000E+00 -0.31121233395E+03  0.31121233395E+03  0.00000000000E+00 0. -1.
         23    2    1    2    0    0 -0.73770838474E+02 -0.81547118705E+02 -0.19502645929E+03  0.24170044873E+03  0.91058870602E+02 0.  0.
          5    1    1    2  502    0  0.34434058922E+02 -0.75109579003E+02 -0.60339234503E+02  0.10239848091E+03  0.41800000000E+01 0. -1.
         -5    1    1    2    0  502  0.39336779552E+02  0.15665669771E+03  0.55703315292E+03  0.57999319739E+03  0.41800000000E+01 0.  1.
        -11    1    3    3    0    0  0.16837662234E+02 -0.34995537084E+02 -0.36692800637E+02  0.53428046042E+02  0.00000000000E+00 0.  1.
         11    1    3    3    0    0 -0.90608500708E+02 -0.46551581622E+02 -0.15833365865E+03  0.18827240269E+03  0.00000000000E+00 0. -1.
</event>
<event>
 7    1  0.4687179E-006  0.1129131E+03  0.7561462E-02  0.1255268E+00
         -1   -1    0    0    0  501 -0.00000000000E+00  0.00000000000E+00  0.21398856861E+02  0.21398856861E+02  0.00000000000E+00 0.  1.
          1   -1    0    0  501    0  0.00000000000E+00 -0.00000000000E+00 -0.90591028161E+03  0.90591028161E+03  0.00000000000E+00 0. -1.
         23    2    1    2    0    0 -0.80319499956E+02  0.31695592179E+02 -0.37418624850E+03  0.39482936724E+03  0.91755370590E+02 0.  0.
          5    1    1    2  502    0  0.13977106657E+02  0.13153467092E+02 -0.37255126669E+03  0.37306874958E+03  0.41800000000E+01 0.  1.
         -5    1    1    2    0  502  0.66342393299E+02 -0.44849059271E+02 -0.13777390956E+03  0.15941102164E+03  0.41800000000E+01 0.  1.
        -11    1    3    3    0    0  0.13519829230E+02 -0.15820914332E+02 -0.61227801467E+02  0.64667849703E+02  0.00000000000E+00 0. -1.
         11    1    3    3    0    0 -0.93839329186E+02  0.47516506512E+02 -0.31295844703E+03  0.33016151754E+03  0.00000000000E+00 0.  1.
</event>
<event>
 7    1  0.4687179E-006  0.1522900E+03  0.7561462E-02  0.1197687E+00
          2   -1    0    0  501    0  0.00000000000E+00  0.00000000000E+00  0.11177258883E+04  0.11177258883E+04  0.00000000000E+00 0. -1.
         -2   -1    0    0    0  501 -0.00000000000E+00 -0.00000000000E+00 -0.24481728210E+02  0.24481728210E+02  0.00000000000E+00 0.  1.
         23    2    1    2    0    0  0.11824469647E+03 -0.20630380736E+02  0.61766094316E+03  0.63601593341E+03  0.92756703224E+02 0.  0.
          5    1    1    2  502    0 -0.14333703790E+03  0.68334048979E+01  0.41304778761E+03  0.43728497471E+03  0.41800000000E+01 0.  1.
         -5    1    1    2    0  502  0.25092341434E+02  0.13796975838E+02  0.62535429311E+02  0.68906708382E+02  0.41800000000E+01 0.  1.
        -11    1    3    3    0    0  0.25148100545E+02 -0.29263280700E+02  0.65698640455E+02  0.76191061917E+02  0.00000000000E+00 0.  1.
         11    1    3    3    0    0  0.93096595925E+02  0.86328999642E+01  0.55196230271E+03  0.55982487150E+03  0.00000000000E+00 0. -1.
</event>
<event>
 7    1  0.4687179E-006  0.6989158E+02  0.7561462E-02  0.1360462E+00
         -1   -1    0    0    0  501 -0.00000000000E+00  0.00000000000E+00  0.14824371606E+03  0.14824371606E+03  0.00000000000E+00 0.  1.
          1   -1    0    0  501    0  0.00000000000E+00 -0.00000000000E+00 -0.10085749664E+03  0.10085749664E+03  0.00000000000E+00 0. -1.
         23    2    1    2    0    0  0.54378090040E+02  0.14894622861E+02  0.34107011261E+02  0.11125162415E+03  0.89637097184E+02 0.  0.
          5    1    1    2  502    0 -0.19244398622E+02 -0.24580129353E+02  0.66285487348E+02  0.73387791017E+02  0.41800000000E+01 0. -1.
         -5    1    1    2    0  502 -0.35133691417E+02  0.96855064915E+01 -0.53006279192E+02  0.64461797542E+02  0.41800000000E+01 0. -1.
        -11    1    3    3    0    0  0.16885700514E+02 -0.15818494260E+02  0.54087310288E+02  0.58828469101E+02  0.00000000000E+00 0.  1.
         11    1    3    3    0    0  0.37492389526E+02  0.30713117122E+02 -0.19980299028E+02  0.52423155046E+02  0.00000000000E+00 0. -1.
</event>
<event>
 7    1  0.4687179E-006  0.1066751E+03  0.7561462E-02  0.1266854E+00
          1   -1    0    0  501    0  0.00000000000E+00  0.00000000000E+00  0.74069988876E+03  0.74069988876E+03  0.00000000000E+00 0. -1.
         -1   -1    0    0    0  501 -0.00000000000E+00 -0.00000000000E+00 -0.18053772498E+02  0.18053772498E+02  0.00000000000E+00 0.  1.
         23    2    1    2    0    0 -0.31398328158E+02  0.21489304449E+02  0.28237027593E+03  0.29947466491E+03  0.92219612771E+02 0.  0.
          5    1    1    2  502    0 -0.23007507926E+02 -0.53297558068E+02  0.12702346466E+03  0.13972261124E+03  0.41800000000E+01 0. -1.
         -5    1    1    2    0  502  0.54405836084E+02  0.31808253618E+02  0.31325237567E+03  0.31955638510E+03  0.41800000000E+01 0. -1.
        -11    1    3    3    0    0  0.22030063642E+02  0.30684887246E+02  0.62579619062E+02  0.73096475505E+02  0.00000000000E+00 0.  1.
         11    1    3    3    0    0 -0.53428391800E+02 -0.91955827967E+01  0.21979065687E+03  0.22637818941E+03  0.00000000000E+00 0. -1.
</event>
<event>
 7    1  0.4687179E-006  0.9093073E+02  0.7561462E-02  0.1300613E+00
          3   -1    0    0  501    0  0.00000000000E+00  0.00000000000E+00  0.54944683706E+02  0.54944683706E+02  0.00000000000E+00 0. -1.
         -3   -1    0    0    0  501 -0.00000000000E+00 -0.00000000000E+00 -0.23709009466E+03  0.23709009466E+03  0.00000000000E+00 0.  1.
         23    2    1    2    0    0  0.13707169938E+02 -0.28970094301E+02 -0.75897300613E+02  0.12481310416E+03  0.93759041475E+02 0.  0.
          5    1    1    2  502    0  0.44254948732E+02  0.23867697027E+02 -0.54342436554E+01  0.50746141260E+02  0.41800000000E+01 0.  1.
         -5    1    1    2    0  502 -0.57962118670E+02  0.51023972738E+01 -0.10081386668E+03  0.11647553294E+03  0.41800000000E+01 0.  1.
        -11    1    3    3    0    0  0.39411550663E+02 -0.87612537891E+01  0.19058004425E+01  0.40418584450E+02  0.00000000000E+00 0.  1.
         11    1    3    3    0    0 -0.25704380725E+02 -0.20208840512E+02 -0.77803101055E+02  0.84394519710E+02  0.00000000000E+00 0. -1.
</event>
<event>
 7    1  0.4687179E-006  0.1584869E+03  0.7561462E-02  0.1190416E+00
          1   -1    0    0  501    0  0.00000000000E+00  0.00000000000E+00  0.28783485257E+03  0.28783485257E+03  0.00000000000E+00 0. -1.
         -1   -1    0    0    0  501 -0.00000000000E+00 -0.00000000000E+00 -0.11904280001E+03  0.11904280001E+03  0.00000000000E+00 0.  1.
         23    2    1    2    0    0 -0.13430663076E+03  0.36318863861E+02  0.19182161251E+02  0.16728637448E+03  0.90881487879E+02 0.  0.
          5    1    1    2  502    0  0.12757830234E+03 -0.48569201674E+02  0.16774791680E+03  0.21631464715E+03  0.41800000000E+01 0. -1.
         -5    1    1    2    0  502  0.67283284181E+01  0.12250337813E+02 -0.18138025484E+02  0.23276630948E+02  0.41800000000E+01 0. -1.
        -11    1    3    3    0    0 -0.87657270556E+02 -0.22731990206E+02  0.49017552635E+01  0.90689402163E+02  0.00000000000E+00 0.  1.
         11    1    3    3    0    0 -0.46649360207E+02  0.59050854067E+02  0.14280405988E+02  0.76596972322E+02  0.00000000000E+00 0. -1.
</event>
<event>
 7    1  0.4687179E-006  0.9914012E+02  0.7561462E-02  0.1282115E+00
         -2   -1    0    0    0  501 -0.00000000000E+00  0.00000000000E+00  0.17137391389E+03  0.17137391389E+03  0.00000000000E+00 0. -1.
          2   -1    0    0  501    0  0.00000000000E+00 -0.00000000000E+00 -0.11265144814E+03  0.11265144814E+03  0.00000000000E+00 0.  1.
         23    2    1    2    0    0 -0.95247583731E+01 -0.22207833835E+01 -0.56619854458E+02  0.11359534341E+03  0.97992046742E+02 0.  0.
          5    1    1    2  502    0 -0.47942580461E+02 -0.11622824199E+02  0.96138355145E+02  0.10813712033E+03  0.41800000000E+01 0.  1.
         -5    1    1    2    0  502  0.57467338835E+02  0.13843607582E+02  0.19203965062E+02  0.62292898293E+02  0.41800000000E+01 0.  1.
        -11    1    3    3    0    0 -0.24334400386E+02  0.38856712309E+02 -0.52552426312E+02  0.69740695758E+02  0.00000000000E+00 0. -1.
         11    1    3    3    0    0  0.14809642013E+02 -0.41077495693E+02 -0.40674281463E+01  0.43854647652E+02  0.00000000000E+00 0.  1.
</event>
<event>
 7    1  0.4687179E-006  0.9566144E+02  0.7561462E-02  0.1289693E+00
          2   -1    0    0  501    0  0.00000000000E+00  0.00000000000E+00  0.49270144107E+03  0.49270144107E+03  0.00000000000E+00 0. -1.
         -2   -1    0    0    0  501 -0.00000000000E+00 -0.00000000000E+00 -0.35048875350E+02  0.35048875350E+02  0.00000000000E+00 0.  1.
         23    2    1    2    0    0 -0.17566251696E+02  0.53345457730E+02  0.30103016044E+03  0.31958598835E+03  0.91442525108E+02 0.  0.
          5    1    1    2  502    0  0.18351255553E+02  0.12301305627E+02 -0.13180920021E+02  0.26063379542E+02  0.41800000000E+01 0. -1.
         -5    1    1    2    0  502 -0.78500385729E+00 -0.65646763357E+02  0.16980332531E+03  0.18210094853E+03  0.41800000000E+01 0. -1.
        -11    1    3    3    0    0 -0.42126952868E+02  0.63724236473E+02  0.25698963007E+03  0.26810283184E+03  0.00000000000E+00 0. -1.
         11    1    3    3    0    0  0.24560701172E+02 -0.10378778743E+02  0.44040530364E+02  0.51483156517E+02  0.00000000000E+00 0.  1.
</event>
<event>
 7    1  0.4687179E-006  0.9312812E+02  0.7561462E-02  0.1295449E+00
          2   -1    0    0  501    0  0.00000000000E+00  0.00000000000E+00  0.24291206832E+02  0.24291206832E+02  0.00000000000E+00 0. -1.
         -2   -1    0    0    0  501 -0.00000000000E+00 -0.00000000000E+00 -0.57988377176E+03  0.57988377176E+03  0.00000000000E+00 0.  1.
         23    2    1    2    0    0 -0.39056808488E+02  0.70738643708E+01 -0.10968816927E+03  0.13936124845E+03  0.76253453989E+02 0.  0.
          5    1    1    2  502    0  0.59781031260E+02 -0.31958425476E+02 -0.12505603406E+03  0.14230810487E+03  0.41800000000E+01 0.  1.
         -5    1    1    2    0  502 -0.20724222772E+02  0.24884561106E+02 -0.32084836159E+03  0.32250562527E+03  0.41800000000E+01 0.  1.
        -11    1    3    3    0    0 -0.16113526758E+02 -0.34570356334E+02 -0.43296833542E+02  0.57700702564E+02  0.00000000000E+00 0.  1.
         11    1    3    3    0    0 -0.22943281730E+02  0.41644220704E+02 -0.66391335730E+02  0.81660545887E+02  0.00000000000E+00 0. -1.
</event>
<event>
 7    1  0.4687179E-006  0.1407401E+03  0.7561462E-02  0.1212337E+00
         -2   -1    0    0    0  501 -0.00000000000E+00  0.00000000000E+00  0.77679571434E+02  0.77679571434E+02  0.00000000000E+00 0.  1.
          2   -1    0    0  501    0  0.00000000000E+00 -0.00000000000E+00 -0.34928492898E+03  0.34928492898E+03  0.00000000000E+00 0. -1.
         23    2    1    2    0    0 -0.10630975845E+03 -0.63654753982E+02 -0.10858457648E+03  0.18701346863E+03  0.88485788423E+02 0.  0.
          5    1    1    2  502    0 -0.99075708295E+01 -0.15381619599E+01  0.14390609265E+02  0.18030195146E+02  0.41800000000E+01 0. -1.
         -5    1    1    2    0  502  0.11621732928E+03  0.65192915942E+02 -0.17741139033E+03  0.22192083664E+03  0.41800000000E+01 0. -1.
        -11    1    3    3    0    0 -0.79032605302E+02 -0.13460081427E+02 -0.21743727881E+02  0.83066938038E+02  0.00000000000E+00 0.  1.
         11    1    3    3    0    0 -0.27277153151E+02 -0.50194672555E+02 -0.86840848596E+02  0.10394653059E+03  0.00000000000E+00 0. -1.
</event>
<event>
 7    1  0.5559477E-006  0.1486365E+03  0.7561462E-02  0.1202159E+00
          2   -1    0    0  501    0  0.00000000000E+00  0.00000000000E+00  0.82081802721E+03  0.82081802721E+03  0.00000000000E+00 0.  1.
         -2   -1    0    0    0  501 -0.00000000000E+00 -0.00000000000E+00 -0.39691940979E+02  0.39691940979E+02  0.00000000000E+00 0. -1.
         23    2    1    2    0    0  0.43970174404E+02  0.10911978485E+03  0.56536322102E+03  0.58475332886E+03  0.91980325338E+02 0.  0.
          5    1    1    2  502    0 -0.41461113994E+01 -0.10777634564E+03  0.20885871873E+03  0.23510076076E+03  0.41800000000E+01 0. -1.
         -5    1    1    2    0  502 -0.39824063004E+02 -0.13434392091E+01  0.69041464721E+01  0.40655878561E+02  0.41800000000E+01 0. -1.
        -11    1    3    3    0    0 -0.17084040529E+02  0.79676710015E+02  0.31715520764E+03  0.32745636090E+03  0.00000000000E+00 0. -1.
         11    1    3    3    0    0  0.61054214933E+02  0.29443074834E+02  0.24820801338E+03  0.25729696796E+03  0.00000000000E+00 0.  1.
</event>
<event>
 7    1  0.4687179E-006  0.1386010E+03  0.7561462E-02  0.1215224E+00
          1   -1    0    0  501    0  0.00000000000E+00  0.00000000000E+00  0.10218799463E+04  0.10218799463E+04  0.00000000000E+00 0. -1.
         -1   -1    0    0    0  501 -0.00000000000E+00 -0.00000000000E+00 -0.30222485990E+02  0.30222485990E+02  0.00000000000E+00 0.  1.
         23    2    1    2    0    0  0.99536411683E+02 -0.87038067344E+02  0.58089799559E+03  0.60281700105E+03  0.91993114148E+02 0.  0.
          5    1    1    2  502    0 -0.44049572704E+02  0.75309254068E+02  0.36776382095E+03  0.37799411240E+03  0.41800000000E+01 0.  1.
         -5    1    1    2    0  502 -0.55486838979E+02  0.11728813276E+02  0.42995643773E+02  0.71291318855E+02  0.41800000000E+01 0.  1.
        -11    1    3    3    0    0  0.17891406933E+02 -0.23490914084E+02  0.29293680782E+02  0.41593812284E+02  0.00000000000E+00 0.  1.
         11    1    3    3    0    0  0.81645004750E+02 -0.63547153260E+02  0.55160431481E+03  0.56122318876E+03  0.00000000000E+00 0. -1.
</event>
<event>
 7    1  0.4687179E-006  0.1347924E+03  0.7561462E-02  0.1220513E+00
          1   -1    0    0  501    0  0.00000000000E+00  0.00000000000E+00  0.66204212797E+03  0.66204212797E+03  0.00000000000E+00 0. -1.
         -1   -1    0    0    0  501 -0.00000000000E+00 -0.00000000000E+00 -0.33209837024E+02  0.33209837024E+02  0.00000000000E+00 0.  1.
         23    2    1    2    0    0 -0.80166849974E+02  0.57936538767E+01  0.43078555551E+03  0.44760407978E+03  0.91175255091E+02 0.  0.
          5    1    1    2  502    0  0.74614080521E+02 -0.58834409946E+02  0.13058349323E+03  0.16154958963E+03  0.41800000000E+01 0. -1.
         -5    1    1    2    0  502  0.55527694537E+01  0.53040756069E+02  0.67463242204E+02  0.86098295579E+02  0.41800000000E+01 0. -1.
        -11    1    3    3    0    0  0.15152169897E+02  0.19483569369E+02  0.10650537367E+03  0.10932791203E+03  0.00000000000E+00 0. -1.
         11    1    3    3    0    0 -0.95319019871E+02 -0.13689915493E+02  0.32428018183E+03  0.33827616775E+03  0.00000000000E+00 0.  1.
</event>
<event>
 7    1  0.4687179E-006  0.1270022E+03  0.7561462E-02  0.1231973E+00
         -3   -1    0    0    0  501 -0.00000000000E+00  0.00000000000E+00  0.18170449489E+03  0.18170449489E+03  0.00000000000E+00 0.  1.
          3   -1    0    0  501    0  0.00000000000E+00 -0.00000000000E+00 -0.11464970571E+03  0.11464970571E+03  0.00000000000E+00 0. -1.
         23    2    1    2    0    0  0.90852038826E+02  0.23510223860E+02  0.19483020671E+02  0.13290780139E+03  0.92076446446E+02 0.  0.
          5    1    1    2  502    0  0.26612014745E+02 -0.14524896176E+02 -0.10080662595E+02  0.32222105705E+02  0.41800000000E+01 0.  1.
         -5    1    1    2    0  502 -0.11746405357E+03 -0.89853276839E+01  0.57652431099E+02  0.13122429351E+03  0.41800000000E+01 0.  1.
        -11    1    3    3    0    0  0.24718772391E+02  0.30224317428E+02  0.46879773909E+02  0.61010165335E+02  0.00000000000E+00 0.  1.
         11    1    3    3    0    0  0.66133266434E+02 -0.67140935679E+01 -0.27396753238E+02  0.71897636050E+02  0.00000000000E+00 0. -1.
</event>
<event>
 7    1  0.7489907E-006  0.1124635E+03  0.7561462E-02  0.1256075E+00
         -2   -1    0    0    0  501 -0.00000000000E+00  0.00000000000E+00  0.64507640893E+02  0.64507640893E+02  0.00000000000E+00 0.  1.
          2   -1    0    0  501    0  0.00000000000E+00 -0.00000000000E+00 -0.35214060548E+03  0.35214060548E+03  0.00000000000E+00 0. -1.
         23    2    1    2    0    0 -0.75155486772E+02 -0.73186781294E+02 -0.15301779388E+03  0.20505144957E+03  0.87332694793E+02 0.  0.
          5    1    1    2  502    0  0.76349717216E+02  0.46521403301E+02 -0.17236260618E+02  0.91148677248E+02  0.41800000000E+01 0. -1.
         -5    1    1    2    0  502 -0.11942304439E+01  0.26665377992E+02 -0.11737891009E+03  0.12044811955E+03  0.41800000000E+01 0. -1.
        -11    1    3    3    0    0 -0.29416561763E+02 -0.11438883770E+02 -0.11512562481E+03  0.11937374777E+03  0.00000000000E+00 0. -1.
         11    1    3    3    0    0 -0.45738925009E+02 -0.61747897524E+02 -0.37892169065E+02  0.85677701802E+02  0.00000000000E+00 0.  1.
</event>
<event>
 7    1  0.4687179E-006  0.7969859E+02  0.7561462E-02  0.1329909E+00
         -1   -1    0    0    0  501 -0.00000000000E+00  0.00000000000E+00  0.14223706149E+03  0.14223706149E+03  0.00000000000E+00 0.  1.
          1   -1    0    0  501    0  0.00000000000E+00 -0.00000000000E+00 -0.13844912453E+03  0.13844912453E+03  0.00000000000E+00 0. -1.
         23    2    1    2    0    0 -0.87310032705E+01  0.12633534648E+02 -0.88341940546E+02  0.12457476486E+03  0.86479691051E+02 0.  0.
          5    1    1    2  502    0 -0.49861400490E+02 -0.74684670006E+01  0.81896073021E+02  0.96262019688E+02  0.41800000000E+01 0. -1.
         -5    1    1    2    0  502  0.58592403761E+02 -0.51650676479E+01  0.10233804492E+02  0.59849401473E+02  0.41800000000E+01 0. -1.
        -11    1    3    3    0    0  0.16022168014E+02 -0.77264802374E+01  0.10507222303E+02  0.20659382500E+02  0.00000000000E+00 0.  1.
         11    1    3    3    0    0 -0.24753171285E+02  0.20360014886E+02 -0.98849162849E+02  0.10391538236E+03  0.00000000000E+00 0. -1.
</event>
<event>
 7    1  0.4687179E-006  0.1690348E+03  0.7561462E-02  0.1178858E+00
         -3   -1    0    0    0  501 -0.00000000000E+00  0.00000000000E+00  0.50544677293E+02  0.50544677293E+02  0.00000000000E+00 0.  1.
          3   -1    0    0  501    0  0.00000000000E+00 -0.00000000000E+00 -0.64723244648E+03  0.64723244648E+03  0.00000000000E+00 0. -1.
         23    2    1    2    0    0  0.78176648627E+02 -0.12050719146E+03 -0.30401590889E+03  0.34858174686E+03  0.91923826081E+02 0.  0.
          5    1    1    2  502    0 -0.15795463472E+02  0.10588114758E+03 -0.10170017114E+03  0.14771835122E+03  0.41800000000E+01 0.  1.
         -5    1    1    2    0  502 -0.62381185155E+02  0.14626043877E+02 -0.19097168916E+03  0.20147702569E+03  0.41800000000E+01 0.  1.
        -11    1    3    3    0    0  0.78971843855E+02 -0.44366067522E+02 -0.20110472714E+03  0.22056294192E+03  0.00000000000E+00 0.  1.
         11    1    3    3    0    0 -0.79519522789E+00 -0.76141123933E+02 -0.10291118175E+03  0.12801880494E+03  0.00000000000E+00 0. -1.
</event>
<event>
 7    1  0.4687179E-006  0.1270266E+03  0.7561462E-02  0.1231936E+00
         -1   -1    0    0    0  501 -0.00000000000E+00  0.00000000000E+00  0.38994928214E+02  0.38994928214E+02  0.00000000000E+00 0.  1.
          1   -1    0    0  501    0  0.00000000000E+00 -0.00000000000E+00 -0.48805211011E+03  0.48805211011E+03  0.00000000000E+00 0. -1.
         23    2    1    2    0    0  0.76051249338E+02 -0.14752755167E+02 -0.26952078524E+03  0.29492098954E+03  0.91298959928E+02 0.  0.
          5    1    1    2  502    0 -0.90329531046E+02 -0.28215441726E+02 -0.15159297946E+03  0.17875524930E+03  0.41800000000E+01 0. -1.
         -5    1    1    2    0  502  0.14278281708E+02  0.42968196893E+02 -0.27943417189E+02  0.53370799478E+02  0.41800000000E+01 0. -1.
        -11    1    3    3    0    0  0.19752726281E+02 -0.45575865711E+02 -0.73921509744E+02  0.89060200616E+02  0.00000000000E+00 0. -1.
         11    1    3    3    0    0  0.56298523057E+02  0.30823110544E+02 -0.19559927550E+03  0.20586078893E+03  0.00000000000E+00 0.  1.
</event>
<event>
 7    1  0.4687179E-006  0.1549857E+03  0.7561462E-02  0.1194477E+00
         -1   -1    0    0    0  501 -0.00000000000E+00  0.00000000000E+00  0.93597481731E+02  0.93597481731E+02  0.00000000000E+00 0.  1.
          1   -1    0    0  501    0  0.00000000000E+00 -0.00000000000E+00 -0.29015856640E+03  0.29015856640E+03  0.00000000000E+00 0. -1.
         23    2    1    2    0    0  0.10152723109E+03  0.45221317620E+02 -0.15554230674E+03  0.21146974605E+03  0.90406294507E+02 0.  0.
          5    1    1    2  502    0 -0.11714087365E+03  0.20998402138E+01 -0.26124308979E+02  0.12010972288E+03  0.41800000000E+01 0.  1.
         -5    1    1    2    0  502  0.15613642561E+02 -0.47321157833E+02 -0.14894468951E+02  0.52176579210E+02  0.41800000000E+01 0.  1.
        -11    1    3    3    0    0  0.57791522644E+02  0.71324087617E+02 -0.91100451002E+02  0.12933011148E+03  0.00000000000E+00 0. -1.
         11    1    3    3    0    0  0.43735708451E+02 -0.26102769997E+02 -0.64441855737E+02  0.82139634563E+02  0.00000000000E+00 0.  1.
</event>
<event>
 7    1  0.4687179E-006  0.1038589E+03  0.7561462E-02  0.1272384E+00
         -2   -1    0    0    0  501 -0.00000000000E+00  0.00000000000E+00  0.45200181771E+02  0.45200181771E+02  0.00000000000E+00 0.  1.
          2   -1    0    0  501    0  0.00000000000E+00 -0.00000000000E+00 -0.35461411260E+03  0.35461411260E+03  0.00000000000E+00 0. -1.
         23    2    1    2    0    0 -0.63099477938E+02 -0.53626800960E+01 -0.15065768422E+03  0.18800822854E+03  0.92946510047E+02 0.  0.
          5    1    1    2  502    0  0.72916771073E+02 -0.34541704519E+02 -0.48894977536E+02  0.94436095234E+02  0.41800000000E+01 0.  1.
         -5    1    1    2    0  502 -0.98172931348E+01  0.39904384615E+02 -0.10986126907E+03  0.11736997060E+03  0.41800000000E+01 0.  1.
        -11    1    3    3    0    0 -0.24154767970E+02 -0.30770622309E+02 -0.10740570820E+02  0.40566536388E+02  0.00000000000E+00 0.  1.
         11    1    3    3    0    0 -0.38944709968E+02  0.25407942213E+02 -0.13991711340E+03  0.14744169215E+03  0.00000000000E+00 0. -1.
</event>
<event>
 7    1  0.4687179E-006  0.1254431E+03  0.7561462E-02  0.1234378E+00
          1   -1    0    0  501    0  0.00000000000E+00  0.00000000000E+00  0.70746024396E+03  0.70746024396E+03  0.00000000000E+00 0. -1.
         -1   -1    0    0    0  501 -0.00000000000E+00 -0.00000000000E+00 -0.25546270061E+02  0.25546270061E+02  0.00000000000E+00 0.  1.
         23    2    1    2    0    0  0.69308442896E+02 -0.38485972903E+02  0.29986878124E+03  0.32326080711E+03  0.91057306587E+02 0.  0.
          5    1    1    2  502    0 -0.88195038229E+01 -0.38634117005E+02  0.18956047095E+03  0.19370344135E+03  0.41800000000E+01 0.  1.
         -5    1    1    2    0  502 -0.60488939073E+02  0.77120089908E+02  0.19248472171E+03  0.21604226556E+03  0.41800000000E+01 0.  1.
        -11    1    3    3    0    0 -0.15550768124E+02  0.65424786502E+01  0.10106155629E+03  0.10246008284E+03  0.00000000000E+00 0. -1.
         11    1    3    3    0    0  0.84859211020E+02 -0.45028451553E+02  0.19880722494E+03  0.22080072426E+03  0.00000000000E+00 0.  1.
</event>
<event>
 7    1  0.4687179E-006  0.1415280E+03  0.7561462E-02  0.1211288E+00
         -3   -1    0    0    0  501 -0.00000000000E+00  0.00000000000E+00  0.17193165678E+04  0.17193165678E+04  0.00000000000E+00 0.  1.
          3   -1    0    0  501    0  0.00000000000E+00 -0.00000000000E+00 -0.53108929676E+02  0.53108929676E+02  0.00000000000E+00 0. -1.
         23    2    1    2    0    0  0.99737673383E+02  0.76760821423E+02  0.77780492888E+02  0.17423005720E+03  0.92013480319E+02 0.  0.
          5    1    1    2  502    0 -0.46814134888E+02 -0.21001502661E+02  0.16863786406E+03  0.17632024255E+03  0.41800000000E+01 0. -1.
         -5    1    1    2    0  502 -0.52923538496E+02 -0.55759318763E+02  0.14197892811E+04  0.14218751977E+04  0.41800000000E+01 0.  1.
        -11    1    3    3    0    0  0.66225649085E+02 -0.48103153038E+01  0.44693856263E+02  0.80040717874E+02  0.00000000000E+00 0.  1.
         11    1    3    3    0    0  0.33512024298E+02  0.81571136727E+02  0.33086636625E+02  0.94189339326E+02  0.00000000000E+00 0. -1.
</event>
<event>
 7    1  0.4687179E-006  0.4016186E+03  0.7561462E-02  0.1043221E+00
          2   -1    0    0  501    0  0.00000000000E+00  0.00000000000E+00  0.36207305554E+03  0.36207305554E+03  0.00000000000E+00 0. -1.
         -2   -1    0    0    0  501 -0.00000000000E+00 -0.00000000000E+00 -0.93003080592E+03  0.93003080592E+03  0.00000000000E+00 0.  1.
         23    2    1    2    0    0  0.38309782862E+03  0.57248131092E+02  0.18286752374E+03  0.43803879637E+03  0.91630568486E+02 0.  0.
          5    1    1    2  502    0 -0.38327912600E+03 -0.35545957774E+02 -0.71024226561E+03  0.80785391736E+03  0.41800000000E+01 0.  1.
         -5    1    1    2    0  502  0.18129737637E+00 -0.21702173318E+02 -0.40583008499E+02  0.46211147727E+02  0.41800000000E+01 0.  1.
        -11    1    3    3    0    0  0.17349582733E+03  0.67916552491E+02  0.10712058051E+03  0.21491458530E+03  0.00000000000E+00 0.  1.
         11    1    3    3    0    0  0.20960200129E+03 -0.10668421399E+02  0.75746943221E+02  0.22312421107E+03  0.00000000000E+00 0. -1.
</event>
<event>
 7    1  0.4687179E-006  0.1125724E+03  0.7561462E-02  0.1255879E+00
         -1   -1    0    0    0  501 -0.00000000000E+00  0.00000000000E+00  0.79852000275E+03  0.79852000275E+03  0.00000000000E+00 0.  1.
          1   -1    0    0  501    0  0.00000000000E+00 -0.00000000000E+00 -0.32976375999E+02  0.32976375999E+02  0.00000000000E+00 0. -1.
         23    2    1    2    0    0  0.76646033011E+02  0.61373756643E+01  0.12103997700E+03  0.17047881836E+03  0.92195822678E+02 0.  0.
          5    1    1    2  502    0 -0.67355045644E+02 -0.60086900583E+02  0.44600239517E+03  0.45506345348E+03  0.41800000000E+01 0.  1.
         -5    1    1    2    0  502 -0.92909873679E+01  0.53949524918E+02  0.19850125458E+03  0.20595410691E+03  0.41800000000E+01 0.  1.
        -11    1    3    3    0    0  0.69454468716E+02 -0.13961702528E+01  0.13572807895E+03  0.15247289573E+03  0.00000000000E+00 0.  1.
         11    1    3    3    0    0  0.71915642955E+01  0.75335459171E+01 -0.14688101945E+02  0.18005922632E+02  0.00000000000E+00 0. -1.
</event>
<event>
 7    1  0.4687179E-006  0.1217332E+03  0.7561462E-02  0.1240265E+00
          1   -1    0    0  501    0  0.00000000000E+00  0.00000000000E+00  0.70422722693E+02  0.70422722693E+02  0.00000000000E+00 0. -1.
         -1   -1    0    0    0  501 -0.00000000000E+00 -0.00000000000E+00 -0.29229640659E+03  0.29229640659E+03  0.00000000000E+00 0.  1.
         23    2    1    2    0    0  0.51538594060E+01 -0.24054547090E+02 -0.16596466445E+01  0.92179326435E+02  0.88820551070E+02 0.  0.
          5    1    1    2  502    0 -0.51522858521E+02 -0.48239608795E+02 -0.10974153381E+03  0.13054631918E+03  0.41800000000E+01 0. -1.
         -5    1    1    2    0  502  0.46368999115E+02  0.72294155885E+02 -0.11047250344E+03  0.13999348367E+03  0.41800000000E+01 0.  1.
        -11    1    3    3    0    0 -0.30404972464E+02  0.15044170536E+02 -0.15870195447E+02  0.37452002900E+02  0.00000000000E+00 0. -1.
         11    1    3    3    0    0  0.35558831870E+02 -0.39098717627E+02  0.14210548803E+02  0.54727323535E+02  0.00000000000E+00 0.  1.
</event>
<event>
 7    1  0.4687179E-006  0.1126154E+03  0.7561462E-02  0.1255802E+00
         -2   -1    0    0    0  501 -0.00000000000E+00  0.00000000000E+00  0.56587907394E+02  0.56587907394E+02  0.00000000000E+00 0.  1.
          2   -1    0    0  501    0  0.00000000000E+00 -0.00000000000E+00 -0.31730653219E+03  0.31730653219E+03  0.00000000000E+00 0. -1.
         23    2    1    2    0    0 -0.13204531248E+02  0.76284288974E+02 -0.97022577551E+02  0.15380859011E+03  0.90829782818E+02 0.  0.
          5    1    1    2  502    0  0.15813898589E+02  0.33361523801E+02 -0.36545662504E+02  0.52116489778E+02  0.41800000000E+01 0. -1.
         -5    1    1    2    0  502 -0.26093673401E+01 -0.10964581278E+03 -0.12715038474E+03  0.16796935969E+03  0.41800000000E+01 0. -1.
        -11    1    3    3    0    0 -0.59694797900E+01  0.62190655281E+02 -0.75346545294E+01  0.62929192845E+02  0.00000000000E+00 0.  1.
         11    1    3    3    0    0 -0.72350514585E+01  0.14093633693E+02 -0.89487923022E+02  0.90879397264E+02  0.00000000000E+00 0. -1.
</event>
<event>
 7    1  0.4687179E-006  0.9560444E+02  0.7561462E-02  0.1289821E+00
         -3   -1    0    0    0  501 -0.00000000000E+00  0.00000000000E+00  0.54078889510E+03  0.54078889510E+03  0.00000000000E+00 0.  1.
          3   -1    0    0  501    0  0.00000000000E+00 -0.00000000000E+00 -0.21900293335E+02  0.21900293335E+02  0.00000000000E+00 0. -1.
         23    2    1    2    0    0 -0.80985052703E+01  0.21956927320E+02  0.19122641394E+03  0.21322822517E+03  0.91384036780E+02 0.  0.
          5    1    1    2  502    0  0.48829416301E+02 -0.27080210820E+02  0.28367633030E+03  0.28914941205E+03  0.41800000000E+01 0. -1.
         -5    1    1    2    0  502 -0.40730911031E+02  0.51232835008E+01  0.43985857521E+02  0.60311551208E+02  0.41800000000E+01 0.  1.
        -11    1    3    3    0    0 -0.46011048881E+02  0.30353682570E+02  0.12148021778E+03  0.13340092195E+03  0.00000000000E+00 0.  1.
         11    1    3    3    0    0  0.37912543611E+02 -0.83967552501E+01  0.69746196157E+02  0.79827303225E+02  0.00000000000E+00 0. -1.
</event>
<event>
 7    1  0.4687179E-006  0.1257507E+03  0.7561462E-02  0.1233901E+00
          2   -1    0    0  501    0  0.00000000000E+00  0.00000000000E+00  0.94261558532E+02  0.94261558532E+02  0.00000000000E+00 0.  1.
         -2   -1    0    0    0  501 -0.00000000000E+00 -0.00000000000E+00 -0.20407416739E+03  0.20407416739E+03  0.00000000000E+00 0. -1.
         23    2    1    2    0    0 -0.28343451683E+02  0.81616018099E+02 -0.39400190379E+02  0.13079535604E+03  0.89947342910E+02 0.  0.
          5    1    1    2  502    0  0.61617348221E+02 -0.36654953580E+02  0.67628283166E+01  0.72135230440E+02  0.41800000000E+01 0. -1.
         -5    1    1    2    0  502 -0.33273896539E+02 -0.44961064519E+02 -0.77175246797E+02  0.95405139441E+02  0.41800000000E+01 0. -1.
        -11    1    3    3    0    0 -0.52138957602E+02  0.17167539351E+02 -0.26253728441E+02  0.60847790135E+02  0.00000000000E+00 0.  1.
         11    1    3    3    0    0  0.23795505919E+02  0.64448478748E+02 -0.13146461938E+02  0.69947565908E+02  0.00000000000E+00 0. -1.
</event>
<event>
 7    1  0.4687179E-006  0.2598076E+03  0.7561462E-02  0.1107259E+00
          2   -1    0    0  501    0  0.00000000000E+00  0.00000000000E+00  0.54756857806E+02  0.54756857806E+02  0.00000000000E+00 0. -1.
         -2   -1    0    0    0  501 -0.00000000000E+00 -0.00000000000E+00 -0.13264873981E+04  0.13264873981E+04  0.00000000000E+00 0.  1.
         23    2    1    2    0    0  0.20654518489E+03  0.13340198557E+03 -0.64123879025E+03  0.69304054859E+03  0.93064562049E+02 0.  0.
          5    1    1    2  502    0 -0.18713375731E+03 -0.63354655563E+02 -0.51575085045E+03  0.55231265389E+03  0.41800000000E+01 0.  1.
         -5    1    1    2    0  502 -0.19411427579E+02 -0.70047330010E+02 -0.11474089957E+03  0.13589105341E+03  0.41800000000E+01 0.  1.
        -11    1    3    3    0    0  0.14440399508E+03  0.70204087949E+02 -0.29755779312E+03  0.33811502186E+03  0.00000000000E+00 0.  1.
         11    1    3    3    0    0  0.62141189806E+02  0.63197897624E+02 -0.34368099714E+03  0.35492552674E+03  0.00000000000E+00 0. -1.
</event>
<event>
 7    1  0.4687179E-006  0.3362996E+03  0.7561462E-02  0.1068383E+00
         -2   -1    0    0    0  501 -0.00000000000E+00  0.00000000000E+00  0.24909747051E+03  0.24909747051E+03  0.00000000000E+00 0.  1.
          2   -1    0    0  501    0  0.00000000000E+00 -0.00000000000E+00 -0.48447811540E+03  0.48447811540E+03  0.00000000000E+00 0. -1.
         23    2    1    2    0    0  0.14107875616E+02  0.32940332690E+03 -0.12559343302E+03  0.36424248760E+03  0.90516823998E+02 0.  0.
          5    1    1    2  502    0  0.98431540598E+01 -0.25430719209E+03 -0.28657011936E+02  0.25614006396E+03  0.41800000000E+01 0.  1.
         -5    1    1    2    0  502 -0.23951029676E+02 -0.75096134807E+02 -0.81130199939E+02  0.11319303436E+03  0.41800000000E+01 0.  1.
        -11    1    3    3    0    0 -0.23015518112E+02  0.31972482936E+02 -0.36713065816E+00  0.39396554722E+02  0.00000000000E+00 0.  1.
         11    1    3    3    0    0  0.37123393728E+02  0.29743084396E+03 -0.12522630236E+03  0.32484593287E+03  0.00000000000E+00 0. -1.
</event>
<event>
 7    1  0.4687179E-006  0.1732403E+03  0.7561462E-02  0.1174510E+00
         -2   -1    0    0    0  501 -0.00000000000E+00  0.00000000000E+00  0.51517823379E+02  0.51517823379E+02  0.00000000000E+00 0.  1.
          2   -1    0    0  501    0  0.00000000000E+00 -0.00000000000E+00 -0.83206077513E+03  0.83206077513E+03  0.00000000000E+00 0. -1.
         23    2    1    2    0    0 -0.67349458574E+02 -0.14594124943E+03 -0.52548807669E+03  0.55718264582E+03  0.92086829688E+02 0.  0.
          5    1    1    2  502    0  0.15507436549E+02  0.70741952357E+01  0.11772166095E+02  0.21132466044E+02  0.41800000000E+01 0. -1.
         -5    1    1    2    0  502  0.51842022025E+02  0.13886705419E+03 -0.26682704115E+03  0.30526348664E+03  0.41800000000E+01 0. -1.
        -11    1    3    3    0    0 -0.83353098221E+02 -0.14117433066E+03 -0.42897710125E+03  0.45923772060E+03  0.00000000000E+00 0.  1.
         11    1    3    3    0    0  0.16003639647E+02 -0.47669187678E+01 -0.96510975435E+02  0.97944925218E+02  0.00000000000E+00 0. -1.
</event>
<event>
 7    1  0.4687179E-006  0.1443333E+03  0.7561462E-02  0.1207614E+00
          2   -1    0    0  501    0  0.00000000000E+00  0.00000000000E+00  0.26013799944E+03  0.26013799944E+03  0.00000000000E+00 0. -1.
         -2   -1    0    0    0  501 -0.00000000000E+00 -0.00000000000E+00 -0.10071460750E+03  0.10071460750E+03  0.00000000000E+00 0.  1.
         23    2    1    2    0    0 -0.11191617758E+03 -0.39955019476E+02  0.90626280326E+02  0.17510700348E+03  0.91256263332E+02 0.  0.
          5    1    1    2  502    0  0.15697637724E+02  0.39576301816E+02 -0.26446173132E+02  0.50294850321E+02  0.41800000000E+01 0.  1.
         -5    1    1    2    0  502  0.96218539854E+02  0.37871766046E+00  0.95243284739E+02  0.13545075314E+03  0.41800000000E+01 0.  1.
        -11    1    3    3    0    0 -0.23975381491E+01  0.23085546143E+02  0.17871926312E+02  0.29293282165E+02  0.00000000000E+00 0. -1.
         11    1    3    3    0    0 -0.10951863943E+03 -0.63040565620E+02  0.72754354014E+02  0.14581372132E+03  0.00000000000E+00 0.  1.
</event>
<event>
 7    1  0.4687179E-006  0.1162928E+03  0.7561462E-02  0.1249341E+00
          4   -1    0    0  501    0  0.00000000000E+00  0.00000000000E+00  0.53795265982E+02  0.53795265982E+02  0.00000000000E+00 0. -1.
         -4   -1    0    0    0  501 -0.00000000000E+00 -0.00000000000E+00 -0.35532746665E+03  0.35532746665E+03  0.00000000000E+00 0.  1.
         23    2    1    2    0    0 -0.71386789552E+02  0.27603562031E+02 -0.76813801074E+02  0.14078690875E+03  0.89791777363E+02 0.  0.
          5    1    1    2  502    0 -0.11589456147E+02 -0.51496796403E+02 -0.12852246642E+03  0.13900263417E+03  0.41800000000E+01 0.  1.
         -5    1    1    2    0  502  0.82976245698E+02  0.23893234372E+02 -0.96195933179E+02  0.12933318970E+03  0.41800000000E+01 0.  1.
        -11    1    3    3    0    0 -0.18106237393E+02 -0.16135395219E+02 -0.66878927973E+02  0.71140549746E+02  0.00000000000E+00 0.  1.
         11    1    3    3    0    0 -0.53280552159E+02  0.43738957249E+02 -0.99348731010E+01  0.69646359008E+02  0.00000000000E+00 0. -1.
</event>
<event>
 7    1  0.4687179E-006  0.1156967E+03  0.7561462E-02  0.1250370E+00
          1   -1    0    0  501    0  0.00000000000E+00  0.00000000000E+00  0.55283892372E+03  0.55283892372E+03  0.00000000000E+00 0. -1.
         -1   -1    0    0    0  501 -0.00000000000E+00 -0.00000000000E+00 -0.33162056322E+02  0.33162056322E+02  0.00000000000E+00 0.  1.
         23    2    1    2    0    0 -0.80719197389E+01 -0.75807899599E+02  0.29475787824E+03  0.31758179428E+03  0.90354832438E+02 0.  0.
          5    1    1    2  502    0  0.35377722313E+02 -0.22407344325E+02  0.45197043889E+02  0.61756922625E+02  0.41800000000E+01 0.  1.
         -5    1    1    2    0  502 -0.27305802574E+02  0.98215243924E+02  0.17972194527E+03  0.20666226314E+03  0.41800000000E+01 0.  1.
        -11    1    3    3    0    0 -0.20611221790E+02 -0.15778540763E+02  0.12632071551E+02  0.28867872176E+02  0.00000000000E+00 0.  1.
         11    1    3    3    0    0  0.12539302051E+02 -0.60029358835E+02  0.28212580668E+03  0.28871392210E+03  0.00000000000E+00 0. -1.
</event>
<event>
 7    1  0.4687179E-006  0.1552502E+03  0.7561462E-02  0.1194166E+00
         -2   -1    0    0    0  501 -0.00000000000E+00  0.00000000000E+00  0.45147067185E+02  0.45147067185E+02  0.00000000000E+00 0. -1.
          2   -1    0    0  501    0  0.00000000000E+00 -0.00000000000E+00 -0.60441203112E+03  0.60441203112E+03  0.00000000000E+00 0.  1.
         23    2    1    2    0    0  0.12342535042E+03  0.33984768368E+02 -0.26718525671E+03  0.30699973674E+03  0.80449334024E+02 0.  0.
          5    1    1    2  502    0 -0.71793263474E+02  0.41201442161E+02 -0.99986163223E+02  0.12987123143E+03  0.41800000000E+01 0.  1.
         -5    1    1    2    0  502 -0.51632086945E+02 -0.75186210529E+02 -0.19209354400E+03  0.21268813014E+03  0.41800000000E+01 0.  1.
        -11    1    3    3    0    0  0.69167890928E+02 -0.52377829590E+01 -0.20191781787E+03  0.21350043719E+03  0.00000000000E+00 0.  1.
         11    1    3    3    0    0  0.54257459491E+02  0.39222551327E+02 -0.65267438838E+02  0.93499299546E+02  0.00000000000E+00 0. -1.
</event>
<event>
 7    1  0.4687179E-006  0.1139140E+03  0.7561462E-02  0.1253489E+00
         -2   -1    0    0    0  501 -0.00000000000E+00  0.00000000000E+00  0.67668683057E+02  0.67668683057E+02  0.00000000000E+00 0. -1.
          2   -1    0    0  501    0  0.00000000000E+00 -0.00000000000E+00 -0.40140683341E+03  0.40140683341E+03  0.00000000000E+00 0.  1.
         23    2    1    2    0    0 -0.40247508899E+02 -0.10596634569E+03 -0.22591762645E+03  0.26876641293E+03  0.91366746613E+02 0.  0.
          5    1    1    2  502    0  0.12412277067E+02  0.49509671417E+02 -0.12486792866E+03  0.13496201018E+03  0.41800000000E+01 0.  1.
         -5    1    1    2    0  502  0.27835231832E+02  0.56456674274E+02  0.17047404752E+02  0.65347093356E+02  0.41800000000E+01 0.  1.
        -11    1    3    3    0    0 -0.32210425633E+02 -0.76887015170E+02 -0.66828295059E+02  0.10684168494E+03  0.00000000000E+00 0. -1.
         11    1    3    3    0    0 -0.80370832661E+01 -0.29079330522E+02 -0.15908933139E+03  0.16192472798E+03  0.00000000000E+00 0.  1.
</event>
<event>
 7    1  0.4687179E-006  0.1057323E+03  0.7561462E-02  0.1268683E+00
         -2   -1    0    0    0  501 -0.00000000000E+00  0.00000000000E+00  0.38900789173E+02  0.38900789173E+02  0.00000000000E+00 0.  1.
          2   -1    0    0  501    0  0.00000000000E+00 -0.00000000000E+00 -0.50102399717E+03  0.50102399717E+03  0.00000000000E+00 0. -1.
         23    2    1    2    0    0 -0.45156557330E+02  0.32280658778E+02 -0.34298976735E+03  0.35848116458E+03  0.88236099467E+02 0.  0.
          5    1    1    2  502    0 -0.21494092296E+02  0.26929114885E+02 -0.28037590739E+01  0.34821066857E+02  0.41800000000E+01 0. -1.
         -5    1    1    2    0  502  0.66650649626E+02 -0.59209773663E+02 -0.11632968157E+03  0.14662255491E+03  0.41800000000E+01 0. -1.
        -11    1    3    3    0    0 -0.38647357391E+01 -0.20291998483E+02 -0.20380003197E+02  0.29018027416E+02  0.00000000000E+00 0.  1.
         11    1    3    3    0    0 -0.41291821591E+02  0.52572657262E+02 -0.32260976415E+03  0.32946313716E+03  0.00000000000E+00 0. -1.
</event>
<event>
 7    1  0.4687179E-006  0.1028016E+03  0.7561462E-02  0.1274512E+00
          2   -1    0    0  501    0  0.00000000000E+00  0.00000000000E+00  0.49746968849E+02  0.49746968849E+02  0.00000000000E+00 0. -1.
         -2   -1    0    0    0  501 -0.00000000000E+00 -0.00000000000E+00 -0.24387952043E+03  0.24387952043E+03  0.00000000000E+00 0.  1.
         23    2    1    2    0    0 -0.15811769289E+02  0.96553155454E+01 -0.90270748359E+02  0.12999204829E+03  0.91683626912E+02 0.  0.
          5    1    1    2  502    0  0.22979988880E+02 -0.58604406661E+02 -0.20005985891E+02  0.66183594950E+02  0.41800000000E+01 0.  1.
         -5    1    1    2    0  502 -0.71682195907E+01  0.48949091115E+02 -0.83855817327E+02  0.97450846034E+02  0.41800000000E+01 0.  1.
        -11    1    3    3    0    0 -0.45219334389E+02 -0.21461749048E+02 -0.56336694114E+02  0.75360586373E+02  0.00000000000E+00 0.  1.
         11    1    3    3    0    0  0.29407565100E+02  0.31117064593E+02 -0.33934054246E+02  0.54631461920E+02  0.00000000000E+00 0. -1.
</event>
<event>
 7    1  0.4687179E-006  0.1710649E+03  0.7561462E-02  0.1176742E+00
          1   -1    0    0  501    0  0.00000000000E+00  0.00000000000E+00  0.10723769210E+04  0.10723769210E+04  0.00000000000E+00 0.  1.
         -1   -1    0    0    0  501 -0.00000000000E+00 -0.00000000000E+00 -0.32630262312E+02  0.32630262312E+02  0.00000000000E+00 0. -1.
         23    2    1    2    0    0  0.13562794315E+03  0.10016920235E+02  0.69520651668E+03  0.71404520202E+03  0.89739467570E+02 0.  0.
          5    1    1    2  502    0 -0.26619811579E+01 -0.42108428203E+02  0.12765774359E+03  0.13451460057E+03  0.41800000000E+01 0.  1.
         -5    1    1    2    0  502 -0.13296596199E+03  0.32091507968E+02  0.21688239841E+03  0.25644738071E+03  0.41800000000E+01 0.  1.
        -11    1    3    3    0    0  0.14073407388E+03 -0.11087153444E+02  0.60860430820E+03  0.62476252167E+03  0.00000000000E+00 0.  1.
         11    1    3    3    0    0 -0.51061307342E+01  0.21104073680E+02  0.86602208481E+02  0.89282680351E+02  0.00000000000E+00 0. -1.
</event>
<event>
 7    1  0.4687179E-006  0.1769731E+03  0.7561462E-02  0.1170765E+00
          1   -1    0    0  501    0  0.00000000000E+00  0.00000000000E+00  0.15319338472E+03  0.15319338472E+03  0.00000000000E+00 0. -1.
         -1   -1    0    0    0  501 -0.00000000000E+00 -0.00000000000E+00 -0.26006852959E+03  0.26006852959E+03  0.00000000000E+00 0.  1.
         23    2    1    2    0    0  0.99747904075E+02  0.98813466424E+02  0.40855506257E+02  0.17412617777E+03  0.94535749207E+02 0.  0.
          5    1    1    2  502    0 -0.42401669806E+02 -0.11954596120E+03 -0.10101580625E+03  0.16220605400E+03  0.41800000000E+01 0.  1.
         -5    1    1    2    0  502 -0.57346234270E+02  0.20732494777E+02 -0.46714844878E+02  0.76929682546E+02  0.41800000000E+01 0.  1.
        -11    1    3    3    0    0  0.14915625382E+02  0.76848476782E+02  0.36538957631E+02  0.86390159677E+02  0.00000000000E+00 0.  1.
         11    1    3    3    0    0  0.84832278693E+02  0.21964989642E+02  0.43165486264E+01  0.87736018090E+02  0.00000000000E+00 0. -1.
</event>
<event>
 7    1  0.4687179E-006  0.6958233E+02  0.7561462E-02  0.1361519E+00
         -1   -1    0    0    0  501 -0.00000000000E+00  0.00000000000E+00  0.17414024575E+02  0.17414024575E+02  0.00000000000E+00 0.  1.
          1   -1    0    0  501    0  0.00000000000E+00 -0.00000000000E+00 -0.77751746305E+03  0.77751746305E+03  0.00000000000E+00 0. -1.
         23    2    1    2    0    0 -0.24825187218E+02  0.33381184943E+02 -0.37567115764E+03  0.38852451332E+03  0.89954907235E+02 0.  0.
          5    1    1    2  502    0  0.12214791281E+02 -0.42416532729E+02 -0.38751855230E+03  0.39004674611E+03  0.41800000000E+01 0.  1.
         -5    1    1    2    0  502  0.12610395937E+02  0.90353477862E+01  0.30862714608E+01  0.16360228202E+02  0.41800000000E+01 0.  1.
        -11    1    3    3    0    0  0.19281801616E+02 -0.54054693150E+01 -0.20979194248E+02  0.29002302726E+02  0.00000000000E+00 0.  1.
         11    1    3    3    0    0 -0.44106988834E+02  0.38786654258E+02 -0.35469196339E+03  0.35952221059E+03  0.00000000000E+00 0. -1.
</event>
<event>
 7    1  0.4687179E-006  0.1005041E+03  0.7561462E-02  0.1279239E+00
         -1   -1    0    0    0  501 -0.00000000000E+00  0.00000000000E+00  0.23113961928E+02  0.23113961928E+02  0.00000000000E+00 0.  1.
          1   -1    0    0  501    0  0.00000000000E+00 -0.00000000000E+00 -0.55238544374E+03  0.55238544374E+03  0.00000000000E+00 0. -1.
         23    2    1    2    0    0 -0.57687992539E+01  0.18433650363E+02 -0.29607566086E+03  0.31016660666E+03  0.90385001094E+02 0.  0.
          5    1    1    2  502    0  0.19022856595E+02 -0.69689081786E+02 -0.15149899374E+03  0.16789239023E+03  0.41800000000E+01 0. -1.
         -5    1    1    2    0  502 -0.13254057342E+02  0.51255431422E+02 -0.81696827214E+02  0.97440408780E+02  0.41800000000E+01 0. -1.
        -11    1    3    3    0    0 -0.29529523618E+02 -0.16092976276E+02 -0.48200583569E+02  0.58773062766E+02  0.00000000000E+00 0.  1.
         11    1    3    3    0    0  0.23760724364E+02  0.34526626639E+02 -0.24787507729E+03  0.25139354390E+03  0.00000000000E+00 0. -1.
</event>
<event>
 7    1  0.4687179E-006  0.1598968E+03  0.7561462E-02  0.1188813E+00
          2   -1    0    0  501    0  0.00000000000E+00  0.00000000000E+00  0.20330916774E+03  0.20330916774E+03  0.00000000000E+00 0. -1.
         -2   -1    0    0    0  501 -0.00000000000E+00 -0.00000000000E+00 -0.20882920167E+03  0.20882920167E+03  0.00000000000E+00 0.  1.
         23    2    1    2    0    0  0.11921302138E+03 -0.76150082796E+02  0.97497962086E+02  0.19691272538E+03  0.96219484655E+02 0.  0.
          5    1    1    2  502    0 -0.77853269748E+02  0.75416042068E+02 -0.48092820034E+01  0.10857860105E+03  0.41800000000E+01 0.  1.
         -5    1    1    2    0  502 -0.41359751635E+02  0.73404072866E+00 -0.98208714011E+02  0.10664704299E+03  0.41800000000E+01 0.  1.
        -11    1    3    3    0    0  0.12034905165E+03 -0.30597300969E+02  0.81883372992E+02  0.14874466657E+03  0.00000000000E+00 0.  1.
         11    1    3    3    0    0 -0.11360302662E+01 -0.45552781828E+02  0.15614589094E+02  0.48168058811E+02  0.00000000000E+00 0. -1.
</event>
<event>
 7    1  0.4687179E-006  0.1072372E+03  0.7561462E-02  0.1265773E+00
         -1   -1    0    0    0  501 -0.00000000000E+00  0.00000000000E+00  0.54450454046E+03  0.54450454046E+03  0.00000000000E+00 0.  1.
          1   -1    0    0  501    0  0.00000000000E+00 -0.00000000000E+00 -0.26974008222E+02  0.26974008222E+02  0.00000000000E+00 0. -1.
         23    2    1    2    0    0 -0.38398322522E+01  0.36504081506E+02  0.24292908136E+03  0.26750012716E+03  0.10580400361E+03 0.  0.
          5    1    1    2  502    0  0.32994388135E+02  0.23973519112E+02  0.19726363730E+03  0.20147896731E+03  0.41800000000E+01 0. -1.
         -5    1    1    2    0  502 -0.29154555883E+02 -0.60477600618E+02  0.77337813577E+02  0.10249945421E+03  0.41800000000E+01 0. -1.
        -11    1    3    3    0    0  0.23845887909E+02 -0.27544312645E+02  0.12766292534E+03  0.13275970035E+03  0.00000000000E+00 0.  1.
         11    1    3    3    0    0 -0.27685720161E+02  0.64048394151E+02  0.11526615602E+03  0.13474042681E+03  0.00000000000E+00 0. -1.
</event>
<event>
 7    1  0.4687179E-006  0.1358213E+03  0.7561462E-02  0.1219065E+00
         -4   -1    0    0    0  501 -0.00000000000E+00  0.00000000000E+00  0.34497384104E+03  0.34497384104E+03  0.00000000000E+00 0.  1.
          4   -1    0    0  501    0  0.00000000000E+00 -0.00000000000E+00 -0.58479023099E+02  0.58479023099E+02  0.00000000000E+00 0. -1.
         23    2    1    2    0    0  0.77648667218E+02 -0.30999289440E+02  0.84371819189E+02  0.15148668277E+03  0.94017762781E+02 0.  0.
          5    1    1    2  502    0 -0.10124806451E+03  0.55983476311E+02  0.15276419228E+03  0.19167600536E+03  0.41800000000E+01 0.  1.
         -5    1    1    2    0  502  0.23599397295E+02 -0.24984186871E+02  0.49358806469E+02  0.60290176001E+02  0.41800000000E+01 0.  1.
        -11    1    3    3    0    0  0.50746579097E+02  0.26879447859E+02  0.60309092508E+02  0.83276086883E+02  0.00000000000E+00 0.  1.
         11    1    3    3    0    0  0.26902088120E+02 -0.57878737300E+02  0.24062726681E+02  0.68210595892E+02  0.00000000000E+00 0. -1.
</event>
<event>
 7    1  0.4687179E-006  0.1235287E+03  0.7561462E-02  0.1237387E+00
         -2   -1    0    0    0  501 -0.00000000000E+00  0.00000000000E+00  0.86217039312E+02  0.86217039312E+02  0.00000000000E+00 0.  1.
          2   -1    0    0  501    0  0.00000000000E+00 -0.00000000000E+00 -0.20242596995E+03  0.20242596995E+03  0.00000000000E+00 0. -1.
         23    2    1    2    0    0  0.14101636548E+02 -0.65059009026E+02 -0.89629550108E+02  0.14447212906E+03  0.91690833862E+02 0.  0.
          5    1    1    2  502    0  0.35825010740E+02  0.75233984929E+02 -0.38169495858E+02  0.91749477911E+02  0.41800000000E+01 0.  1.
         -5    1    1    2    0  502 -0.49926647288E+02 -0.10174975903E+02  0.11590115332E+02  0.52421402285E+02  0.41800000000E+01 0.  1.
        -11    1    3    3    0    0  0.52802804082E+02 -0.41823937283E+02 -0.45097366086E+02  0.81062631815E+02  0.00000000000E+00 0.  1.
         11    1    3    3    0    0 -0.38701167534E+02 -0.23235071742E+02 -0.44532184022E+02  0.63409497247E+02  0.00000000000E+00 0. -1.
</event>
<event>
 7    1  0.4687179E-006  0.1087072E+03  0.7561462E-02  0.1262983E+00
          1   -1    0    0  501    0  0.00000000000E+00  0.00000000000E+00  0.32321355854E+02  0.32321355854E+02  0.00000000000E+00 0. -1.
         -1   -1    0    0    0  501 -0.00000000000E+00 -0.00000000000E+00 -0.49879051109E+03  0.49879051109E+03  0.00000000000E+00 0.  1.
         23    2    1    2    0    0  0.17512178413E+02 -0.15222587750E+02 -0.12083581404E+03  0.15094451862E+03  0.87433118295E+02 0.  0.
          5    1    1    2  502    0 -0.73519440540E+02 -0.32309913732E+01 -0.83183743259E+02  0.11114204868E+03  0.41800000000E+01 0. -1.
         -5    1    1    2    0  502  0.56007262127E+02  0.18453579123E+02 -0.26244959793E+03  0.26902529964E+03  0.41800000000E+01 0.  1.
        -11    1    3    3    0    0  0.39225546000E+02 -0.36937705515E+02 -0.10074423185E+03  0.11424726604E+03  0.00000000000E+00 0.  1.
         11    1    3    3    0    0 -0.21713367587E+02  0.21715117764E+02 -0.20091582197E+02  0.36697252576E+02  0.00000000000E+00 0. -1.
</event>
<event>
 7    1  0.4687179E-006  0.8380042E+02  0.7561462E-02  0.1318600E+00
         -4   -1    0    0    0  501 -0.00000000000E+00  0.00000000000E+00  0.76048992270E+03  0.76048992270E+03  0.00000000000E+00 0.  1.
          4   -1    0    0  501    0  0.00000000000E+00 -0.00000000000E+00 -0.19178214138E+02  0.19178214138E+02  0.00000000000E+00 0. -1.
         23    2    1    2    0    0  0.47033348394E+02 -0.10980980340E+02  0.25179367422E+03  0.27211635016E+03  0.91184076768E+02 0.  0.
          5    1    1    2  502    0 -0.34793615681E+01 -0.14018614675E+02  0.42694678829E+03  0.42721149323E+03  0.41800000000E+01 0.  1.
         -5    1    1    2    0  502 -0.43553986826E+02  0.24999595015E+02  0.62571246048E+02  0.80340293448E+02  0.41800000000E+01 0.  1.
        -11    1    3    3    0    0  0.66678623875E+02 -0.31517246151E+02  0.19775466459E+03  0.21105990395E+03  0.00000000000E+00 0.  1.
         11    1    3    3    0    0 -0.19645275482E+02  0.20536265812E+02  0.54039009630E+02  0.61056446212E+02  0.00000000000E+00 0. -1.
</event>
<event>
 7    1  0.4687179E-006  0.1268535E+03  0.7561462E-02  0.1232201E+00
          2   -1    0    0  501    0  0.00000000000E+00  0.00000000000E+00  0.23180665173E+03  0.23180665173E+03  0.00000000000E+00 0. -1.
         -2   -1    0    0    0  501 -0.00000000000E+00 -0.00000000000E+00 -0.80671927411E+02  0.80671927411E+02  0.00000000000E+00 0.  1.
         23    2    1    2    0    0  0.54180519198E+02 -0.43548657069E+02  0.12082988607E+03  0.16619971914E+03  0.90501221449E+02 0.  0.
          5    1    1    2  502    0 -0.93126601857E+02  0.26670264625E+02  0.59024084690E+01  0.97139990809E+02  0.41800000000E+01 0.  1.
         -5    1    1    2    0  502  0.38946082659E+02  0.16878392444E+02  0.24402429790E+02  0.49138869194E+02  0.41800000000E+01 0.  1.
        -11    1    3    3    0    0  0.76966857868E+02 -0.16478235087E+02  0.81870863402E+02  0.11357054070E+03  0.00000000000E+00 0.  1.
         11    1    3    3    0    0 -0.22786338670E+02 -0.27070421982E+02  0.38959022663E+02  0.52629178439E+02  0.00000000000E+00 0. -1.
</event>
<event>
 7    1  0.4687179E-006  0.1126580E+03  0.7561462E-02  0.1255725E+00
          2   -1    0    0  501    0  0.00000000000E+00  0.00000000000E+00  0.18108041761E+03  0.18108041761E+03  0.00000000000E+00 0. -1.
         -2   -1    0    0    0  501 -0.00000000000E+00 -0.00000000000E+00 -0.11685375403E+03  0.11685375403E+03  0.00000000000E+00 0.  1.
         23    2    1    2    0    0 -0.25245980079E+02  0.90045788296E+02  0.57425792732E+01  0.13115718813E+03  0.91780320778E+02 0.  0.
          5    1    1    2  502    0  0.36157520354E+01 -0.86244067423E+02  0.92169563918E+02  0.12634798669E+03  0.41800000000E+01 0.  1.
         -5    1    1    2    0  502  0.21630228043E+02 -0.38017208727E+01 -0.33685479612E+02  0.40428996815E+02  0.41800000000E+01 0.  1.
        -11    1    3    3    0    0  0.12478240010E+02  0.74827400662E+02 -0.25320525074E+02  0.79974842004E+02  0.00000000000E+00 0.  1.
         11    1    3    3    0    0 -0.37724220089E+02  0.15218387634E+02  0.31063104347E+02  0.51182346128E+02  0.00000000000E+00 0. -1.
</event>
<event>
 7    1  0.4687179E-006  0.1086594E+03  0.7561462E-02  0.1263073E+00
          1   -1    0    0  501    0  0.00000000000E+00  0.00000000000E+00  0.16486821035E+03  0.16486821035E+03  0.00000000000E+00 0. -1.
         -1   -1    0    0    0  501 -0.00000000000E+00 -0.00000000000E+00 -0.94408071660E+02  0.94408071660E+02  0.00000000000E+00 0.  1.
         23    2    1    2    0    0  0.55975979006E+02 -0.30621664834E+01  0.59737645743E+02  0.12178624906E+03  0.90114466388E+02 0.  0.
          5    1    1    2  502    0  0.38522680428E+00 -0.52834645166E+02  0.21651791027E+02  0.57253127288E+02  0.41800000000E+01 0. -1.
         -5    1    1    2    0  502 -0.56361205811E+02  0.55896811650E+02 -0.10929298082E+02  0.80236905658E+02  0.41800000000E+01 0. -1.
        -11    1    3    3    0    0  0.47326064842E+02  0.26352610517E+02  0.70840760730E+02  0.89177518890E+02  0.00000000000E+00 0. -1.
         11    1    3    3    0    0  0.86499141647E+01 -0.29414777000E+02 -0.11103114987E+02  0.32608730172E+02  0.00000000000E+00 0.  1.
</event>
<event>
 7    1  0.4687179E-006  0.1085145E+03  0.7561462E-02  0.1263346E+00
         -2   -1    0    0    0  501 -0.00000000000E+00  0.00000000000E+00  0.17874911307E+02  0.17874911307E+02  0.00000000000E+00 0.  1.
          2   -1    0    0  501    0  0.00000000000E+00 -0.00000000000E+00 -0.77516595371E+03  0.77516595371E+03  0.00000000000E+00 0. -1.
         23    2    1    2    0    0 -0.39403186198E+02  0.23229591147E+01 -0.40223845974E+03  0.41453439461E+03  0.92113943555E+02 0.  0.
          5    1    1    2  502    0  0.77236210691E+02 -0.22185495335E+02 -0.28678591812E+03  0.29786114832E+03  0.41800000000E+01 0. -1.
         -5    1    1    2    0  502 -0.37833024493E+02  0.19862536221E+02 -0.68266664541E+02  0.80645322090E+02  0.41800000000E+01 0. -1.
        -11    1    3    3    0    0 -0.65927755911E+02  0.82681883250E+01 -0.34273304949E+03  0.34911427233E+03  0.00000000000E+00 0.  1.
         11    1    3    3    0    0  0.26524569712E+02 -0.59452292103E+01 -0.59505410258E+02  0.65420122277E+02  0.00000000000E+00 0. -1.
</event>
<event>
 7    1  0.4687179E-006  0.1276569E+03  0.7561462E-02  0.1230974E+00
          1   -1    0    0  501    0  0.00000000000E+00  0.00000000000E+00  0.21250477760E+02  0.21250477760E+02  0.00000000000E+00 0. -1.
         -1   -1    0    0    0  501 -0.00000000000E+00 -0.00000000000E+00 -0.23494808007E+04  0.23494808007E+04  0.00000000000E+00 0.  1.
         23    2    1    2    0    0 -0.25303893361E+02  0.19005254726E+02 -0.11677918701E+03  0.15071281948E+03  0.89863722992E+02 0.  0.
          5    1    1    2  502    0 -0.33753636768E+02  0.55646235926E+02 -0.15870754165E+04  0.15884148266E+04  0.41800000000E+01 0. -1.
         -5    1    1    2    0  502  0.59057530128E+02 -0.74651490652E+02 -0.62437571952E+03  0.63160363239E+03  0.41800000000E+01 0.  1.
        -11    1    3    3    0    0 -0.14210877737E+02 -0.36000740518E+02 -0.55008791457E+02  0.67260460164E+02  0.00000000000E+00 0.  1.
         11    1    3    3    0    0 -0.11093015624E+02  0.55005995244E+02 -0.61770395553E+02  0.83452359314E+02  0.00000000000E+00 0. -1.
</event>
<event>
 7    1  0.4687179E-006  0.6437882E+02  0.7561462E-02  0.1380323E+00
         -2   -1    0    0    0  501 -0.00000000000E+00  0.00000000000E+00  0.22537718024E+03  0.22537718024E+03  0.00000000000E+00 0. -1.
          2   -1    0    0  501    0  0.00000000000E+00 -0.00000000000E+00 -0.51126040204E+02  0.51126040204E+02  0.00000000000E+00 0.  1.
         23    2    1    2    0    0  0.12313107360E+00 -0.27713460769E+02  0.49892562090E+02  0.97976546842E+02  0.79637208077E+02 0.  0.
          5    1    1    2  502    0 -0.86395296940E+01 -0.23786391957E+02  0.12351848766E+03  0.12615356955E+03  0.41800000000E+01 0. -1.
         -5    1    1    2    0  502  0.85163986204E+01  0.51499852726E+02  0.84009028378E+00  0.52373104051E+02  0.41800000000E+01 0. -1.
        -11    1    3    3    0    0 -0.17564231157E+02  0.35184157583E+00  0.60617702127E+02  0.63112057642E+02  0.00000000000E+00 0. -1.
         11    1    3    3    0    0  0.17687362230E+02 -0.28065302345E+02 -0.10725140038E+02  0.34864489200E+02  0.00000000000E+00 0.  1.
</event>
<event>
 7    1  0.4687179E-006  0.1139311E+03  0.7561462E-02  0.1253459E+00
          2   -1    0    0  501    0  0.00000000000E+00  0.00000000000E+00  0.81054620421E+02  0.81054620421E+02  0.00000000000E+00 0. -1.
         -2   -1    0    0    0  501 -0.00000000000E+00 -0.00000000000E+00 -0.20824641913E+03  0.20824641913E+03  0.00000000000E+00 0.  1.
         23    2    1    2    0    0 -0.33151102562E+02 -0.62470878218E+02 -0.65603432624E+02  0.13296130720E+03  0.91505697172E+02 0.  0.
          5    1    1    2  502    0  0.78495061475E+02  0.55894774129E+02 -0.31931876974E+02  0.10160126780E+03  0.41800000000E+01 0. -1.
         -5    1    1    2    0  502 -0.45343958912E+02  0.65761040891E+01 -0.29656489108E+02  0.54738464548E+02  0.41800000000E+01 0. -1.
        -11    1    3    3    0    0  0.87908490554E+01 -0.32971979763E+02  0.15124193993E+02  0.37325215613E+02  0.00000000000E+00 0. -1.
         11    1    3    3    0    0 -0.41941951618E+02 -0.29498898455E+02 -0.80727626617E+02  0.95636091591E+02  0.00000000000E+00 0.  1.
</event>
<event>
 7    1  0.4687179E-006  0.5543592E+02  0.7561462E-02  0.1418049E+00
         -1   -1    0    0    0  501 -0.00000000000E+00  0.00000000000E+00  0.22956411136E+03  0.22956411136E+03  0.00000000000E+00 0.  1.
          1   -1    0    0  501    0  0.00000000000E+00 -0.00000000000E+00 -0.60934462715E+02  0.60934462715E+02  0.00000000000E+00 0. -1.
         23    2    1    2    0    0  0.15519014653E+02  0.36885246382E+02  0.43232030200E+02  0.10890734089E+03  0.91599340875E+02 0.  0.
          5    1    1    2  502    0 -0.12622831745E+02 -0.28985253533E+02  0.15099413330E+03  0.15432492182E+03  0.41800000000E+01 0.  1.
         -5    1    1    2    0  502 -0.28961829084E+01 -0.78999928495E+01 -0.25596514856E+02  0.27266311361E+02  0.41800000000E+01 0.  1.
        -11    1    3    3    0    0 -0.75051428418E+01  0.44659439037E+02 -0.13445670714E+02  0.47239588537E+02  0.00000000000E+00 0. -1.
         11    1    3    3    0    0  0.23024157495E+02 -0.77741926548E+01  0.56677700914E+02  0.61667752356E+02  0.00000000000E+00 0.  1.
</event>
<event>
 7    1  0.4687179E-006  0.1436550E+03  0.7561462E-02  0.1208494E+00
         -2   -1    0    0    0  501 -0.00000000000E+00  0.00000000000E+00  0.58479971231E+02  0.58479971231E+02  0.00000000000E+00 0.  1.
          2   -1    0    0  501    0  0.00000000000E+00 -0.00000000000E+00 -0.46908576072E+03  0.46908576072E+03  0.00000000000E+00 0. -1.
         23    2    1    2    0    0  0.10855415189E+03 -0.61540022699E+02 -0.21133753383E+03  0.26124421141E+03  0.89519866530E+02 0.  0.
          5    1    1    2  502    0  0.63113005071E+01  0.34012643957E+02 -0.24124068325E+00  0.34845703610E+02  0.41800000000E+01 0. -1.
         -5    1    1    2    0  502 -0.11486545239E+03  0.27527378742E+02 -0.19902701497E+03  0.23147581693E+03  0.41800000000E+01 0. -1.
        -11    1    3    3    0    0  0.62802883563E+02 -0.62374719715E+02 -0.19228035213E+03  0.21167555754E+03  0.00000000000E+00 0. -1.
         11    1    3    3    0    0  0.45751268324E+02  0.83469701636E+00 -0.19057181701E+02  0.49568653873E+02  0.00000000000E+00 0.  1.
</event>
<event>
 7    1  0.4687179E-006  0.1110034E+03  0.7561462E-02  0.1258723E+00
          2   -1    0    0  501    0  0.00000000000E+00  0.00000000000E+00  0.74596274709E+03  0.74596274709E+03  0.00000000000E+00 0. -1.
         -2   -1    0    0    0  501 -0.00000000000E+00 -0.00000000000E+00 -0.18528510950E+02  0.18528510950E+02  0.00000000000E+00 0.  1.
         23    2    1    2    0    0 -0.17180818698E+02  0.44367070185E+02  0.35393883822E+03  0.36899666195E+03  0.92855898480E+02 0.  0.
          5    1    1    2  502    0  0.34488736163E+02 -0.77870103271E+02  0.31013393841E+03  0.32164228276E+03  0.41800000000E+01 0. -1.
         -5    1    1    2    0  502 -0.17307917465E+02  0.33503033086E+02  0.63361459514E+02  0.73852313334E+02  0.41800000000E+01 0.  1.
        -11    1    3    3    0    0 -0.49033917947E+02  0.45544964306E+02  0.17740040402E+03  0.18960372420E+03  0.00000000000E+00 0.  1.
         11    1    3    3    0    0  0.31853099249E+02 -0.11778941215E+01  0.17653843420E+03  0.17939293775E+03  0.00000000000E+00 0. -1.
</event>
<event>
 7    1  0.4687179E-006  0.1029712E+03  0.7561462E-02  0.1274169E+00
         -1   -1    0    0    0  501 -0.00000000000E+00  0.00000000000E+00  0.12419798408E+03  0.12419798408E+03  0.00000000000E+00 0.  1.
          1   -1    0    0  501    0  0.00000000000E+00 -0.00000000000E+00 -0.97630142224E+02  0.97630142224E+02  0.00000000000E+00 0. -1.
         23    2    1    2    0    0  0.16600451275E+02 -0.13078666050E+02  0.48744750310E+01  0.93123241634E+02  0.90562415700E+02 0.  0.
          5    1    1    2  502    0  0.19095955565E+02  0.61190383855E+02  0.24084573914E+02  0.68603627425E+02  0.41800000000E+01 0. -1.
         -5    1    1    2    0  502 -0.35696406840E+02 -0.48111717805E+02 -0.23912070863E+01  0.60101257248E+02  0.41800000000E+01 0. -1.
        -11    1    3    3    0    0 -0.28881774507E+02  0.10108951164E+02  0.23706723869E+02  0.38708610785E+02  0.00000000000E+00 0.  1.
         11    1    3    3    0    0  0.45482225782E+02 -0.23187617214E+02 -0.18832248838E+02  0.54414630849E+02  0.00000000000E+00 0. -1.
</event>
<event>
 7    1  0.4687179E-006  0.1194493E+03  0.7561462E-02  0.1244008E+00
         -2   -1    0    0    0  501 -0.00000000000E+00  0.00000000000E+00  0.34297378419E+03  0.34297378419E+03  0.00000000000E+00 0.  1.
          2   -1    0    0  501    0  0.00000000000E+00 -0.00000000000E+00 -0.70836978940E+02  0.70836978940E+02  0.00000000000E+00 0. -1.
         23    2    1    2    0    0 -0.82326101191E+02  0.16662271534E+01  0.24587420449E+02  0.12449138700E+03  0.90073308720E+02 0.  0.
          5    1    1    2  502    0  0.11195452718E+03  0.17913340027E+02  0.19821497624E+03  0.22838860110E+03  0.41800000000E+01 0.  1.
         -5    1    1    2    0  502 -0.29628425985E+02 -0.19579567181E+02  0.49334408561E+02  0.60930775027E+02  0.41800000000E+01 0.  1.
        -11    1    3    3    0    0 -0.46134248685E+01  0.10502475604E+02 -0.27989388061E+02  0.30248826868E+02  0.00000000000E+00 0. -1.
         11    1    3    3    0    0 -0.77712676322E+02 -0.88362484510E+01  0.52576808511E+02  0.94242560136E+02  0.00000000000E+00 0.  1.
</event>
<event>
 7    1  0.4687179E-006  0.2392335E+03  0.7561462E-02  0.1120305E+00
          1   -1    0    0  501    0  0.00000000000E+00  0.00000000000E+00  0.82602444501E+03  0.82602444501E+03  0.00000000000E+00 0. -1.
         -1   -1    0    0    0  501 -0.00000000000E+00 -0.00000000000E+00 -0.11396120948E+03  0.11396120948E+03  0.00000000000E+00 0.  1.
         23    2    1    2    0    0 -0.16120846200E+03 -0.15500947373E+03  0.62380128310E+03  0.66896423059E+03  0.91482216070E+02 0.  0.
          5    1    1    2  502    0 -0.19276008394E+02  0.72705023798E+01 -0.14869154808E+01  0.21073870601E+02  0.41800000000E+01 0.  1.
         -5    1    1    2    0  502  0.18048447039E+03  0.14773897135E+03  0.89748867917E+02  0.24994755330E+03  0.41800000000E+01 0.  1.
        -11    1    3    3    0    0 -0.49291425021E+02 -0.57444551556E+02  0.34379481265E+03  0.35202896797E+03  0.00000000000E+00 0.  1.
         11    1    3    3    0    0 -0.11191703697E+03 -0.97564922172E+02  0.28000647045E+03  0.31693526263E+03  0.00000000000E+00 0. -1.
</event>
<event>
 7    1  0.4687179E-006  0.3962654E+03  0.7561462E-02  0.1045081E+00
          2   -1    0    0  501    0  0.00000000000E+00  0.00000000000E+00  0.20557418160E+04  0.20557418160E+04  0.00000000000E+00 0. -1.
         -2   -1    0    0    0  501 -0.00000000000E+00 -0.00000000000E+00 -0.31032818528E+03  0.31032818528E+03  0.00000000000E+00 0.  1.
         23    2    1    2    0    0  0.33851681769E+03  0.13732384080E+03  0.18885373073E+04  0.19257329933E+04  0.91776506652E+02 0.  0.
          5    1    1    2  502    0 -0.14431458816E+03 -0.16595400132E+03 -0.70419364540E+02  0.23096274637E+03  0.41800000000E+01 0. -1.
         -5    1    1    2    0  502 -0.19420222954E+03  0.28630160523E+02 -0.72704312046E+02  0.20937426164E+03  0.41800000000E+01 0.  1.
        -11    1    3    3    0    0  0.19672550919E+02  0.37101937303E+02  0.18308057722E+03  0.18783519576E+03  0.00000000000E+00 0.  1.
         11    1    3    3    0    0  0.31884426678E+03  0.10022190350E+03  0.17054567301E+04  0.17378977975E+04  0.00000000000E+00 0. -1.
</event>
<event>
 7    1  0.4687179E-006  0.1736049E+03  0.7561462E-02  0.1174140E+00
         -1   -1    0    0    0  501 -0.00000000000E+00  0.00000000000E+00  0.61136606246E+02  0.61136606246E+02  0.00000000000E+00 0.  1.
          1   -1    0    0  501    0  0.00000000000E+00 -0.00000000000E+00 -0.54323285652E+03  0.54323285652E+03  0.00000000000E+00 0. -1.
         23    2    1    2    0    0 -0.90303983251E+01  0.14607155677E+03 -0.21443723099E+03  0.27460759073E+03  0.89484943207E+02 0.  0.
          5    1    1    2  502    0 -0.20599002947E+02  0.13774988064E+02 -0.66498552145E+02  0.71088670377E+02  0.41800000000E+01 0. -1.
         -5    1    1    2    0  502  0.29629401272E+02 -0.15984654484E+03 -0.20116046714E+03  0.25867320166E+03  0.41800000000E+01 0. -1.
        -11    1    3    3    0    0  0.12843716912E+02  0.13372064290E+03 -0.13163819828E+03  0.18808186156E+03  0.00000000000E+00 0.  1.
         11    1    3    3    0    0 -0.21874115237E+02  0.12350913876E+02 -0.82799032714E+02  0.86525729175E+02  0.00000000000E+00 0. -1.
</event>
<event>
 7    1  0.4687179E-006  0.1398860E+03  0.7561462E-02  0.1213482E+00
         -2   -1    0    0    0  501 -0.00000000000E+00  0.00000000000E+00  0.49781936503E+03  0.49781936503E+03  0.00000000000E+00 0.  1.
          2   -1    0    0  501    0  0.00000000000E+00 -0.00000000000E+00 -0.80773706943E+02  0.80773706943E+02  0.00000000000E+00 0. -1.
         23    2    1    2    0    0  0.45649497403E+02 -0.11358883376E+03  0.31825151485E+02  0.15547520267E+03  0.90406850469E+02 0.  0.
          5    1    1    2  502    0  0.14034471302E+02  0.58871652071E+02  0.29768150960E+03  0.30380024911E+03  0.41800000000E+01 0. -1.
         -5    1    1    2    0  502 -0.59683968705E+02  0.54717181685E+02  0.87538997003E+02  0.11931762019E+03  0.41800000000E+01 0. -1.
        -11    1    3    3    0    0  0.35458478277E+02 -0.14324630099E+02 -0.19866744561E+02  0.43095083810E+02  0.00000000000E+00 0. -1.
         11    1    3    3    0    0  0.10191019126E+02 -0.99264203657E+02  0.51691896046E+02  0.11238011886E+03  0.00000000000E+00 0.  1.
</event>
<event>
 7    1  0.5977008E-006  0.3368830E+03  0.7561462E-02  0.1068131E+00
         -2   -1    0    0    0  501 -0.00000000000E+00  0.00000000000E+00  0.23457349274E+03  0.23457349274E+03  0.00000000000E+00 0.  1.
          2   -1    0    0  501    0  0.00000000000E+00 -0.00000000000E+00 -0.58275794785E+03  0.58275794785E+03  0.00000000000E+00 0. -1.
         23    2    1    2    0    0 -0.35011236692E+02  0.32679594313E+03 -0.31620843226E+03  0.46421583641E+03  0.86528579062E+02 0.  0.
          5    1    1    2  502    0  0.44276458208E+02 -0.12133987598E+03  0.39836190569E+02  0.13523374110E+03  0.41800000000E+01 0. -1.
         -5    1    1    2    0  502 -0.92652215163E+01 -0.20545606716E+03 -0.71812213419E+02  0.21788186307E+03  0.41800000000E+01 0. -1.
        -11    1    3    3    0    0 -0.62242600351E+02  0.22937575137E+03 -0.23803467769E+03  0.33637461914E+03  0.00000000000E+00 0. -1.
         11    1    3    3    0    0  0.27231363659E+02  0.97420191760E+02 -0.78173754573E+02  0.12784121727E+03  0.00000000000E+00 0.  1.
</event>
<event>
 7    1  0.4687179E-006  0.1038314E+03  0.7561462E-02  0.1272439E+00
          1   -1    0    0  501    0  0.00000000000E+00  0.00000000000E+00  0.46676274909E+03  0.46676274909E+03  0.00000000000E+00 0. -1.
         -1   -1    0    0    0  501 -0.00000000000E+00 -0.00000000000E+00 -0.29285111963E+02  0.29285111963E+02  0.00000000000E+00 0.  1.
         23    2    1    2    0    0 -0.10135144208E+01 -0.70466738433E+01  0.28179993426E+03  0.29631002346E+03  0.91311249207E+02 0.  0.
          5    1    1    2  502    0 -0.45595597368E+02  0.38496270008E+02  0.42775265122E+02  0.73539900803E+02  0.41800000000E+01 0. -1.
         -5    1    1    2    0  502  0.46609111789E+02 -0.31449596164E+02  0.11290243774E+03  0.12619793678E+03  0.41800000000E+01 0. -1.
        -11    1    3    3    0    0 -0.33054439532E+02 -0.35574217938E+02  0.15739521325E+03  0.16471604083E+03  0.00000000000E+00 0.  1.
         11    1    3    3    0    0  0.32040925111E+02  0.28527544094E+02  0.12440472101E+03  0.13159398263E+03  0.00000000000E+00 0. -1.
</event>
<event>
 7    1  0.4687179E-006  0.1245343E+03  0.7561462E-02  0.1235799E+00
         -2   -1    0    0    0  501 -0.00000000000E+00  0.00000000000E+00  0.30022950080E+03  0.30022950080E+03  0.00000000000E+00 0.  1.
          2   -1    0    0  501    0  0.00000000000E+00 -0.00000000000E+00 -0.52251428536E+02  0.52251428536E+02  0.00000000000E+00 0. -1.
         23    2    1    2    0    0  0.45678293041E+02 -0.42735074793E+02  0.10135858745E+03  0.14985177495E+03  0.90935131463E+02 0.  0.
          5    1    1    2  502    0 -0.22474735064E+02 -0.43758068782E+02  0.41686821403E+02  0.64615367974E+02  0.41800000000E+01 0. -1.
         -5    1    1    2    0  502 -0.23203557977E+02  0.86493143575E+02  0.10493266341E+03  0.13801378641E+03  0.41800000000E+01 0. -1.
        -11    1    3    3    0    0 -0.19254492176E+01 -0.59536951813E+02  0.49138561845E+02  0.77220167354E+02  0.00000000000E+00 0.  1.
         11    1    3    3    0    0  0.47603742258E+02  0.16801877021E+02  0.52220025603E+02  0.72631607599E+02  0.00000000000E+00 0. -1.
</event>
<event>
 7    1  0.4687179E-006  0.9690135E+02  0.7561462E-02  0.1286950E+00
         -2   -1    0    0    0  501 -0.00000000000E+00  0.00000000000E+00  0.32226757488E+03  0.32226757488E+03  0.00000000000E+00 0.  1.
          2   -1    0    0  501    0  0.00000000000E+00 -0.00000000000E+00 -0.44109217980E+02  0.44109217980E+02  0.00000000000E+00 0. -1.
         23    2    1    2    0    0 -0.32699589013E+02  0.20624381884E+01  0.65575892952E+02  0.11755553802E+03  0.91899891242E+02 0.  0.
          5    1    1    2  502    0  0.14075657349E+02 -0.60547937559E+02  0.71058862081E+02  0.94504027178E+02  0.41800000000E+01 0.  1.
         -5    1    1    2    0  502  0.18623931663E+02  0.58485499371E+02  0.14152360187E+03  0.15431722766E+03  0.41800000000E+01 0.  1.
        -11    1    3    3    0    0  0.10972060510E+02 -0.18654569120E+02  0.65748518023E+02  0.69218831853E+02  0.00000000000E+00 0.  1.
         11    1    3    3    0    0 -0.43671649523E+02  0.20717007308E+02 -0.17262507117E+00  0.48336706169E+02  0.00000000000E+00 0. -1.
</event>
<event>
 7    1  0.4687179E-006  0.1070589E+03  0.7561462E-02  0.1266115E+00
          2   -1    0    0  501    0  0.00000000000E+00  0.00000000000E+00  0.46098445426E+03  0.46098445426E+03  0.00000000000E+00 0. -1.
         -2   -1    0    0    0  501 -0.00000000000E+00 -0.00000000000E+00 -0.33410636325E+02  0.33410636325E+02  0.00000000000E+00 0.  1.
         23    2    1    2    0    0  0.22699513501E+02 -0.21183298401E+02  0.29361513160E+03  0.30850346126E+03  0.89445738076E+02 0.  0.
          5    1    1    2  502    0  0.41575803158E+02  0.43794235118E+02  0.66383924824E+02  0.89837521742E+02  0.41800000000E+01 0. -1.
         -5    1    1    2    0  502 -0.64275316659E+02 -0.22610936717E+02  0.67574761515E+02  0.96054107588E+02  0.41800000000E+01 0. -1.
        -11    1    3    3    0    0  0.52591613342E+02 -0.10883853269E+02  0.24269426601E+03  0.24856557044E+03  0.00000000000E+00 0. -1.
         11    1    3    3    0    0 -0.29892099841E+02 -0.10299445131E+02  0.50920865589E+02  0.59937890814E+02  0.00000000000E+00 0.  1.
</event>
<event>
 7    1  0.4687179E-006  0.1275468E+03  0.7561462E-02  0.1231142E+00
         -1   -1    0    0    0  501 -0.00000000000E+00  0.00000000000E+00  0.10845885669E+03  0.10845885669E+03  0.00000000000E+00 0.  1.
          1   -1    0    0  501    0  0.00000000000E+00 -0.00000000000E+00 -0.15446878633E+03  0.15446878633E+03  0.00000000000E+00 0. -1.
         23    2    1    2    0    0 -0.18713257971E+02 -0.68339205189E+02 -0.25735303347E+02  0.11773808449E+03  0.90440686153E+02 0.  0.
          5    1    1    2  502    0  0.11329453169E+01 -0.36792474153E+02 -0.36033115303E+01  0.37221310742E+02  0.41800000000E+01 0. -1.
         -5    1    1    2    0  502  0.17580312654E+02  0.10513167934E+03 -0.16671314756E+02  0.10796824779E+03  0.41800000000E+01 0. -1.
        -11    1    3    3    0    0  0.33807858796E+02 -0.16656995054E+02 -0.22686400900E+02  0.43989766837E+02  0.00000000000E+00 0. -1.
         11    1    3    3    0    0 -0.52521116767E+02 -0.51682210135E+02 -0.30489024468E+01  0.73748317655E+02  0.00000000000E+00 0.  1.
</event>
<event>
 7    1  0.4687179E-006  0.1014945E+03  0.7561462E-02  0.1277184E+00
         -2   -1    0    0    0  501 -0.00000000000E+00  0.00000000000E+00  0.17250835505E+02  0.17250835505E+02  0.00000000000E+00 0. -1.
          2   -1    0    0  501    0  0.00000000000E+00 -0.00000000000E+00 -0.77217125433E+03  0.77217125433E+03  0.00000000000E+00 0.  1.
         23    2    1    2    0    0  0.66277015973E+01 -0.36978558307E+02 -0.30880611920E+03  0.32458156996E+03  0.92631722982E+02 0.  0.
          5    1    1    2  502    0 -0.41832347527E+02 -0.28818591160E+02 -0.12197883030E+03  0.13219971232E+03  0.41800000000E+01 0.  1.
         -5    1    1    2    0  502  0.35204645929E+02  0.65797149466E+02 -0.32413546933E+03  0.33264080755E+03  0.41800000000E+01 0.  1.
        -11    1    3    3    0    0  0.78812730704E+01 -0.56837026040E+02 -0.29459149263E+03  0.30012782197E+03  0.00000000000E+00 0.  1.
         11    1    3    3    0    0 -0.12535714730E+01  0.19858467733E+02 -0.14214626568E+02  0.24453747987E+02  0.00000000000E+00 0. -1.
</event>
<event>
 7    1  0.4687179E-006  0.1177759E+03  0.7561462E-02  0.1246812E+00
          1   -1    0    0  501    0  0.00000000000E+00  0.00000000000E+00  0.50710903820E+03  0.50710903820E+03  0.00000000000E+00 0. -1.
         -1   -1    0    0    0  501 -0.00000000000E+00 -0.00000000000E+00 -0.28779202392E+02  0.28779202392E+02  0.00000000000E+00 0.  1.
         23    2    1    2    0    0 -0.28413972261E+02  0.33655861725E+02  0.15890901254E+03  0.19003110740E+03  0.94444039863E+02 0.  0.
          5    1    1    2  502    0  0.77609335594E+02 -0.13681035203E+02  0.17668248419E+03  0.19350594904E+03  0.41800000000E+01 0. -1.
         -5    1    1    2    0  502 -0.49195363334E+02 -0.19974826522E+02  0.14273833907E+03  0.15235118414E+03  0.41800000000E+01 0. -1.
        -11    1    3    3    0    0  0.70016047539E+01  0.59260688951E+02  0.10339723798E+03  0.11938107282E+03  0.00000000000E+00 0.  1.
         11    1    3    3    0    0 -0.35415577014E+02 -0.25604827225E+02  0.55511774557E+02  0.70650034586E+02  0.00000000000E+00 0. -1.
</event>
<event>
 7    1  0.4687179E-006  0.2000110E+03  0.7561462E-02  0.1149730E+00
         -1   -1    0    0    0  501 -0.00000000000E+00  0.00000000000E+00  0.77655788664E+02  0.77655788664E+02  0.00000000000E+00 0.  1.
          1   -1    0    0  501    0  0.00000000000E+00 -0.00000000000E+00 -0.68192876322E+03  0.68192876322E+03  0.00000000000E+00 0. -1.
         23    2    1    2    0    0 -0.60459333285E+02  0.18907356755E+03 -0.35876895175E+03  0.41999144657E+03  0.90958834229E+02 0.  0.
          5    1    1    2  502    0  0.10347943756E+01 -0.48741171206E+02 -0.15445647752E+03  0.16202175292E+03  0.41800000000E+01 0.  1.
         -5    1    1    2    0  502  0.59424538909E+02 -0.14033239635E+03 -0.91047545275E+02  0.17757135239E+03  0.41800000000E+01 0.  1.
        -11    1    3    3    0    0 -0.40359611079E+02  0.11458299418E+03 -0.12713183843E+03  0.17584272832E+03  0.00000000000E+00 0.  1.
         11    1    3    3    0    0 -0.20099722206E+02  0.74490573371E+02 -0.23163711332E+03  0.24414871825E+03  0.00000000000E+00 0. -1.
</event>
<event>
 7    1  0.4687179E-006  0.1347516E+03  0.7561462E-02  0.1220571E+00
         -1   -1    0    0    0  501 -0.00000000000E+00  0.00000000000E+00  0.45694592782E+02  0.45694592782E+02  0.00000000000E+00 0. -1.
          1   -1    0    0  501    0  0.00000000000E+00 -0.00000000000E+00 -0.53522809478E+03  0.53522809478E+03  0.00000000000E+00 0.  1.
         23    2    1    2    0    0  0.65114362021E+02 -0.66322813473E+02 -0.33900904450E+03  0.36425692021E+03  0.95484951394E+02 0.  0.
          5    1    1    2  502    0  0.34407263080E+02  0.64687829474E+01 -0.15488490491E+02  0.38510656229E+02  0.41800000000E+01 0. -1.
         -5    1    1    2    0  502 -0.99521625101E+02  0.59854030525E+02 -0.13503596701E+03  0.17815511112E+03  0.41800000000E+01 0. -1.
        -11    1    3    3    0    0  0.37067329613E+02 -0.78994370540E+02 -0.30969727478E+03  0.32175534107E+03  0.00000000000E+00 0.  1.
         11    1    3    3    0    0  0.28047032408E+02  0.12671557067E+02 -0.29311769715E+02  0.42501579138E+02  0.00000000000E+00 0. -1.
</event>
<event>
 7    1  0.4687179E-006  0.1208711E+03  0.7561462E-02  0.1241667E+00
         -1   -1    0    0    0  501 -0.00000000000E+00  0.00000000000E+00  0.27995013173E+02  0.27995013173E+02  0.00000000000E+00 0.  1.
          1   -1    0    0  501    0  0.00000000000E+00 -0.00000000000E+00 -0.59553787042E+03  0.59553787042E+03  0.00000000000E+00 0. -1.
         23    2    1    2    0    0 -0.38002115918E+02  0.41310974414E+02 -0.35537607879E+03  0.37092187271E+03  0.90222618305E+02 0.  0.
          5    1    1    2  502    0  0.11957181448E+02 -0.84191823138E+02 -0.15141444061E+03  0.17370964998E+03  0.41800000000E+01 0.  1.
         -5    1    1    2    0  502  0.26044934471E+02  0.42880848724E+02 -0.60752337841E+02  0.78901360901E+02  0.41800000000E+01 0.  1.
        -11    1    3    3    0    0 -0.67077183403E+02  0.19322431298E+02 -0.23303303136E+03  0.24326343455E+03  0.00000000000E+00 0.  1.
         11    1    3    3    0    0  0.29075067485E+02  0.21988543116E+02 -0.12234304743E+03  0.12765843816E+03  0.00000000000E+00 0. -1.
</event>
<event>
 7    1  0.8436605E-006  0.1243568E+03  0.7561462E-02  0.1236078E+00
          2   -1    0    0  501    0  0.00000000000E+00  0.00000000000E+00  0.77743341680E+02  0.77743341680E+02  0.00000000000E+00 0. -1.
         -2   -1    0    0    0  501 -0.00000000000E+00 -0.00000000000E+00 -0.30039402157E+03  0.30039402157E+03  0.00000000000E+00 0.  1.
         23    2    1    2    0    0 -0.10365484958E+03 -0.24633477688E+01 -0.60700643785E+02  0.14873445298E+03  0.87675386642E+02 0.  0.
          5    1    1    2  502    0  0.70952059360E+02 -0.32858977455E+02 -0.16326051657E+03  0.18106732394E+03  0.41800000000E+01 0. -1.
         -5    1    1    2    0  502  0.32702790219E+02  0.35322325224E+02  0.13104804661E+01  0.48335586335E+02  0.41800000000E+01 0. -1.
        -11    1    3    3    0    0 -0.51495761015E+02  0.31014557344E+02 -0.62516069224E+02  0.86729320769E+02  0.00000000000E+00 0. -1.
         11    1    3    3    0    0 -0.52159088564E+02 -0.33477905113E+02  0.18154254393E+01  0.62005132208E+02  0.00000000000E+00 0.  1.
</event>
<event>
 7    1  0.4687179E-006  0.1008964E+03  0.7561462E-02  0.1278422E+00
         -1   -1    0    0    0  501 -0.00000000000E+00  0.00000000000E+00  0.15757215165E+03  0.15757215165E+03  0.00000000000E+00 0.  1.
          1   -1    0    0  501    0  0.00000000000E+00 -0.00000000000E+00 -0.96687471375E+02  0.96687471375E+02  0.00000000000E+00 0. -1.
         23    2    1    2    0    0  0.56798088736E+02  0.94023872448E+00  0.11072625555E+02  0.10812425811E+03  0.91330965300E+02 0.  0.
          5    1    1    2  502    0  0.33410484695E+02  0.94250735383E-01 -0.13037680128E+02  0.36107102817E+02  0.41800000000E+01 0.  1.
         -5    1    1    2    0  502 -0.90208573431E+02 -0.10344894599E+01  0.62849734845E+02  0.11002826209E+03  0.41800000000E+01 0.  1.
        -11    1    3    3    0    0  0.19648977857E+02 -0.25515015801E+02  0.42070053400E+02  0.52981013158E+02  0.00000000000E+00 0.  1.
         11    1    3    3    0    0  0.37149110879E+02  0.26455254525E+02 -0.30997427845E+02  0.55143244954E+02  0.00000000000E+00 0. -1.
</event>
<event>
 7    1  0.4687179E-006  0.1220412E+03  0.7561462E-02  0.1239767E+00
         -2   -1    0    0    0  501 -0.00000000000E+00  0.00000000000E+00  0.22147942001E+03  0.22147942001E+03  0.00000000000E+00 0. -1.
          2   -1    0    0  501    0  0.00000000000E+00 -0.00000000000E+00 -0.13905597509E+03  0.13905597509E+03  0.00000000000E+00 0.  1.
         23    2    1    2    0    0 -0.10698626002E+03 -0.49011486192E+01 -0.50038487787E+02  0.14919764312E+03  0.91027497842E+02 0.  0.
          5    1    1    2  502    0  0.56573398485E+02 -0.11118121635E+02 -0.10583713475E+02  0.58767758471E+02  0.41800000000E+01 0.  1.
         -5    1    1    2    0  502  0.50412861532E+02  0.16019270254E+02  0.14304564618E+03  0.15256999351E+03  0.41800000000E+01 0.  1.
        -11    1    3    3    0    0 -0.99975377605E+02  0.24545161443E+02 -0.57647740968E+02  0.11798645310E+03  0.00000000000E+00 0.  1.
         11    1    3    3    0    0 -0.70108824124E+01 -0.29446310062E+02  0.76092531811E+01  0.31211190019E+02  0.00000000000E+00 0. -1.
</event>
<event>
 7    1  0.4687179E-006  0.1057027E+03  0.7561462E-02  0.1268741E+00
          3   -1    0    0  501    0  0.00000000000E+00  0.00000000000E+00  0.39788725231E+03  0.39788725231E+03  0.00000000000E+00 0. -1.
         -3   -1    0    0    0  501 -0.00000000000E+00 -0.00000000000E+00 -0.57771764711E+02  0.57771764711E+02  0.00000000000E+00 0.  1.
         23    2    1    2    0    0  0.53056015119E+02  0.80888449252E+02  0.22453130194E+03  0.25978841603E+03  0.87851201397E+02 0.  0.
          5    1    1    2  502    0 -0.35302717313E+02 -0.56079690519E+02  0.14106035693E+03  0.15590609429E+03  0.41800000000E+01 0. -1.
         -5    1    1    2    0  502 -0.17753297806E+02 -0.24808758733E+02 -0.25476171279E+02  0.39964506702E+02  0.41800000000E+01 0. -1.
        -11    1    3    3    0    0  0.60546460301E+02  0.39814169538E+02  0.19666759936E+03  0.20959290682E+03  0.00000000000E+00 0. -1.
         11    1    3    3    0    0 -0.74904451815E+01  0.41074279714E+02  0.27863702584E+02  0.50195509209E+02  0.00000000000E+00 0.  1.
</event>
<event>
 7    1  0.4687179E-006  0.1148975E+03  0.7561462E-02  0.1251760E+00
         -2   -1    0    0    0  501 -0.00000000000E+00  0.00000000000E+00  0.23661955094E+03  0.23661955094E+03  0.00000000000E+00 0. -1.
          2   -1    0    0  501    0  0.00000000000E+00 -0.00000000000E+00 -0.67310344774E+02  0.67310344774E+02  0.00000000000E+00 0.  1.
         23    2    1    2    0    0  0.35893723283E+02 -0.31016304599E+02  0.21823797699E+02  0.10481388278E+03  0.90880698479E+02 0.  0.
          5    1    1    2  502    0 -0.58538082955E+02  0.68224208602E+02  0.97483138954E+02  0.13267134045E+03  0.41800000000E+01 0. -1.
         -5    1    1    2    0  502  0.22644359672E+02 -0.37207904003E+02  0.50002269516E+02  0.66444672488E+02  0.41800000000E+01 0. -1.
        -11    1    3    3    0    0  0.50359016183E+02 -0.50804173678E+02 -0.68260191128E+00  0.71537126860E+02  0.00000000000E+00 0. -1.
         11    1    3    3    0    0 -0.14465292900E+02  0.19787869079E+02  0.22506399610E+02  0.33276755924E+02  0.00000000000E+00 0.  1.
</event>
<event>
 7    1  0.4687179E-006  0.1563157E+03  0.7561462E-02  0.1192920E+00
          2   -1    0    0  501    0  0.00000000000E+00  0.00000000000E+00  0.13913583129E+03  0.13913583129E+03  0.00000000000E+00 0.  1.
         -2   -1    0    0    0  501 -0.00000000000E+00 -0.00000000000E+00 -0.24563271716E+03  0.24563271716E+03  0.00000000000E+00 0. -1.
         23    2    1    2    0    0 -0.12721181656E+03  0.12327023253E+02  0.29653015646E+02  0.16000285554E+03  0.91579531948E+02 0.  0.
          5    1    1    2  502    0  0.34671822029E-01 -0.38251459284E+02 -0.27208907245E+01  0.38575263912E+02  0.41800000000E+01 0. -1.
         -5    1    1    2    0  502  0.12717714473E+03  0.25924436032E+02 -0.13342901080E+03  0.18619042899E+03  0.41800000000E+01 0. -1.
        -11    1    3    3    0    0 -0.66561453039E+02 -0.27193690033E+02  0.46564841080E+02  0.85663342411E+02  0.00000000000E+00 0.  1.
         11    1    3    3    0    0 -0.60650363516E+02  0.39520713286E+02 -0.16911825435E+02  0.74339513133E+02  0.00000000000E+00 0. -1.
</event>
<event>
 7    1  0.4687179E-006  0.7754333E+02  0.7561462E-02  0.1336171E+00
         -3   -1    0    0    0  501 -0.00000000000E+00  0.00000000000E+00  0.52502476405E+03  0.52502476405E+03  0.00000000000E+00 0.  1.
          3   -1    0    0  501    0  0.00000000000E+00 -0.00000000000E+00 -0.24865884217E+02  0.24865884217E+02  0.00000000000E+00 0. -1.
         23    2    1    2    0    0 -0.11956320878E+02  0.10999431162E+02  0.14063072643E+03  0.16887439426E+03  0.92073985066E+02 0.  0.
          5    1    1    2  502    0  0.35075868886E+02 -0.18797584017E+02  0.35320814708E+03  0.35546748558E+03  0.41800000000E+01 0.  1.
         -5    1    1    2    0  502 -0.23119548008E+02  0.77981528547E+01  0.63200063236E+01  0.25548768424E+02  0.41800000000E+01 0.  1.
        -11    1    3    3    0    0  0.11028704088E+02  0.46630089528E+02  0.96114006309E+02  0.10739599514E+03  0.00000000000E+00 0.  1.
         11    1    3    3    0    0 -0.22985024966E+02 -0.35630658366E+02  0.44516720123E+02  0.61478399123E+02  0.00000000000E+00 0. -1.
</event>
<event>
 7    1  0.4687179E-006  0.1251172E+03  0.7561462E-02  0.1234886E+00
          1   -1    0    0  501    0  0.00000000000E+00  0.00000000000E+00  0.51987384778E+02  0.51987384778E+02  0.00000000000E+00 0. -1.
         -1   -1    0    0    0  501 -0.00000000000E+00 -0.00000000000E+00 -0.36286784772E+03  0.36286784772E+03  0.00000000000E+00 0.  1.
         23    2    1    2    0    0 -0.67249875374E+02 -0.43077189330E+02 -0.96780312119E+02  0.15434746306E+03  0.89880590560E+02 0.  0.
          5    1    1    2  502    0  0.81302511431E+02  0.75973598641E+02 -0.17427835125E+03  0.20681514009E+03  0.41800000000E+01 0. -1.
         -5    1    1    2    0  502 -0.14052636056E+02 -0.32896409311E+02 -0.39821799574E+02  0.53692629355E+02  0.41800000000E+01 0. -1.
        -11    1    3    3    0    0 -0.38750444387E+02 -0.58721203962E+02 -0.99346664466E+02  0.12173551855E+03  0.00000000000E+00 0.  1.
         11    1    3    3    0    0 -0.28499430987E+02  0.15644014632E+02  0.25663523473E+01  0.32611944510E+02  0.00000000000E+00 0. -1.
</event>
<event>
 7    1  0.4687179E-006  0.2273887E+03  0.7561462E-02  0.1128491E+00
          2   -1    0    0  501    0  0.00000000000E+00  0.00000000000E+00  0.29753517797E+03  0.29753517797E+03  0.00000000000E+00 0. -1.
         -2   -1    0    0    0  501 -0.00000000000E+00 -0.00000000000E+00 -0.19457314773E+03  0.19457314773E+03  0.00000000000E+00 0.  1.
         23    2    1    2    0    0 -0.19481476575E+03  0.88797147109E+02  0.72766762360E+02  0.24232120794E+03  0.87102467392E+02 0.  0.
          5    1    1    2  502    0  0.29525445046E+02  0.96288630193E+01  0.47158330122E+02  0.56620203180E+02  0.41800000000E+01 0. -1.
         -5    1    1    2    0  502  0.16528932070E+03 -0.98426010129E+02 -0.16963062242E+02  0.19316691458E+03  0.41800000000E+01 0. -1.
        -11    1    3    3    0    0 -0.19019073308E+03  0.56515978953E+02  0.59785612829E+02  0.20722183845E+03  0.00000000000E+00 0. -1.
         11    1    3    3    0    0 -0.46240326609E+01  0.32281168156E+02  0.12981149531E+02  0.35099369492E+02  0.00000000000E+00 0.  1.
</event>
<event>
 7    1  0.4687179E-006  0.9474134E+02  0.7561462E-02  0.1291760E+00
          3   -1    0    0  501    0  0.00000000000E+00  0.00000000000E+00  0.62672129610E+02  0.62672129610E+02  0.00000000000E+00 0. -1.
         -3   -1    0    0    0  501 -0.00000000000E+00 -0.00000000000E+00 -0.22596830145E+03  0.22596830145E+03  0.00000000000E+00 0.  1.
         23    2    1    2    0    0  0.42565715672E+02  0.95279905083E+01 -0.41318555424E+02  0.10855873040E+03  0.90416548094E+02 0.  0.
          5    1    1    2  502    0 -0.77750841332E+00 -0.39583918625E+02  0.76548117244E+01  0.40540839601E+02  0.41800000000E+01 0. -1.
         -5    1    1    2    0  502 -0.41788207259E+02  0.30055928116E+02 -0.12963242814E+03  0.13954086107E+03  0.41800000000E+01 0. -1.
        -11    1    3    3    0    0  0.30251898658E+02 -0.38204780833E+02 -0.88437448071E+01  0.49527714193E+02  0.00000000000E+00 0.  1.
         11    1    3    3    0    0  0.12313817014E+02  0.47732771342E+02 -0.32474810617E+02  0.59031016204E+02  0.00000000000E+00 0. -1.
</event>
<event>
 7    1  0.4687179E-006  0.1205311E+03  0.7561462E-02  0.1242224E+00
          2   -1    0    0  501    0  0.00000000000E+00  0.00000000000E+00  0.18142823377E+03  0.18142823377E+03  0.00000000000E+00 0. -1.
         -2   -1    0    0    0  501 -0.00000000000E+00 -0.00000000000E+00 -0.27442847887E+03  0.27442847887E+03  0.00000000000E+00 0.  1.
         23    2    1    2    0    0  0.42764975974E+01 -0.95434141392E+02  0.12844306738E+03  0.18417592540E+03  0.91088891548E+02 0.  0.
          5    1    1    2  502    0  0.50171526942E+02  0.45521539645E+02 -0.48039663447E+02  0.83154520932E+02  0.41800000000E+01 0. -1.
         -5    1    1    2    0  502 -0.54448024539E+02  0.49912601747E+02 -0.17340364903E+03  0.18852626631E+03  0.41800000000E+01 0. -1.
        -11    1    3    3    0    0 -0.94827756692E+01 -0.66436868603E+02  0.13559405766E+03  0.15129285845E+03  0.00000000000E+00 0.  1.
         11    1    3    3    0    0  0.13759273267E+02 -0.28997272790E+02 -0.71509902821E+01  0.32883066951E+02  0.00000000000E+00 0. -1.
</event>
<event>
 7    1  0.4687179E-006  0.9588350E+02  0.7561462E-02  0.1289199E+00
          1   -1    0    0  501    0  0.00000000000E+00  0.00000000000E+00  0.62315422320E+03  0.62315422320E+03  0.00000000000E+00 0. -1.
         -1   -1    0    0    0  501 -0.00000000000E+00 -0.00000000000E+00 -0.19661811402E+02  0.19661811402E+02  0.00000000000E+00 0.  1.
         23    2    1    2    0    0 -0.36655241396E+02  0.27258257944E+02  0.23357400002E+03  0.24965812419E+03  0.75403886769E+02 0.  0.
          5    1    1    2  502    0 -0.35786329003E+02  0.10970190791E+02  0.48309689337E+02  0.61256060217E+02  0.41800000000E+01 0. -1.
         -5    1    1    2    0  502  0.72441570399E+02 -0.38228448735E+02  0.32160872244E+03  0.33190185020E+03  0.41800000000E+01 0. -1.
        -11    1    3    3    0    0 -0.51611158114E+02  0.23236785214E+02  0.22488811545E+03  0.23190154010E+03  0.00000000000E+00 0. -1.
         11    1    3    3    0    0  0.14955916718E+02  0.40214727298E+01  0.86858845703E+01  0.17756584091E+02  0.00000000000E+00 0.  1.
</event>
<event>
 7    1  0.4687179E-006  0.1585716E+03  0.7561462E-02  0.1190319E+00
         -2   -1    0    0    0  501 -0.00000000000E+00  0.00000000000E+00  0.60645675671E+02  0.60645675671E+02  0.00000000000E+00 0.  1.
          2   -1    0    0  501    0  0.00000000000E+00 -0.00000000000E+00 -0.45591054482E+03  0.45591054482E+03  0.00000000000E+00 0. -1.
         23    2    1    2    0    0 -0.11500628743E+03  0.48396595209E+02 -0.15462606791E+03  0.21802199230E+03  0.89753505073E+02 0.  0.
          5    1    1    2  502    0  0.92408689528E+02  0.18594952852E+02 -0.82794723184E+02  0.12552918688E+03  0.41800000000E+01 0.  1.
         -5    1    1    2    0  502  0.22597597898E+02 -0.66991548062E+02 -0.15784407805E+03  0.17300504131E+03  0.41800000000E+01 0.  1.
        -11    1    3    3    0    0  0.12487376622E+02 -0.53772294001E+01 -0.57188776354E+01  0.14749736687E+02  0.00000000000E+00 0.  1.
         11    1    3    3    0    0 -0.12749366405E+03  0.53773824610E+02 -0.14890719028E+03  0.20327225561E+03  0.00000000000E+00 0. -1.
</event>
<event>
 7    1  0.4687179E-006  0.1399753E+03  0.7561462E-02  0.1213362E+00
          1   -1    0    0  501    0  0.00000000000E+00  0.00000000000E+00  0.77327728484E+02  0.77327728484E+02  0.00000000000E+00 0. -1.
         -1   -1    0    0    0  501 -0.00000000000E+00 -0.00000000000E+00 -0.27280715135E+03  0.27280715135E+03  0.00000000000E+00 0.  1.
         23    2    1    2    0    0  0.22370642739E+02 -0.88728558835E+02 -0.54195569907E+02  0.14041684677E+03  0.91687121502E+02 0.  0.
          5    1    1    2  502    0  0.20865312319E+02  0.10337391455E+03 -0.11796787833E+03  0.15828904001E+03  0.41800000000E+01 0. -1.
         -5    1    1    2    0  502 -0.43235955059E+02 -0.14645355718E+02 -0.23315974626E+02  0.51428993055E+02  0.41800000000E+01 0. -1.
        -11    1    3    3    0    0  0.42469520241E+02 -0.53533525472E+01 -0.10098565514E+02  0.43980672556E+02  0.00000000000E+00 0.  1.
         11    1    3    3    0    0 -0.20098877502E+02 -0.83375206287E+02 -0.44097004392E+02  0.96436174212E+02  0.00000000000E+00 0. -1.
</event>
<event>
 7    1  0.4687179E-006  0.7536075E+02  0.7561462E-02  0.1342758E+00
         -1   -1    0    0    0  501 -0.00000000000E+00  0.00000000000E+00  0.66920367655E+02  0.66920367655E+02  0.00000000000E+00 0.  1.
          1   -1    0    0  501    0  0.00000000000E+00 -0.00000000000E+00 -0.19066244452E+03  0.19066244452E+03  0.00000000000E+00 0. -1.
         23    2    1    2    0    0 -0.11559007321E+02  0.27700321387E+02 -0.59914291338E+02  0.11397687634E+03  0.92195919531E+02 0.  0.
          5    1    1    2  502    0  0.16096026494E+02 -0.39662777864E+02  0.27659088123E+02  0.51134289597E+02  0.41800000000E+01 0.  1.
         -5    1    1    2    0  502 -0.45370191736E+01  0.11962456477E+02 -0.91486873647E+02  0.92471646236E+02  0.41800000000E+01 0.  1.
        -11    1    3    3    0    0  0.23350391045E+02 -0.22948854804E+02 -0.34079249083E+02  0.47257654584E+02  0.00000000000E+00 0.  1.
         11    1    3    3    0    0 -0.34909398366E+02  0.50649176191E+02 -0.25835042256E+02  0.66719221754E+02  0.00000000000E+00 0. -1.
</event>
<event>
 7    1  0.4687179E-006  0.9862810E+02  0.7561462E-02  0.1283208E+00
         -3   -1    0    0    0  501 -0.00000000000E+00  0.00000000000E+00  0.42919306084E+02  0.42919306084E+02  0.00000000000E+00 0.  1.
          3   -1    0    0  501    0  0.00000000000E+00 -0.00000000000E+00 -0.34241788736E+03  0.34241788736E+03  0.00000000000E+00 0. -1.
         23    2    1    2    0    0 -0.17361438783E+02  0.42764117287E+02 -0.16524807329E+03  0.19612691541E+03  0.95019218778E+02 0.  0.
          5    1    1    2  502    0  0.36224789351E+02  0.10584416214E+02  0.55132559296E+01  0.38368393517E+02  0.41800000000E+01 0.  1.
         -5    1    1    2    0  502 -0.18863350569E+02 -0.53348533501E+02 -0.13976376391E+03  0.15084188451E+03  0.41800000000E+01 0.  1.
        -11    1    3    3    0    0 -0.47488893430E+02  0.52588954341E+02 -0.13422707977E+03  0.15178175800E+03  0.00000000000E+00 0. -1.
         11    1    3    3    0    0  0.30127454647E+02 -0.98248370536E+01 -0.31020993525E+02  0.44345157413E+02  0.00000000000E+00 0.  1.
</event>
<event>
 7    1  0.4687179E-006  0.7414150E+02  0.7561462E-02  0.1346550E+00
         -1   -1    0    0    0  501 -0.00000000000E+00  0.00000000000E+00  0.29933624621E+03  0.29933624621E+03  0.00000000000E+00 0.  1.
          1   -1    0    0  501    0  0.00000000000E+00 -0.00000000000E+00 -0.51688945753E+02  0.51688945753E+02  0.00000000000E+00 0. -1.
         23    2    1    2    0    0 -0.44209906626E+02 -0.41168638188E+02  0.11329030219E+03  0.15776612220E+03  0.91684699534E+02 0.  0.
          5    1    1    2  502    0  0.11169698150E+02  0.38289645883E+02  0.15077475273E+03  0.15601717085E+03  0.41800000000E+01 0. -1.
         -5    1    1    2    0  502  0.33040208476E+02  0.28789923045E+01 -0.16417754469E+02  0.37241898912E+02  0.41800000000E+01 0. -1.
        -11    1    3    3    0    0  0.54098766094E+01 -0.20149521097E+02  0.10014873253E+03  0.10229877122E+03  0.00000000000E+00 0.  1.
         11    1    3    3    0    0 -0.49619783235E+02 -0.21019117091E+02  0.13141569662E+02  0.55467350980E+02  0.00000000000E+00 0. -1.
</event>
<event>
 7    1  0.4687179E-006  0.1623301E+03  0.7561462E-02  0.1186091E+00
         -2   -1    0    0    0  501 -0.00000000000E+00  0.00000000000E+00  0.11521835816E+03  0.11521835816E+03  0.00000000000E+00 0.  1.
          2   -1    0    0  501    0  0.00000000000E+00 -0.00000000000E+00 -0.37694174866E+03  0.37694174866E+03  0.00000000000E+00 0. -1.
         23    2    1    2    0    0  0.14055748576E+02  0.13595503179E+03 -0.25978507688E+03  0.30687297602E+03  0.89450559021E+02 0.  0.
          5    1    1    2  502    0 -0.58757128494E+02 -0.11915089799E+03  0.16476224501E+02  0.13393384567E+03  0.41800000000E+01 0. -1.
         -5    1    1    2    0  502  0.44701379918E+02 -0.16804133792E+02 -0.18414538129E+02  0.51353285129E+02  0.41800000000E+01 0. -1.
        -11    1    3    3    0    0 -0.14795226282E+02  0.24009757084E+02 -0.13018942041E+03  0.13320905503E+03  0.00000000000E+00 0. -1.
         11    1    3    3    0    0  0.28850974858E+02  0.11194527470E+03 -0.12959565647E+03  0.17366392099E+03  0.00000000000E+00 0.  1.
</event>
<event>
 7    1  0.4687179E-006  0.1320927E+03  0.7561462E-02  0.1224383E+00
         -1   -1    0    0    0  501 -0.00000000000E+00  0.00000000000E+00  0.17165481655E+03  0.17165481655E+03  0.00000000000E+00 0.  1.
          1   -1    0    0  501    0  0.00000000000E+00 -0.00000000000E+00 -0.27208286498E+03  0.27208286498E+03  0.00000000000E+00 0. -1.
         23    2    1    2    0    0  0.12237066459E+03 -0.34484634999E+01 -0.19268000382E+03  0.24588755206E+03  0.91370853842E+02 0.  0.
          5    1    1    2  502    0 -0.26255271731E+02  0.23488821005E+02  0.93041743555E+02  0.99575611721E+02  0.41800000000E+01 0.  1.
         -5    1    1    2    0  502 -0.96115392858E+02 -0.20040357505E+02 -0.78978815145E+00  0.98274517747E+02  0.41800000000E+01 0.  1.
        -11    1    3    3    0    0  0.13779634253E+02 -0.16009679789E+02  0.33993948919E+01  0.21394953908E+02  0.00000000000E+00 0.  1.
         11    1    3    3    0    0  0.10859103034E+03  0.12561216289E+02 -0.19607939872E+03  0.22449259815E+03  0.00000000000E+00 0. -1.
</event>
<event>
 7    1  0.4687179E-006  0.1204514E+03  0.7561462E-02  0.1242354E+00
         -1   -1    0    0    0  501 -0.00000000000E+00  0.00000000000E+00  0.29848452344E+02  0.29848452344E+02  0.00000000000E+00 0.  1.
          1   -1    0    0  501    0  0.00000000000E+00 -0.00000000000E+00 -0.53836006225E+03  0.53836006225E+03  0.00000000000E+00 0. -1.
         23    2    1    2    0    0  0.53972083703E+02 -0.27710147887E+02 -0.26668850488E+03  0.28927031100E+03  0.94200403785E+02 0.  0.
          5    1    1    2  502    0 -0.61094710961E+02 -0.38377741628E+02 -0.13239504424E+03  0.15083545637E+03  0.41800000000E+01 0.  1.
         -5    1    1    2    0  502  0.71226272583E+01  0.66087889515E+02 -0.10942806079E+03  0.12810274723E+03  0.41800000000E+01 0.  1.
        -11    1    3    3    0    0  0.29530629909E+02  0.28311815651E+02 -0.52649140288E+02  0.66674950179E+02  0.00000000000E+00 0.  1.
         11    1    3    3    0    0  0.24441453795E+02 -0.56021963538E+02 -0.21403936460E+03  0.22259536082E+03  0.00000000000E+00 0. -1.
</event>
<event>
 7    1  0.4687179E-006  0.1924495E+03  0.7561462E-02  0.1156270E+00
         -1   -1    0    0    0  501 -0.00000000000E+00  0.00000000000E+00  0.24854782649E+02  0.24854782649E+02  0.00000000000E+00 0.  1.
          1   -1    0    0  501    0  0.00000000000E+00 -0.00000000000E+00 -0.18080505664E+04  0.18080505664E+04  0.00000000000E+00 0. -1.
         23    2    1    2    0    0  0.16484779870E+03  0.45987786075E+02 -0.60163757869E+03  0.63248186407E+03  0.93679555338E+02 0.  0.
          5    1    1    2  502    0 -0.87090660142E+02 -0.83321294952E+02 -0.81216078171E+03  0.82106627566E+03  0.41800000000E+01 0. -1.
         -5    1    1    2    0  502 -0.77757138555E+02  0.37333508877E+02 -0.36939742335E+03  0.37935720931E+03  0.41800000000E+01 0. -1.
        -11    1    3    3    0    0  0.93240065931E+02  0.75383885332E+00 -0.18326376374E+03  0.20562073161E+03  0.00000000000E+00 0.  1.
         11    1    3    3    0    0  0.71607732765E+02  0.45233947222E+02 -0.41837381495E+03  0.42686113246E+03  0.00000000000E+00 0. -1.
</event>
<event>
 7    1  0.4687179E-006  0.1347926E+03  0.7561462E-02  0.1220513E+00
         -1   -1    0    0    0  501 -0.00000000000E+00  0.00000000000E+00  0.98415443460E+02  0.98415443460E+02  0.00000000000E+00 0.  1.
          1   -1    0    0  501    0  0.00000000000E+00 -0.00000000000E+00 -0.30396611919E+03  0.30396611919E+03  0.00000000000E+00 0. -1.
         23    2    1    2    0    0  0.76331644467E+02  0.10816698428E+03 -0.11951500042E+03  0.20094405842E+03  0.92563831242E+02 0.  0.
          5    1    1    2  502    0 -0.70671217419E+02 -0.74388775524E+02  0.62811227103E+01  0.10288360315E+03  0.41800000000E+01 0. -1.
         -5    1    1    2    0  502 -0.56604270478E+01 -0.33778208753E+02 -0.92316798016E+02  0.98553901073E+02  0.41800000000E+01 0. -1.
        -11    1    3    3    0    0  0.34299876748E+02  0.49239823409E+02  0.13946102413E+01  0.60024883940E+02  0.00000000000E+00 0.  1.
         11    1    3    3    0    0  0.42031767718E+02  0.58927160868E+02 -0.12090961066E+03  0.14091917448E+03  0.00000000000E+00 0. -1.
</event>
<event>
 7    1  0.4687179E-006  0.1095324E+03  0.7561462E-02  0.1261438E+00
          2   -1    0    0  501    0  0.00000000000E+00  0.00000000000E+00  0.21307667979E+03  0.21307667979E+03  0.00000000000E+00 0. -1.
         -2   -1    0    0    0  501 -0.00000000000E+00 -0.00000000000E+00 -0.91061677703E+02  0.91061677703E+02  0.00000000000E+00 0.  1.
         23    2    1    2    0    0 -0.78950576045E+02 -0.25645994465E+02  0.84301320975E+02  0.14934219930E+03  0.91134347441E+02 0.  0.
          5    1    1    2  502    0  0.59602863777E+02 -0.51740645227E+01 -0.37783437100E+02  0.70882528406E+02  0.41800000000E+01 0. -1.
         -5    1    1    2    0  502  0.19347712267E+02  0.30820058988E+02  0.75497118206E+02  0.83913629783E+02  0.41800000000E+01 0. -1.
        -11    1    3    3    0    0  0.82092263671E+01  0.21751576947E+02  0.96134940483E+01  0.25158333909E+02  0.00000000000E+00 0. -1.
         11    1    3    3    0    0 -0.87159802412E+02 -0.47397571413E+02  0.74687826927E+02  0.12418386539E+03  0.00000000000E+00 0.  1.
</event>
<event>
 6    1  0.4687179E-006  0.1025009E+03  0.7561462E-02  0.1275123E+00
         -1   -1    0    0    0  501 -0.00000000000E+00  0.00000000000E+00  0.53609633153E+02  0.53609633153E+02  0.00000000000E+00 0.  1.
          1   -1    0    0  501    0  0.00000000000E+00 -0.00000000000E+00 -0.24027057563E+03  0.24027057563E+03  0.00000000000E+00 0. -1.
          5    1    1    2  502    0  0.37746947845E+02 -0.87044053600E+02 -0.76547808416E+02  0.12197761562E+03  0.41800000000E+01 0.  1.
         -5    1    1    2    0  502 -0.28895682311E+02  0.23484308335E+02  0.12772710732E+01  0.37491025801E+02  0.41800000000E+01 0.  1.
        -11    1    1    2    0    0  0.94456247132E+01  0.46826428897E+02 -0.55237967233E+02  0.73028537528E+02  0.00000000000E+00 0.  1.
         11    1    1    2    0    0 -0.18296890247E+02  0.16733316368E+02 -0.56152437900E+02  0.61383029833E+02  0.00000000000E+00 0. -1.
</event>
<event>
 7    1  0.4687179E-006  0.1274952E+03  0.7561462E-02  0.1231220E+00
         -1   -1    0    0    0  501 -0.00000000000E+00  0.00000000000E+00  0.54163594144E+02  0.54163594144E+02  0.00000000000E+00 0.  1.
          1   -1    0    0  501    0  0.00000000000E+00 -0.00000000000E+00 -0.43024315929E+03  0.43024315929E+03  0.00000000000E+00 0. -1.
         23    2    1    2    0    0  0.23648999032E+02 -0.92641650828E+02 -0.24839039546E+03  0.28169007350E+03  0.92248351352E+02 0.  0.
          5    1    1    2  502    0  0.29315435180E+02  0.18464202872E+01 -0.83501194512E+02  0.88615607500E+02  0.41800000000E+01 0. -1.
         -5    1    1    2    0  502 -0.52964434212E+02  0.90795230540E+02 -0.44187975167E+02  0.11410107243E+03  0.41800000000E+01 0. -1.
        -11    1    3    3    0    0 -0.26386076483E+02 -0.33981412842E+02 -0.37233071227E+02  0.56896951095E+02  0.00000000000E+00 0.  1.
         11    1    3    3    0    0  0.50035075515E+02 -0.58660237986E+02 -0.21115732424E+03  0.22479312241E+03  0.00000000000E+00 0. -1.
</event>
<event>
 7    1  0.4687179E-006  0.9638708E+02  0.7561462E-02  0.1288082E+00
          1   -1    0    0  501    0  0.00000000000E+00  0.00000000000E+00  0.24272289753E+02  0.24272289753E+02  0.00000000000E+00 0. -1.
         -1   -1    0    0    0  501 -0.00000000000E+00 -0.00000000000E+00 -0.64132049891E+03  0.64132049891E+03  0.00000000000E+00 0.  1.
         23    2    1    2    0    0 -0.23726704385E+02  0.20950706498E+02 -0.14422384110E+03  0.17547814855E+03  0.94816536916E+02 0.  0.
          5    1    1    2  502    0 -0.25846030866E+02 -0.33173785950E+02 -0.56014569597E+02  0.70168524232E+02  0.41800000000E+01 0.  1.
         -5    1    1    2    0  502  0.49572735251E+02  0.12223079453E+02 -0.41680979845E+03  0.41994611587E+03  0.41800000000E+01 0.  1.
        -11    1    3    3    0    0  0.13413086962E+02 -0.31948478163E+02 -0.60339671793E+02  0.69580831778E+02  0.00000000000E+00 0.  1.
         11    1    3    3    0    0 -0.37139791347E+02  0.52899184661E+02 -0.83884169310E+02  0.10589731677E+03  0.00000000000E+00 0. -1.
</event>
<event>
 7    1  0.4687179E-006  0.1313365E+03  0.7561462E-02  0.1225486E+00
         -1   -1    0    0    0  501 -0.00000000000E+00  0.00000000000E+00  0.34548640603E+03  0.34548640603E+03  0.00000000000E+00 0.  1.
          1   -1    0    0  501    0  0.00000000000E+00 -0.00000000000E+00 -0.54991916971E+02  0.54991916971E+02  0.00000000000E+00 0. -1.
         23    2    1    2    0    0 -0.49530800531E+02 -0.61714514574E+02  0.81421695374E+02  0.14431253959E+03  0.89076568720E+02 0.  0.
          5    1    1    2  502    0  0.62124883524E+02 -0.16915390121E+02  0.65546741118E+02  0.91975427409E+02  0.41800000000E+01 0.  1.
         -5    1    1    2    0  502 -0.12594082993E+02  0.78629904695E+02  0.14352605257E+03  0.16419035600E+03  0.41800000000E+01 0.  1.
        -11    1    3    3    0    0  0.25313780146E+02 -0.90090772047E+01  0.25497048776E+02  0.37041199139E+02  0.00000000000E+00 0.  1.
         11    1    3    3    0    0 -0.74844580677E+02 -0.52705437369E+02  0.55924646597E+02  0.10727134045E+03  0.00000000000E+00 0. -1.
</event>
<event>
 7    1  0.4687179E-006  0.1602142E+03  0.7561462E-02  0.1188455E+00
         -4   -1    0    0    0  501 -0.00000000000E+00  0.00000000000E+00  0.12128360146E+03  0.12128360146E+03  0.00000000000E+00 0.  1.
          4   -1    0    0  501    0  0.00000000000E+00 -0.00000000000E+00 -0.27720551919E+03  0.27720551919E+03  0.00000000000E+00 0. -1.
         23    2    1    2    0    0  0.35787761261E+02 -0.14214667560E+03 -0.91098869174E+02  0.19517523300E+03  0.91147827016E+02 0.  0.
          5    1    1    2  502    0  0.29447095482E+02  0.69574680102E+02 -0.73207102936E+02  0.10528304642E+03  0.41800000000E+01 0.  1.
         -5    1    1    2    0  502 -0.65234856744E+02  0.72571995499E+02  0.83840543793E+01  0.98030841233E+02  0.41800000000E+01 0.  1.
        -11    1    3    3    0    0  0.24606450197E+02 -0.11717498364E+03 -0.23182074259E+02  0.12195434699E+03  0.00000000000E+00 0.  1.
         11    1    3    3    0    0  0.11181311064E+02 -0.24971691963E+02 -0.67916794914E+02  0.73220886010E+02  0.00000000000E+00 0. -1.
</event>
<event>
 7    1  0.4687179E-006  0.9027446E+02  0.7561462E-02  0.1302188E+00
         -2   -1    0    0    0  501 -0.00000000000E+00  0.00000000000E+00  0.70048130771E+02  0.70048130771E+02  0.00000000000E+00 0.  1.
          2   -1    0    0  501    0  0.00000000000E+00 -0.00000000000E+00 -0.22265596144E+03  0.22265596144E+03  0.00000000000E+00 0. -1.
         23    2    1    2    0    0  0.22555860045E+02  0.37678262126E+02 -0.11825025151E+03  0.15577426091E+03  0.91400657106E+02 0.  0.
          5    1    1    2  502    0  0.49541265035E+02 -0.14497899398E+02 -0.32338981652E+02  0.61055779108E+02  0.41800000000E+01 0. -1.
         -5    1    1    2    0  502 -0.72097125080E+02 -0.23180362728E+02 -0.20185975075E+01  0.75874052198E+02  0.41800000000E+01 0. -1.
        -11    1    3    3    0    0 -0.51351982095E+01  0.18576911369E+02  0.11017939208E+02  0.22200605421E+02  0.00000000000E+00 0.  1.
         11    1    3    3    0    0  0.27691058255E+02  0.19101350757E+02 -0.12926819072E+03  0.13357365549E+03  0.00000000000E+00 0. -1.
</event>
<event>
 7    1  0.4687179E-006  0.1053028E+03  0.7561462E-02  0.1269524E+00
         -1   -1    0    0    0  501 -0.00000000000E+00  0.00000000000E+00  0.77408561586E+02  0.77408561586E+02  0.00000000000E+00 0.  1.
          1   -1    0    0  501    0  0.00000000000E+00 -0.00000000000E+00 -0.16920381903E+03  0.16920381903E+03  0.00000000000E+00 0. -1.
         23    2    1    2    0    0  0.95431514771E+01 -0.18346333720E+02 -0.72031105231E+02  0.11829168954E+03  0.91524772564E+02 0.  0.
          5    1    1    2  502    0 -0.41783956058E+02  0.59586581185E+02 -0.21392008083E+01  0.72928103097E+02  0.41800000000E+01 0.  1.
         -5    1    1    2    0  502  0.32240804581E+02 -0.41240247465E+02 -0.17624951407E+02  0.55392587980E+02  0.41800000000E+01 0.  1.
        -11    1    3    3    0    0  0.67592867048E+01  0.33044593638E+02 -0.54946314323E+01  0.34173441443E+02  0.00000000000E+00 0.  1.
         11    1    3    3    0    0  0.27838647723E+01 -0.51390927358E+02 -0.66536473798E+02  0.84118248099E+02  0.00000000000E+00 0. -1.
</event>
<event>
 7    1  0.4687179E-006  0.1100460E+03  0.7561462E-02  0.1260485E+00
          1   -1    0    0  501    0  0.00000000000E+00  0.00000000000E+00  0.17364019719E+03  0.17364019719E+03  0.00000000000E+00 0. -1.
         -1   -1    0    0    0  501 -0.00000000000E+00 -0.00000000000E+00 -0.84023934022E+02  0.84023934022E+02  0.00000000000E+00 0.  1.
         23    2    1    2    0    0  0.41351984333E+02 -0.22641811830E+02  0.42485566113E+02  0.11591973844E+03  0.97003732817E+02 0.  0.
          5    1    1    2  502    0 -0.76235080105E+02  0.13635293483E+02  0.65109415503E+02  0.10126409558E+03  0.41800000000E+01 0.  1.
         -5    1    1    2    0  502  0.34883095773E+02  0.90065183468E+01 -0.17978718450E+02  0.40480297189E+02  0.41800000000E+01 0.  1.
        -11    1    3    3    0    0 -0.26125901817E+02 -0.28343172967E+02  0.60425311687E+01  0.39018077637E+02  0.00000000000E+00 0.  1.
         11    1    3    3    0    0  0.67477886150E+02  0.57013611373E+01  0.36443034944E+02  0.76901660801E+02  0.00000000000E+00 0. -1.
</event>
<event>
 7    1  0.4687179E-006  0.5209064E+02  0.7561462E-02  0.1434381E+00
         -1   -1    0    0    0  501 -0.00000000000E+00  0.00000000000E+00  0.91856287640E+02  0.91856287640E+02  0.00000000000E+00 0.  1.
          1   -1    0    0  501    0  0.00000000000E+00 -0.00000000000E+00 -0.20522823297E+03  0.20522823297E+03  0.00000000000E+00 0. -1.
         23    2    1    2    0    0  0.93862099278E+01  0.54336496271E+00 -0.15288269709E+03  0.17903572937E+03  0.92694536732E+02 0.  0.
          5    1    1    2  502    0 -0.73605802809E+01  0.98113272635E+01 -0.37774226578E+02  0.39935008180E+02  0.41800000000E+01 0. -1.
         -5    1    1    2    0  502 -0.20256296470E+01 -0.10354692226E+02  0.77284978339E+02  0.78113783057E+02  0.41800000000E+01 0.  1.
        -11    1    3    3    0    0  0.11327849319E+02 -0.38832323892E+02 -0.12324707652E+03  0.12971550185E+03  0.00000000000E+00 0.  1.
         11    1    3    3    0    0 -0.19416393915E+01  0.39375688855E+02 -0.29635620567E+02  0.49320227521E+02  0.00000000000E+00 0. -1.
</event>
<event>
 7    1  0.4687179E-006  0.4013731E+03  0.7561462E-02  0.1043305E+00
         -1   -1    0    0    0  501 -0.00000000000E+00  0.00000000000E+00  0.13540833217E+03  0.13540833217E+03  0.00000000000E+00 0.  1.
          1   -1    0    0  501    0  0.00000000000E+00 -0.00000000000E+00 -0.13732077305E+04  0.13732077305E+04  0.00000000000E+00 0. -1.
         23    2    1    2    0    0 -0.17097937211E+03  0.35716455858E+03 -0.84386058902E+03  0.93622190281E+03  0.87236976217E+02 0.  0.
          5    1    1    2  502    0  0.96204673394E+02 -0.27769110980E+03 -0.34357777292E+03  0.45214029912E+03  0.41800000000E+01 0.  1.
         -5    1    1    2    0  502  0.74774698717E+02 -0.79473448781E+02 -0.50361036351E+02  0.12025386069E+03  0.41800000000E+01 0.  1.
        -11    1    3    3    0    0 -0.15762122714E+03  0.27997215413E+03 -0.73449752010E+03  0.80169536943E+03  0.00000000000E+00 0.  1.
         11    1    3    3    0    0 -0.13358144971E+02  0.77192404442E+02 -0.10936306892E+03  0.13452653339E+03  0.00000000000E+00 0. -1.
</event>
<event>
 7    1  0.4687179E-006  0.1278118E+03  0.7561462E-02  0.1230739E+00
         -2   -1    0    0    0  501 -0.00000000000E+00  0.00000000000E+00  0.17194739573E+02  0.17194739573E+02  0.00000000000E+00 0.  1.
          2   -1    0    0  501    0  0.00000000000E+00 -0.00000000000E+00 -0.10187098472E+04  0.10187098472E+04  0.00000000000E+00 0. -1.
         23    2    1    2    0    0 -0.77202074590E+02  0.19929406136E+02 -0.53931564084E+03  0.55048395183E+03  0.76248798140E+02 0.  0.
          5    1    1    2  502    0  0.10245712907E+03  0.13251076814E+02 -0.28045771441E+03  0.29890977954E+03  0.41800000000E+01 0. -1.
         -5    1    1    2    0  502 -0.25255054479E+02 -0.33180482949E+02 -0.18174175242E+03  0.18651085544E+03  0.41800000000E+01 0. -1.
        -11    1    3    3    0    0 -0.28964204482E+02 -0.29438801384E+02 -0.20357080809E+03  0.20771769803E+03  0.00000000000E+00 0. -1.
         11    1    3    3    0    0 -0.48237870109E+02  0.49368207519E+02 -0.33574483275E+03  0.34276625380E+03  0.00000000000E+00 0.  1.
</event>
<event>
 7    1  0.4687179E-006  0.1345388E+03  0.7561462E-02  0.1220872E+00
         -1   -1    0    0    0  501 -0.00000000000E+00  0.00000000000E+00  0.23194659165E+02  0.23194659165E+02  0.00000000000E+00 0.  1.
          1   -1    0    0  501    0  0.00000000000E+00 -0.00000000000E+00 -0.87889426123E+03  0.87889426123E+03  0.00000000000E+00 0. -1.
         23    2    1    2    0    0 -0.86078744490E+02  0.16652606655E+02 -0.49086755019E+03  0.50656852085E+03  0.89296444087E+02 0.  0.
          5    1    1    2  502    0  0.65663628651E+02 -0.65551622324E+02 -0.17173677514E+03  0.19524271985E+03  0.41800000000E+01 0. -1.
         -5    1    1    2    0  502  0.20415115839E+02  0.48899015669E+02 -0.19309527674E+03  0.20027767970E+03  0.41800000000E+01 0. -1.
        -11    1    3    3    0    0 -0.48642901465E+02  0.52249823429E+02 -0.23788531241E+03  0.24836585468E+03  0.00000000000E+00 0.  1.
         11    1    3    3    0    0 -0.37435843025E+02 -0.35597216774E+02 -0.25298223778E+03  0.25820266617E+03  0.00000000000E+00 0. -1.
</event>
<event>
 7    1  0.4687179E-006  0.1645063E+03  0.7561462E-02  0.1183701E+00
         -1   -1    0    0    0  501 -0.00000000000E+00  0.00000000000E+00  0.31904298973E+02  0.31904298973E+02  0.00000000000E+00 0.  1.
          1   -1    0    0  501    0  0.00000000000E+00 -0.00000000000E+00 -0.96039637816E+03  0.96039637816E+03  0.00000000000E+00 0. -1.
         23    2    1    2    0    0 -0.10449119932E+03  0.82567412335E+02 -0.49697290415E+03  0.52369556577E+03  0.97668776157E+02 0.  0.
          5    1    1    2  502    0  0.11934948252E+03 -0.10183450643E+03 -0.35352431135E+03  0.38679642810E+03  0.41800000000E+01 0.  1.
         -5    1    1    2    0  502 -0.14858283202E+02  0.19267094098E+02 -0.77994863689E+02  0.81808683259E+02  0.41800000000E+01 0.  1.
        -11    1    3    3    0    0 -0.50852080268E+02  0.78571264618E+02 -0.41661033842E+03  0.42699362029E+03  0.00000000000E+00 0. -1.
         11    1    3    3    0    0 -0.53639119049E+02  0.39961477169E+01 -0.80362565726E+02  0.96701945477E+02  0.00000000000E+00 0.  1.
</event>
<event>
 7    1  0.4687179E-006  0.1480370E+03  0.7561462E-02  0.1202906E+00
         -2   -1    0    0    0  501 -0.00000000000E+00  0.00000000000E+00  0.10109729031E+03  0.10109729031E+03  0.00000000000E+00 0.  1.
          2   -1    0    0  501    0  0.00000000000E+00 -0.00000000000E+00 -0.26350776569E+03  0.26350776569E+03  0.00000000000E+00 0. -1.
         23    2    1    2    0    0 -0.20272153825E+02  0.11374215157E+03 -0.34199692814E+02  0.15146261443E+03  0.91777270159E+02 0.  0.
          5    1    1    2  502    0 -0.49619020418E+02 -0.24644777392E+02 -0.55337824337E+02  0.78416576324E+02  0.41800000000E+01 0.  1.
         -5    1    1    2    0  502  0.69891174244E+02 -0.89097374180E+02 -0.72872958233E+02  0.13472586524E+03  0.41800000000E+01 0.  1.
        -11    1    3    3    0    0 -0.29541886218E+02  0.27187571982E+02 -0.48804663507E+02  0.63196378786E+02  0.00000000000E+00 0. -1.
         11    1    3    3    0    0  0.92697323925E+01  0.86554579590E+02  0.14604970693E+02  0.88266235649E+02  0.00000000000E+00 0.  1.
</event>
<event>
 7    1  0.4687179E-006  0.1071633E+03  0.7561462E-02  0.1265915E+00
         -2   -1    0    0    0  501 -0.00000000000E+00  0.00000000000E+00  0.32956716212E+02  0.32956716212E+02  0.00000000000E+00 0.  1.
          2   -1    0    0  501    0  0.00000000000E+00 -0.00000000000E+00 -0.44171651873E+03  0.44171651873E+03  0.00000000000E+00 0. -1.
         23    2    1    2    0    0 -0.42155641246E+02  0.33224288576E+02 -0.16633788047E+03  0.19665669340E+03  0.90136635955E+02 0.  0.
          5    1    1    2  502    0 -0.35566035127E+02 -0.40911367371E+01 -0.14756260584E+03  0.15190087326E+03  0.41800000000E+01 0.  1.
         -5    1    1    2    0  502  0.77721676373E+02 -0.29133151839E+02 -0.94859316211E+02  0.12611566828E+03  0.41800000000E+01 0.  1.
        -11    1    3    3    0    0  0.21487620001E+02  0.21621795876E+02 -0.97663636275E+02  0.10231034024E+03  0.00000000000E+00 0. -1.
         11    1    3    3    0    0 -0.63643261247E+02  0.11602492700E+02 -0.68674244191E+02  0.94346353158E+02  0.00000000000E+00 0.  1.
</event>
<event>
 7    1  0.4687179E-006  0.1048389E+03  0.7561462E-02  0.1270437E+00
          2   -1    0    0  501    0  0.00000000000E+00  0.00000000000E+00  0.78605404959E+03  0.78605404959E+03  0.00000000000E+00 0. -1.
         -2   -1    0    0    0  501 -0.00000000000E+00 -0.00000000000E+00 -0.15745089092E+02  0.15745089092E+02  0.00000000000E+00 0.  1.
         23    2    1    2    0    0 -0.23909967783E+02 -0.93685978217E+01  0.33657532194E+03  0.34965748284E+03  0.91202800297E+02 0.  0.
          5    1    1    2  502    0  0.59326566878E+02 -0.33341023649E+02  0.29253342866E+03  0.30037400799E+03  0.41800000000E+01 0.  1.
         -5    1    1    2    0  502 -0.35416599095E+02  0.42709621471E+02  0.14120020989E+03  0.15176764784E+03  0.41800000000E+01 0.  1.
        -11    1    3    3    0    0 -0.48871437531E+02  0.14847851528E+02  0.26736929477E+03  0.27220436419E+03  0.00000000000E+00 0. -1.
         11    1    3    3    0    0  0.24961469748E+02 -0.24216449349E+02  0.69206027178E+02  0.77453118651E+02  0.00000000000E+00 0.  1.
</event>
<event>
 7    1  0.4687179E-006  0.1608501E+03  0.7561462E-02  0.1187740E+00
          1   -1    0    0  501    0  0.00000000000E+00  0.00000000000E+00  0.26193158116E+03  0.26193158116E+03  0.00000000000E+00 0. -1.
         -1   -1    0    0    0  501 -0.00000000000E+00 -0.00000000000E+00 -0.12426510829E+03  0.12426510829E+03  0.00000000000E+00 0.  1.
         23    2    1    2    0    0  0.50948431499E+02  0.13389875509E+03  0.78332677565E+02  0.18696615953E+03  0.91080827543E+02 0.  0.
          5    1    1    2  502    0 -0.44783434026E+02 -0.14270796284E+03  0.84290424529E+02  0.17173662011E+03  0.41800000000E+01 0.  1.
         -5    1    1    2    0  502 -0.61649974729E+01  0.88092077425E+01 -0.24956629216E+02  0.27493909812E+02  0.41800000000E+01 0.  1.
        -11    1    3    3    0    0  0.52009922382E+02  0.37470945440E+02  0.22652725600E+01  0.64142304590E+02  0.00000000000E+00 0.  1.
         11    1    3    3    0    0 -0.10614908830E+01  0.96427809652E+02  0.76067405005E+02  0.12282385494E+03  0.00000000000E+00 0. -1.
</event>
<event>
 7    1  0.4687179E-006  0.1104419E+03  0.7561462E-02  0.1259754E+00
          1   -1    0    0  501    0  0.00000000000E+00  0.00000000000E+00  0.17143343466E+03  0.17143343466E+03  0.00000000000E+00 0. -1.
         -1   -1    0    0    0  501 -0.00000000000E+00 -0.00000000000E+00 -0.21850154302E+03  0.21850154302E+03  0.00000000000E+00 0.  1.
         23    2    1    2    0    0 -0.61141006379E+02 -0.56343946256E+01  0.11893133736E+03  0.16110453526E+03  0.89666265745E+02 0.  0.
          5    1    1    2  502    0 -0.17227818362E+02 -0.26496016257E+02  0.10045524414E+02  0.33424864454E+02  0.41800000000E+01 0. -1.
         -5    1    1    2    0  502  0.78368824741E+02  0.32130410883E+02 -0.17604497013E+03  0.19540557797E+03  0.41800000000E+01 0.  1.
        -11    1    3    3    0    0 -0.79593593331E+01 -0.40064487253E+02  0.25281719906E+02  0.48038317011E+02  0.00000000000E+00 0.  1.
         11    1    3    3    0    0 -0.53181647046E+02  0.34430092628E+02  0.93649617449E+02  0.11306621825E+03  0.00000000000E+00 0. -1.
</event>
<event>
 7    1  0.4687179E-006  0.1184702E+03  0.7561462E-02  0.1245642E+00
         -2   -1    0    0    0  501 -0.00000000000E+00  0.00000000000E+00  0.13783866524E+03  0.13783866524E+03  0.00000000000E+00 0.  1.
          2   -1    0    0  501    0  0.00000000000E+00 -0.00000000000E+00 -0.14362995631E+03  0.14362995631E+03  0.00000000000E+00 0. -1.
         23    2    1    2    0    0 -0.16435363752E+02  0.78047152622E+02 -0.42817557058E+02  0.12856201631E+03  0.91287291736E+02 0.  0.
          5    1    1    2  502    0  0.70515654834E+01 -0.10113330448E+03 -0.74663502599E+01  0.10173931707E+03  0.41800000000E+01 0.  1.
         -5    1    1    2    0  502  0.93837982690E+01  0.23086151859E+02  0.44492616245E+02  0.51167288163E+02  0.41800000000E+01 0.  1.
        -11    1    3    3    0    0 -0.16375169054E+02 -0.11910869952E+02  0.11687774381E+02  0.23379885683E+02  0.00000000000E+00 0.  1.
         11    1    3    3    0    0 -0.60194698182E-01  0.89958022574E+02 -0.54505331439E+02  0.10518213063E+03  0.00000000000E+00 0. -1.
</event>
<event>
 7    1  0.4687179E-006  0.1996988E+03  0.7561462E-02  0.1149993E+00
         -2   -1    0    0    0  501 -0.00000000000E+00  0.00000000000E+00  0.10649170364E+03  0.10649170364E+03  0.00000000000E+00 0.  1.
          2   -1    0    0  501    0  0.00000000000E+00 -0.00000000000E+00 -0.46571685473E+03  0.46571685473E+03  0.00000000000E+00 0. -1.
         23    2    1    2    0    0  0.16160279952E+03  0.60439190538E+02 -0.28685422389E+03  0.34714601831E+03  0.91960054901E+02 0.  0.
          5    1    1    2  502    0 -0.17756233244E+03 -0.50004411937E+02 -0.42449391548E+02  0.18933633132E+03  0.41800000000E+01 0. -1.
         -5    1    1    2    0  502  0.15959532919E+02 -0.10434778601E+02 -0.29921535655E+02  0.35726208746E+02  0.41800000000E+01 0. -1.
        -11    1    3    3    0    0  0.11646583649E+03 -0.41766526487E+01 -0.16436915814E+03  0.20149182526E+03  0.00000000000E+00 0.  1.
         11    1    3    3    0    0  0.45136963033E+02  0.64615843187E+02 -0.12248506575E+03  0.14565419305E+03  0.00000000000E+00 0. -1.
</event>
<event>
 7    1  0.4687179E-006  0.9701835E+02  0.7561462E-02  0.1286694E+00
         -1   -1    0    0    0  501 -0.00000000000E+00  0.00000000000E+00  0.47071422709E+02  0.47071422709E+02  0.00000000000E+00 0.  1.
          1   -1    0    0  501    0  0.00000000000E+00 -0.00000000000E+00 -0.30098795810E+03  0.30098795810E+03  0.00000000000E+00 0. -1.
         23    2    1    2    0    0 -0.38389961885E+02  0.46715972097E+02 -0.14222523116E+03  0.16978849482E+03  0.70313194876E+02 0.  0.
          5    1    1    2  502    0 -0.15345680871E+02 -0.45441052272E+02  0.62917297877E+01  0.48553449071E+02  0.41800000000E+01 0.  1.
         -5    1    1    2    0  502  0.53735642756E+02 -0.12749198249E+01 -0.11798303402E+03  0.12971743691E+03  0.41800000000E+01 0.  1.
        -11    1    3    3    0    0 -0.40580354982E+02 -0.43986369985E+01 -0.74004943170E+02  0.84515352638E+02  0.00000000000E+00 0. -1.
         11    1    3    3    0    0  0.21903930961E+01  0.51114609096E+02 -0.68220287989E+02  0.85273142186E+02  0.00000000000E+00 0.  1.
</event>
<event>
 7    1  0.4687179E-006  0.1335489E+03  0.7561462E-02  0.1222283E+00
          2   -1    0    0  501    0  0.00000000000E+00  0.00000000000E+00  0.84983531480E+03  0.84983531480E+03  0.00000000000E+00 0. -1.
         -2   -1    0    0    0  501 -0.00000000000E+00 -0.00000000000E+00 -0.29468424411E+02  0.29468424411E+02  0.00000000000E+00 0.  1.
         23    2    1    2    0    0  0.49661862589E+02  0.57268127532E+02  0.48298917654E+03  0.49788866922E+03  0.94173474260E+02 0.  0.
          5    1    1    2  502    0 -0.92741651726E+02 -0.48913636558E+02  0.31492155126E+03  0.33194369049E+03  0.41800000000E+01 0. -1.
         -5    1    1    2    0  502  0.43079789137E+02 -0.83544909739E+01  0.22456162580E+02  0.49471379497E+02  0.41800000000E+01 0.  1.
        -11    1    3    3    0    0  0.20887752487E+02  0.79197237274E+02  0.38009595186E+03  0.38882056686E+03  0.00000000000E+00 0.  1.
         11    1    3    3    0    0  0.28774110102E+02 -0.21929109741E+02  0.10289322468E+03  0.10906810236E+03  0.00000000000E+00 0. -1.
</event>
<event>
 7    1  0.4687179E-006  0.9099282E+02  0.7561462E-02  0.1300465E+00
          3   -1    0    0  501    0  0.00000000000E+00  0.00000000000E+00  0.29855696903E+03  0.29855696903E+03  0.00000000000E+00 0. -1.
         -3   -1    0    0    0  501 -0.00000000000E+00 -0.00000000000E+00 -0.50424907538E+02  0.50424907538E+02  0.00000000000E+00 0.  1.
         23    2    1    2    0    0 -0.14357947967E+02  0.36493055409E+02  0.16684394566E+03  0.19473045420E+03  0.92440001231E+02 0.  0.
          5    1    1    2  502    0 -0.75731574947E+01 -0.63530919814E+02 -0.17211634649E+01  0.64140200268E+02  0.41800000000E+01 0. -1.
         -5    1    1    2    0  502  0.21931105462E+02  0.27037864404E+02  0.83009279297E+02  0.90111222096E+02  0.41800000000E+01 0. -1.
        -11    1    3    3    0    0 -0.10081140165E+02 -0.21976628611E+02  0.80877832739E+01  0.25495368803E+02  0.00000000000E+00 0.  1.
         11    1    3    3    0    0 -0.42768078028E+01  0.58469684020E+02  0.15875616239E+03  0.16923508540E+03  0.00000000000E+00 0. -1.
</event>
<event>
 7    1  0.4687179E-006  0.1254076E+03  0.7561462E-02  0.1234434E+00
          2   -1    0    0  501    0  0.00000000000E+00  0.00000000000E+00  0.27818066784E+03  0.27818066784E+03  0.00000000000E+00 0. -1.
         -2   -1    0    0    0  501 -0.00000000000E+00 -0.00000000000E+00 -0.84519269983E+02  0.84519269983E+02  0.00000000000E+00 0.  1.
         23    2    1    2    0    0 -0.57861729010E+02 -0.79845631946E+02  0.14236849861E+03  0.19536121971E+03  0.90409690549E+02 0.  0.
          5    1    1    2  502    0  0.64606896759E+02  0.69349682023E+01  0.65806860717E+02  0.92575159791E+02  0.41800000000E+01 0.  1.
         -5    1    1    2    0  502 -0.67451677488E+01  0.72910663743E+02 -0.14513961471E+02  0.74763558322E+02  0.41800000000E+01 0.  1.
        -11    1    3    3    0    0 -0.45929643056E+02 -0.17927759602E+02  0.12303049850E+02  0.50816352793E+02  0.00000000000E+00 0.  1.
         11    1    3    3    0    0 -0.11932085954E+02 -0.61917872343E+02  0.13006544876E+03  0.14454486692E+03  0.00000000000E+00 0. -1.
</event>
<event>
 7    1  0.4687179E-006  0.1090088E+03  0.7561462E-02  0.1262417E+00
          1   -1    0    0  501    0  0.00000000000E+00  0.00000000000E+00  0.50557736312E+03  0.50557736312E+03  0.00000000000E+00 0. -1.
         -1   -1    0    0    0  501 -0.00000000000E+00 -0.00000000000E+00 -0.79722787347E+02  0.79722787347E+02  0.00000000000E+00 0.  1.
         23    2    1    2    0    0  0.11305573740E+02  0.46823376294E+02  0.37462054419E+03  0.38844565366E+03  0.90715098801E+02 0.  0.
          5    1    1    2  502    0 -0.57010272774E+02 -0.37876649209E+02  0.10512023084E+03  0.12550915142E+03  0.41800000000E+01 0. -1.
         -5    1    1    2    0  502  0.45704699034E+02 -0.89467270858E+01 -0.53886199257E+02  0.71345345396E+02  0.41800000000E+01 0.  1.
        -11    1    3    3    0    0  0.49324313291E+02  0.11189912758E+02  0.18017983979E+03  0.18714399990E+03  0.00000000000E+00 0.  1.
         11    1    3    3    0    0 -0.38018739550E+02  0.35633463536E+02  0.19444070439E+03  0.20130165376E+03  0.00000000000E+00 0. -1.
</event>
<event>
 7    1  0.4687179E-006  0.2104693E+03  0.7561462E-02  0.1141195E+00
         -1   -1    0    0    0  501 -0.00000000000E+00  0.00000000000E+00  0.78924084890E+02  0.78924084890E+02  0.00000000000E+00 0.  1.
          1   -1    0    0  501    0  0.00000000000E+00 -0.00000000000E+00 -0.69826866827E+03  0.69826866827E+03  0.00000000000E+00 0. -1.
         23    2    1    2    0    0  0.15351117225E+02  0.19400157726E+03 -0.42311080762E+03  0.47477278143E+03  0.92272258455E+02 0.  0.
          5    1    1    2  502    0  0.17439982148E+02 -0.17907447017E+03 -0.11531665827E+03  0.21374569684E+03  0.41800000000E+01 0. -1.
         -5    1    1    2    0  502 -0.32791099373E+02 -0.14927107085E+02 -0.80917117488E+02  0.88674274886E+02  0.41800000000E+01 0.  1.
        -11    1    3    3    0    0  0.38770224038E+02  0.14907231578E+03 -0.37281309934E+03  0.40337983668E+03  0.00000000000E+00 0.  1.
         11    1    3    3    0    0 -0.23419106813E+02  0.44929261481E+02 -0.50297708285E+02  0.71392944748E+02  0.00000000000E+00 0. -1.
</event>
<event>
 7    1  0.4687179E-006  0.1211379E+03  0.7561462E-02  0.1241232E+00
          1   -1    0    0  501    0  0.00000000000E+00  0.00000000000E+00  0.86948122101E+03  0.86948122101E+03  0.00000000000E+00 0. -1.
         -1   -1    0    0    0  501 -0.00000000000E+00 -0.00000000000E+00 -0.17422129283E+02  0.17422129283E+02  0.00000000000E+00 0.  1.
         23    2    1    2    0    0 -0.24736317797E+02 -0.49868706446E+02  0.43008210295E+03  0.44326946873E+03  0.91752020869E+02 0.  0.
          5    1    1    2  502    0  0.62488242616E+02  0.69295414509E+02  0.26573969415E+03  0.28167657407E+03  0.41800000000E+01 0. -1.
         -5    1    1    2    0  502 -0.37751924819E+02 -0.19426708063E+02  0.15623729463E+03  0.16195730748E+03  0.41800000000E+01 0. -1.
        -11    1    3    3    0    0 -0.20933510267E+02 -0.76498315802E+02  0.34669285477E+03  0.35564889950E+03  0.00000000000E+00 0. -1.
         11    1    3    3    0    0 -0.38028075302E+01  0.26629609356E+02  0.83389248182E+02  0.87620569229E+02  0.00000000000E+00 0.  1.
</event>
<event>
 7    1  0.4687179E-006  0.1053421E+03  0.7561462E-02  0.1269447E+00
          2   -1    0    0  501    0  0.00000000000E+00  0.00000000000E+00  0.98543904102E+02  0.98543904102E+02  0.00000000000E+00 0. -1.
         -2   -1    0    0    0  501 -0.00000000000E+00 -0.00000000000E+00 -0.35958535187E+03  0.35958535187E+03  0.00000000000E+00 0.  1.
         23    2    1    2    0    0 -0.24194283359E+02  0.15713720122E+02  0.59486369731E+02  0.11285063620E+03  0.91456839867E+02 0.  0.
          5    1    1    2  502    0 -0.31190731168E+02 -0.42710006540E+02 -0.22760557310E+03  0.23370660170E+03  0.41800000000E+01 0.  1.
         -5    1    1    2    0  502  0.55385014528E+02  0.26996286417E+02 -0.92922244396E+02  0.11157201808E+03  0.41800000000E+01 0.  1.
        -11    1    3    3    0    0 -0.32411708960E+02  0.50569855038E+02  0.38438751355E+02  0.71311757249E+02  0.00000000000E+00 0.  1.
         11    1    3    3    0    0  0.82174256010E+01 -0.34856134915E+02  0.21047618376E+02  0.41538878946E+02  0.00000000000E+00 0. -1.
</event>
<event>
 7    1  0.4687179E-006  0.1046973E+03  0.7561462E-02  0.1270717E+00
         -1   -1    0    0    0  501 -0.00000000000E+00  0.00000000000E+00  0.46873727663E+02  0.46873727663E+02  0.00000000000E+00 0.  1.
          1   -1    0    0  501    0  0.00000000000E+00 -0.00000000000E+00 -0.37673454374E+03  0.37673454374E+03  0.00000000000E+00 0. -1.
         23    2    1    2    0    0  0.27439498526E+02  0.69161636426E+02 -0.17568297153E+03  0.21158303326E+03  0.91469204908E+02 0.  0.
          5    1    1    2  502    0 -0.50979453621E+02 -0.59908158791E+02 -0.28518604518E+02  0.83777535084E+02  0.41800000000E+01 0. -1.
         -5    1    1    2    0  502  0.23539955095E+02 -0.92534776356E+01 -0.12565924002E+03  0.12824770305E+03  0.41800000000E+01 0. -1.
        -11    1    3    3    0    0  0.42924604123E+02  0.10332115355E+02 -0.12445127941E+03  0.13205072963E+03  0.00000000000E+00 0. -1.
         11    1    3    3    0    0 -0.15485105597E+02  0.58829521071E+02 -0.51231692117E+02  0.79532303638E+02  0.00000000000E+00 0.  1.
</event>
<event>
 7    1  0.4687179E-006  0.9312067E+02  0.7561462E-02  0.1295466E+00
          3   -1    0    0  501    0  0.00000000000E+00  0.00000000000E+00  0.41799340378E+03  0.41799340378E+03  0.00000000000E+00 0.  1.
         -3   -1    0    0    0  501 -0.00000000000E+00 -0.00000000000E+00 -0.33451511077E+02  0.33451511077E+02  0.00000000000E+00 0. -1.
         23    2    1    2    0    0  0.31913626951E+02  0.36952418374E+02  0.18170910224E+03  0.20819063183E+03  0.89113301683E+02 0.  0.
          5    1    1    2  502    0 -0.74433510862E+02 -0.31125310032E+02  0.17266067490E+03  0.19062610923E+03  0.41800000000E+01 0. -1.
         -5    1    1    2    0  502  0.42519883911E+02 -0.58271083424E+01  0.30172115564E+02  0.52628173795E+02  0.41800000000E+01 0. -1.
        -11    1    3    3    0    0  0.33284158130E+02  0.91794329302E+01  0.17656863243E+03  0.17991269863E+03  0.00000000000E+00 0.  1.
         11    1    3    3    0    0 -0.13705311796E+01  0.27772985444E+02  0.51404698119E+01  0.28277933200E+02  0.00000000000E+00 0. -1.
</event>
<event>
 7    1  0.4687179E-006  0.1335340E+03  0.7561462E-02  0.1222304E+00
          1   -1    0    0  501    0  0.00000000000E+00  0.00000000000E+00  0.40873397061E+03  0.40873397061E+03  0.00000000000E+00 0. -1.
         -1   -1    0    0    0  501 -0.00000000000E+00 -0.00000000000E+00 -0.75593994866E+02  0.75593994866E+02  0.00000000000E+00 0.  1.
         23    2    1    2    0    0 -0.16138074479E+02 -0.77072793086E+02  0.30700563959E+03  0.33422178402E+03  0.10607113317E+03 0.  0.
          5    1    1    2  502    0 -0.47327555508E+02  0.40803309380E+02  0.41714976774E+02  0.75249048194E+02  0.41800000000E+01 0.  1.
         -5    1    1    2    0  502  0.63465629987E+02  0.36269483706E+02 -0.15580640622E+02  0.74857133262E+02  0.41800000000E+01 0.  1.
        -11    1    3    3    0    0  0.22609616832E+02 -0.88084744313E+02  0.22978507965E+03  0.24712608075E+03  0.00000000000E+00 0. -1.
         11    1    3    3    0    0 -0.38747691310E+02  0.11011951226E+02  0.77220559940E+02  0.87095703276E+02  0.00000000000E+00 0.  1.
</event>
<event>
 7    1  0.4687179E-006  0.1717636E+03  0.7561462E-02  0.1176021E+00
          1   -1    0    0  501    0  0.00000000000E+00  0.00000000000E+00  0.65133199252E+03  0.65133199252E+03  0.00000000000E+00 0. -1.
         -1   -1    0    0    0  501 -0.00000000000E+00 -0.00000000000E+00 -0.53488045049E+02  0.53488045049E+02  0.00000000000E+00 0.  1.
         23    2    1    2    0    0 -0.57425453595E+02 -0.50263350401E+02  0.33016833567E+03  0.35071336615E+03  0.90358442877E+02 0.  0.
          5    1    1    2  502    0  0.26369423488E+02 -0.84259380369E+02  0.68982983905E+02  0.11212097994E+03  0.41800000000E+01 0. -1.
         -5    1    1    2    0  502  0.31056030107E+02  0.13452273077E+03  0.19869262789E+03  0.24198569147E+03  0.41800000000E+01 0.  1.
        -11    1    3    3    0    0 -0.23260946308E+02  0.25129166119E+02  0.12134201912E+03  0.12608105415E+03  0.00000000000E+00 0.  1.
         11    1    3    3    0    0 -0.34164507287E+02 -0.75392516521E+02  0.20882631656E+03  0.22463231199E+03  0.00000000000E+00 0. -1.
</event>
<event>
 7    1  0.4687179E-006  0.8487997E+02  0.7561462E-02  0.1315747E+00
          1   -1    0    0  501    0  0.00000000000E+00  0.00000000000E+00  0.70913283707E+02  0.70913283707E+02  0.00000000000E+00 0. -1.
         -1   -1    0    0    0  501 -0.00000000000E+00 -0.00000000000E+00 -0.20648072821E+03  0.20648072821E+03  0.00000000000E+00 0.  1.
         23    2    1    2    0    0 -0.26627844539E+02  0.27051600667E+02 -0.17620055144E+02  0.10132337356E+03  0.92277453822E+02 0.  0.
          5    1    1    2  502    0  0.51646254692E+02 -0.65415151686E+02 -0.87502841116E+02  0.12091607543E+03  0.41800000000E+01 0.  1.
         -5    1    1    2    0  502 -0.25018410153E+02  0.38363551019E+02 -0.30444548243E+02  0.55154562922E+02  0.41800000000E+01 0.  1.
        -11    1    3    3    0    0 -0.11210112440E+02  0.27556149488E+01 -0.53840467540E+02  0.55064107907E+02  0.00000000000E+00 0.  1.
         11    1    3    3    0    0 -0.15417732099E+02  0.24295985718E+02  0.36220412396E+02  0.46259265658E+02  0.00000000000E+00 0. -1.
</event>
<event>
 7    1  0.4687179E-006  0.1160580E+03  0.7561462E-02  0.1249745E+00
         -1   -1    0    0    0  501 -0.00000000000E+00  0.00000000000E+00  0.19576701384E+03  0.19576701384E+03  0.00000000000E+00 0.  1.
          1   -1    0    0  501    0  0.00000000000E+00 -0.00000000000E+00 -0.18298194946E+03  0.18298194946E+03  0.00000000000E+00 0. -1.
         23    2    1    2    0    0  0.46476029999E+02 -0.89464106487E+02 -0.11205636089E+03  0.17529086424E+03  0.89478552485E+02 0.  0.
          5    1    1    2  502    0 -0.39463083855E+01  0.43604897287E+02 -0.17957325956E+02  0.47506824486E+02  0.41800000000E+01 0. -1.
         -5    1    1    2    0  502 -0.42529721614E+02  0.45859209199E+02  0.14279875123E+03  0.15595127457E+03  0.41800000000E+01 0. -1.
        -11    1    3    3    0    0  0.28758764585E+01  0.13411370900E+02 -0.40127768813E+02  0.42407232458E+02  0.00000000000E+00 0.  1.
         11    1    3    3    0    0  0.43600153541E+02 -0.10287547739E+03 -0.71928592078E+02  0.13288363178E+03  0.00000000000E+00 0. -1.
</event>
<event>
 7    1  0.4687179E-006  0.9198429E+02  0.7561462E-02  0.1298116E+00
         -1   -1    0    0    0  501 -0.00000000000E+00  0.00000000000E+00  0.11246020186E+03  0.11246020186E+03  0.00000000000E+00 0.  1.
          1   -1    0    0  501    0  0.00000000000E+00 -0.00000000000E+00 -0.14393855565E+03  0.14393855565E+03  0.00000000000E+00 0. -1.
         23    2    1    2    0    0  0.20676634302E+02 -0.58761470826E+02 -0.31203431215E+02  0.11665492205E+03  0.93564325779E+02 0.  0.
          5    1    1    2  502    0 -0.72281765613E+00 -0.18331821362E+02  0.44482588884E+02  0.48298563681E+02  0.41800000000E+01 0.  1.
         -5    1    1    2    0  502 -0.19953816646E+02  0.77093292188E+02 -0.44757511459E+02  0.91445271782E+02  0.41800000000E+01 0.  1.
        -11    1    3    3    0    0 -0.13959319707E+02 -0.46686169338E+02 -0.54573342402E+02  0.73162221912E+02  0.00000000000E+00 0. -1.
         11    1    3    3    0    0  0.34635954009E+02 -0.12075301488E+02  0.23369911187E+02  0.43492700135E+02  0.00000000000E+00 0.  1.
</event>
<event>
 7    1  0.4687179E-006  0.4309071E+03  0.7561462E-02  0.1033574E+00
         -1   -1    0    0    0  501 -0.00000000000E+00  0.00000000000E+00  0.34302614481E+03  0.34302614481E+03  0.00000000000E+00 0.  1.
          1   -1    0    0  501    0  0.00000000000E+00 -0.00000000000E+00 -0.59136289908E+03  0.59136289908E+03  0.00000000000E+00 0. -1.
         23    2    1    2    0    0 -0.72601933769E+02  0.42425550817E+03 -0.20151441210E+03  0.48372038197E+03  0.90075372031E+02 0.  0.
          5    1    1    2  502    0  0.22377670580E+02 -0.87620632071E+02 -0.62357925457E+02  0.10992778799E+03  0.41800000000E+01 0. -1.
         -5    1    1    2    0  502  0.50224263189E+02 -0.33663487610E+03  0.15535583279E+02  0.34074087393E+03  0.41800000000E+01 0. -1.
        -11    1    3    3    0    0 -0.31879791805E+02  0.13071225729E+03 -0.10931651060E+03  0.17335545800E+03  0.00000000000E+00 0. -1.
         11    1    3    3    0    0 -0.40722141964E+02  0.29354325088E+03 -0.92197901502E+02  0.31036492396E+03  0.00000000000E+00 0.  1.
</event>
<event>
 7    1  0.4687179E-006  0.1565954E+03  0.7561462E-02  0.1192595E+00
         -2   -1    0    0    0  501 -0.00000000000E+00  0.00000000000E+00  0.16651165641E+03  0.16651165641E+03  0.00000000000E+00 0.  1.
          2   -1    0    0  501    0  0.00000000000E+00 -0.00000000000E+00 -0.23488153225E+03  0.23488153225E+03  0.00000000000E+00 0. -1.
         23    2    1    2    0    0  0.11802049026E+03  0.97580267669E+01 -0.15205561176E+03  0.20988517146E+03  0.83107285619E+02 0.  0.
          5    1    1    2  502    0 -0.52080429361E+02  0.55891383249E+02  0.21353389564E+02  0.79433352502E+02  0.41800000000E+01 0. -1.
         -5    1    1    2    0  502 -0.65940060900E+02 -0.65649410016E+02  0.62332346350E+02  0.11207466470E+03  0.41800000000E+01 0. -1.
        -11    1    3    3    0    0  0.33614506904E+02 -0.34555658481E+02 -0.63865313298E+02  0.80017540890E+02  0.00000000000E+00 0. -1.
         11    1    3    3    0    0  0.84405983357E+02  0.44313685248E+02 -0.88190298460E+02  0.12986763057E+03  0.00000000000E+00 0.  1.
</event>
<event>
 7    1  0.4687179E-006  0.2038310E+03  0.7561462E-02  0.1146546E+00
         -1   -1    0    0    0  501 -0.00000000000E+00  0.00000000000E+00  0.66069638244E+02  0.66069638244E+02  0.00000000000E+00 0.  1.
          1   -1    0    0  501    0  0.00000000000E+00 -0.00000000000E+00 -0.80946108738E+03  0.80946108738E+03  0.00000000000E+00 0. -1.
         23    2    1    2    0    0 -0.17165967726E+03 -0.81803938295E+02 -0.49796286044E+03  0.54080587771E+03  0.91351288263E+02 0.  0.
          5    1    1    2  502    0  0.81116736696E+02  0.50807786724E+01 -0.18362856366E+03  0.20085482587E+03  0.41800000000E+01 0. -1.
         -5    1    1    2    0  502  0.90542940565E+02  0.76723159622E+02 -0.61800025043E+02  0.13387002205E+03  0.41800000000E+01 0. -1.
        -11    1    3    3    0    0 -0.19491188543E+02 -0.47778248924E+02 -0.17008005312E+03  0.17773545502E+03  0.00000000000E+00 0.  1.
         11    1    3    3    0    0 -0.15216848872E+03 -0.34025689370E+02 -0.32788280732E+03  0.36307042269E+03  0.00000000000E+00 0. -1.
</event>
<event>
 7    1  0.4687179E-006  0.8284380E+02  0.7561462E-02  0.1321169E+00
         -2   -1    0    0    0  501 -0.00000000000E+00  0.00000000000E+00  0.18351681241E+03  0.18351681241E+03  0.00000000000E+00 0.  1.
          2   -1    0    0  501    0  0.00000000000E+00 -0.00000000000E+00 -0.63314936190E+02  0.63314936190E+02  0.00000000000E+00 0. -1.
         23    2    1    2    0    0  0.20880182593E+01  0.10377797905E+01  0.45602342333E+02  0.10116441685E+03  0.90273079067E+02 0.  0.
          5    1    1    2  502    0 -0.50420205219E+02 -0.13036185952E+01  0.82231157518E+02  0.96557403561E+02  0.41800000000E+01 0.  1.
         -5    1    1    2    0  502  0.48332186959E+02  0.26583880470E+00 -0.76316236351E+01  0.49109928180E+02  0.41800000000E+01 0.  1.
        -11    1    3    3    0    0 -0.31879120497E+02  0.53486671370E+01  0.56618600566E+02  0.65196261349E+02  0.00000000000E+00 0.  1.
         11    1    3    3    0    0  0.33967138757E+02 -0.43108873465E+01 -0.11016258233E+02  0.35968155506E+02  0.00000000000E+00 0. -1.
</event>
<event>
 7    1  0.4687179E-006  0.7669941E+02  0.7561462E-02  0.1338688E+00
          2   -1    0    0  501    0  0.00000000000E+00  0.00000000000E+00  0.24650459609E+03  0.24650459609E+03  0.00000000000E+00 0.  1.
         -2   -1    0    0    0  501 -0.00000000000E+00 -0.00000000000E+00 -0.67103176822E+02  0.67103176822E+02  0.00000000000E+00 0. -1.
         23    2    1    2    0    0  0.41635702975E+02 -0.51061493100E+01  0.14836965528E+03  0.17807367908E+03  0.89090269117E+02 0.  0.
          5    1    1    2  502    0  0.21193344055E+01  0.34957276031E+02  0.63949530243E+02  0.73030935528E+02  0.41800000000E+01 0. -1.
         -5    1    1    2    0  502 -0.43755037381E+02 -0.29851126721E+02 -0.32917766253E+02  0.62503158303E+02  0.41800000000E+01 0. -1.
        -11    1    3    3    0    0  0.11554051496E+02 -0.25945188771E+02  0.13676523348E+03  0.13968313433E+03  0.00000000000E+00 0.  1.
         11    1    3    3    0    0  0.30081651479E+02  0.20839039461E+02  0.11604421798E+02  0.38390544756E+02  0.00000000000E+00 0. -1.
</event>
<event>
 7    1  0.4687179E-006  0.1600266E+03  0.7561462E-02  0.1188667E+00
          1   -1    0    0  501    0  0.00000000000E+00  0.00000000000E+00  0.10842980334E+03  0.10842980334E+03  0.00000000000E+00 0. -1.
         -1   -1    0    0    0  501 -0.00000000000E+00 -0.00000000000E+00 -0.35871303013E+03  0.35871303013E+03  0.00000000000E+00 0.  1.
         23    2    1    2    0    0 -0.64338256114E+02 -0.14618984822E+03 -0.16736322455E+03  0.24799882639E+03  0.89342520863E+02 0.  0.
          5    1    1    2  502    0  0.80049208196E+01  0.23517133777E+02  0.32755964654E+02  0.41322632526E+02  0.41800000000E+01 0. -1.
         -5    1    1    2    0  502  0.56333335294E+02  0.12267271445E+03 -0.11567596689E+03  0.17782137456E+03  0.41800000000E+01 0. -1.
        -11    1    3    3    0    0 -0.25291490273E+02 -0.51204773085E+02 -0.12400384153E+03  0.13652304194E+03  0.00000000000E+00 0.  1.
         11    1    3    3    0    0 -0.39046765841E+02 -0.94985075140E+02 -0.43359383023E+02  0.11147578445E+03  0.00000000000E+00 0. -1.
</event>
<event>
 7    1  0.4687179E-006  0.1486861E+03  0.7561462E-02  0.1202097E+00
         -1   -1    0    0    0  501 -0.00000000000E+00  0.00000000000E+00  0.11822387047E+03  0.11822387047E+03  0.00000000000E+00 0.  1.
          1   -1    0    0  501    0  0.00000000000E+00 -0.00000000000E+00 -0.32046248313E+03  0.32046248313E+03  0.00000000000E+00 0. -1.
         23    2    1    2    0    0  0.96762805353E+02  0.57447361319E+02 -0.22659430953E+03  0.26867509114E+03  0.90432757708E+02 0.  0.
          5    1    1    2  502    0 -0.99498921839E+02  0.45945977333E+01  0.37290450737E+02  0.10643869546E+03  0.41800000000E+01 0.  1.
         -5    1    1    2    0  502  0.27361164854E+01 -0.62041959052E+02 -0.12934753872E+02  0.63572566994E+02  0.41800000000E+01 0.  1.
        -11    1    3    3    0    0  0.86409428843E+02  0.10131295593E+02 -0.18651125160E+03  0.20580495504E+03  0.00000000000E+00 0. -1.
         11    1    3    3    0    0  0.10353376510E+02  0.47316065727E+02 -0.40083057924E+02  0.62870136103E+02  0.00000000000E+00 0.  1.
</event>
<event>
 7    1  0.4687179E-006  0.1021698E+03  0.7561462E-02  0.1275798E+00
          2   -1    0    0  501    0  0.00000000000E+00  0.00000000000E+00  0.11971022869E+03  0.11971022869E+03  0.00000000000E+00 0. -1.
         -2   -1    0    0    0  501 -0.00000000000E+00 -0.00000000000E+00 -0.11234198577E+03  0.11234198577E+03  0.00000000000E+00 0.  1.
         23    2    1    2    0    0 -0.79590967767E+01  0.38995600836E+02  0.14550944195E+02  0.10058129891E+03  0.91218767845E+02 0.  0.
          5    1    1    2  502    0 -0.41542915903E+02  0.59733072539E+01 -0.38861696880E+02  0.57351531328E+02  0.41800000000E+01 0.  1.
         -5    1    1    2    0  502  0.49502012680E+02 -0.44968908090E+02  0.31678995606E+02  0.74119384217E+02  0.41800000000E+01 0.  1.
        -11    1    3    3    0    0  0.28625929213E+02 -0.13111191556E+02  0.18972725582E+02  0.36760188837E+02  0.00000000000E+00 0. -1.
         11    1    3    3    0    0 -0.36585025990E+02  0.52106792392E+02 -0.44217813865E+01  0.63821110071E+02  0.00000000000E+00 0.  1.
</event>
<event>
 7    1  0.4687179E-006  0.1080508E+03  0.7561462E-02  0.1264223E+00
         -1   -1    0    0    0  501 -0.00000000000E+00  0.00000000000E+00  0.39077166428E+02  0.39077166428E+02  0.00000000000E+00 0.  1.
          1   -1    0    0  501    0  0.00000000000E+00 -0.00000000000E+00 -0.38789819787E+03  0.38789819787E+03  0.00000000000E+00 0. -1.
         23    2    1    2    0    0 -0.34533163100E+02  0.19441200644E+02 -0.22896723318E+03  0.24925926595E+03  0.90186962241E+02 0.  0.
          5    1    1    2  502    0  0.54665412477E+02 -0.60774272405E+02 -0.94605231870E+02  0.12509772902E+03  0.41800000000E+01 0.  1.
         -5    1    1    2    0  502 -0.20132249377E+02  0.41333071762E+02 -0.25248566400E+02  0.52618369335E+02  0.41800000000E+01 0.  1.
        -11    1    3    3    0    0 -0.46829824550E+01 -0.29984076898E+02 -0.13961007304E+03  0.14287038771E+03  0.00000000000E+00 0. -1.
         11    1    3    3    0    0 -0.29850180645E+02  0.49425277541E+02 -0.89357160139E+02  0.10638887824E+03  0.00000000000E+00 0.  1.
</event>
<event>
 7    1  0.4687179E-006  0.1428377E+03  0.7561462E-02  0.1209561E+00
          2   -1    0    0  501    0  0.00000000000E+00  0.00000000000E+00  0.24940165505E+03  0.24940165505E+03  0.00000000000E+00 0. -1.
         -2   -1    0    0    0  501 -0.00000000000E+00 -0.00000000000E+00 -0.12001348567E+03  0.12001348567E+03  0.00000000000E+00 0.  1.
         23    2    1    2    0    0  0.11115937839E+03 -0.73032499637E+02  0.60060479922E+02  0.17411031836E+03  0.94957823820E+02 0.  0.
          5    1    1    2  502    0 -0.13033104921E+02  0.10390657861E+02 -0.34958095035E+02  0.38953413242E+02  0.41800000000E+01 0. -1.
         -5    1    1    2    0  502 -0.98126273469E+02  0.62641841776E+02  0.10428578450E+03  0.15635140912E+03  0.41800000000E+01 0. -1.
        -11    1    3    3    0    0  0.10757167971E+03 -0.86516699945E+02  0.72046191437E+02  0.15571595726E+03  0.00000000000E+00 0. -1.
         11    1    3    3    0    0  0.35876986759E+01  0.13484200308E+02 -0.11985711514E+02  0.18394361099E+02  0.00000000000E+00 0.  1.
</event>
<event>
 7    1  0.4687179E-006  0.1384071E+03  0.7561462E-02  0.1215489E+00
          1   -1    0    0  501    0  0.00000000000E+00  0.00000000000E+00  0.17271443564E+03  0.17271443564E+03  0.00000000000E+00 0. -1.
         -1   -1    0    0    0  501 -0.00000000000E+00 -0.00000000000E+00 -0.12441037266E+03  0.12441037266E+03  0.00000000000E+00 0.  1.
         23    2    1    2    0    0 -0.28490171163E+02  0.87811237759E+02  0.57645395340E+02  0.14137814073E+03  0.90234603914E+02 0.  0.
          5    1    1    2  502    0 -0.19577201067E+02  0.23940826443E+02 -0.13384665949E+02  0.33956614304E+02  0.41800000000E+01 0.  1.
         -5    1    1    2    0  502  0.48067372231E+02 -0.11175206420E+03  0.40433335945E+01  0.12179005326E+03  0.41800000000E+01 0.  1.
        -11    1    3    3    0    0  0.26825909116E+02  0.10469788827E+02 -0.24367653222E+01  0.28899545035E+02  0.00000000000E+00 0.  1.
         11    1    3    3    0    0 -0.55316080279E+02  0.77341448932E+02  0.60082160662E+02  0.11247859570E+03  0.00000000000E+00 0. -1.
</event>
<event>
 7    1  0.4687179E-006  0.1186924E+03  0.7561462E-02  0.1245270E+00
         -1   -1    0    0    0  501 -0.00000000000E+00  0.00000000000E+00  0.14793384471E+04  0.14793384471E+04  0.00000000000E+00 0.  1.
          1   -1    0    0  501    0  0.00000000000E+00 -0.00000000000E+00 -0.43056434927E+02  0.43056434927E+02  0.00000000000E+00 0. -1.
         23    2    1    2    0    0 -0.32039016423E+02 -0.55811843998E+02  0.39505879477E+02  0.11861692498E+03  0.91475679149E+02 0.  0.
          5    1    1    2  502    0  0.78346738514E+01 -0.35457457047E+02  0.20288921282E+03  0.20615556858E+03  0.41800000000E+01 0. -1.
         -5    1    1    2    0  502  0.24204342572E+02  0.91269301045E+02  0.11938869199E+04  0.11976223885E+04  0.41800000000E+01 0.  1.
        -11    1    3    3    0    0 -0.35873989254E+02  0.12429695600E+02  0.32376899661E+02  0.49896934469E+02  0.00000000000E+00 0.  1.
         11    1    3    3    0    0  0.38349728312E+01 -0.68241539598E+02  0.71289798162E+01  0.68719990516E+02  0.00000000000E+00 0. -1.
</event>
<event>
 7    1  0.4687179E-006  0.1170653E+03  0.7561462E-02  0.1248018E+00
          2   -1    0    0  501    0  0.00000000000E+00  0.00000000000E+00  0.26587066771E+03  0.26587066771E+03  0.00000000000E+00 0. -1.
         -2   -1    0    0    0  501 -0.00000000000E+00 -0.00000000000E+00 -0.78087832990E+02  0.78087832990E+02  0.00000000000E+00 0.  1.
         23    2    1    2    0    0  0.63964642504E+02  0.32748548190E+02  0.15903003066E+03  0.19685943039E+03  0.91099625578E+02 0.  0.
          5    1    1    2  502    0 -0.83057157117E+02  0.87610613383E+01  0.49030954047E+02  0.96936857793E+02  0.41800000000E+01 0.  1.
         -5    1    1    2    0  502  0.19092514612E+02 -0.41509609528E+02 -0.20278149993E+02  0.50162212517E+02  0.41800000000E+01 0.  1.
        -11    1    3    3    0    0  0.69954487544E+02  0.50248311283E+02  0.86733438652E+02  0.12223425254E+03  0.00000000000E+00 0. -1.
         11    1    3    3    0    0 -0.59898450393E+01 -0.17499763093E+02  0.72296592010E+02  0.74625177843E+02  0.00000000000E+00 0.  1.
</event>
<event>
 7    1  0.4687179E-006  0.1021617E+03  0.7561462E-02  0.1275815E+00
          1   -1    0    0  501    0  0.00000000000E+00  0.00000000000E+00  0.20069460195E+03  0.20069460195E+03  0.00000000000E+00 0. -1.
         -1   -1    0    0    0  501 -0.00000000000E+00 -0.00000000000E+00 -0.90842516753E+02  0.90842516753E+02  0.00000000000E+00 0.  1.
         23    2    1    2    0    0  0.29243293760E+02  0.51460838135E+02  0.11019805842E+03  0.15315031583E+03  0.88362996039E+02 0.  0.
          5    1    1    2  502    0  0.19484575092E+02 -0.48181826613E+02  0.47030034763E+02  0.70217046735E+02  0.41800000000E+01 0.  1.
         -5    1    1    2    0  502 -0.48727868852E+02 -0.32790115217E+01 -0.47376007983E+02  0.68169756138E+02  0.41800000000E+01 0.  1.
        -11    1    3    3    0    0  0.53037767512E+02  0.57895978930E+02  0.98215826594E+02  0.12574298292E+03  0.00000000000E+00 0. -1.
         11    1    3    3    0    0 -0.23794473752E+02 -0.64351407951E+01  0.11982231825E+02  0.27407332918E+02  0.00000000000E+00 0.  1.
</event>
<event>
 7    1  0.4687179E-006  0.1428872E+03  0.7561462E-02  0.1209496E+00
         -2   -1    0    0    0  501 -0.00000000000E+00  0.00000000000E+00  0.36013517783E+02  0.36013517783E+02  0.00000000000E+00 0.  1.
          2   -1    0    0  501    0  0.00000000000E+00 -0.00000000000E+00 -0.76242267601E+03  0.76242267601E+03  0.00000000000E+00 0. -1.
         23    2    1    2    0    0  0.93862273735E+02  0.10204376801E+02 -0.53558235895E+03  0.55150136172E+03  0.91602581922E+02 0.  0.
          5    1    1    2  502    0  0.17570749276E+02  0.31125869502E+02 -0.29620586300E+02  0.46609038986E+02  0.41800000000E+01 0.  1.
         -5    1    1    2    0  502 -0.11143302301E+03 -0.41330246302E+02 -0.16120621298E+03  0.20032579309E+03  0.41800000000E+01 0.  1.
        -11    1    3    3    0    0  0.54245123450E+02 -0.39645461882E+02 -0.30301824409E+03  0.31037775745E+03  0.00000000000E+00 0. -1.
         11    1    3    3    0    0  0.39617150285E+02  0.49849838682E+02 -0.23256411486E+03  0.24112360427E+03  0.00000000000E+00 0.  1.
</event>
<event>
 7    1  0.4687179E-006  0.1066773E+03  0.7561462E-02  0.1266850E+00
         -1   -1    0    0    0  501 -0.00000000000E+00  0.00000000000E+00  0.72877761996E+03  0.72877761996E+03  0.00000000000E+00 0. -1.
          1   -1    0    0  501    0  0.00000000000E+00 -0.00000000000E+00 -0.16763711774E+02  0.16763711774E+02  0.00000000000E+00 0.  1.
         23    2    1    2    0    0 -0.89291883011E+01 -0.19806286436E+02  0.26041879613E+03  0.27643815548E+03  0.90155893017E+02 0.  0.
          5    1    1    2  502    0 -0.51188834249E+02  0.30802611380E+02  0.15329358942E+03  0.16457671335E+03  0.41800000000E+01 0.  1.
         -5    1    1    2    0  502  0.60118022550E+02 -0.10996324944E+02  0.29830152264E+03  0.30452646290E+03  0.41800000000E+01 0.  1.
        -11    1    3    3    0    0  0.26945506291E+02 -0.42090021628E+02  0.12634031539E+03  0.13586576288E+03  0.00000000000E+00 0. -1.
         11    1    3    3    0    0 -0.35874694592E+02  0.22283735192E+02  0.13407848074E+03  0.14057239261E+03  0.00000000000E+00 0.  1.
</event>
<event>
 7    1  0.4687179E-006  0.1197318E+03  0.7561462E-02  0.1243540E+00
         -2   -1    0    0    0  501 -0.00000000000E+00  0.00000000000E+00  0.28222244150E+02  0.28222244150E+02  0.00000000000E+00 0. -1.
          2   -1    0    0  501    0  0.00000000000E+00 -0.00000000000E+00 -0.57997696682E+03  0.57997696682E+03  0.00000000000E+00 0.  1.
         23    2    1    2    0    0 -0.65256686558E+02  0.63102806978E+01 -0.28005271080E+03  0.30198430473E+03  0.92014915623E+02 0.  0.
          5    1    1    2  502    0 -0.29969012677E+02 -0.10978569730E+02 -0.13950938296E+03  0.14317475702E+03  0.41800000000E+01 0. -1.
         -5    1    1    2    0  502  0.95225699235E+02  0.46682890322E+01 -0.13219262891E+03  0.16304014921E+03  0.41800000000E+01 0. -1.
        -11    1    3    3    0    0 -0.37450056065E+02  0.48523227858E+02 -0.13191729254E+03  0.14546196208E+03  0.00000000000E+00 0.  1.
         11    1    3    3    0    0 -0.27806630493E+02 -0.42212947160E+02 -0.14813541826E+03  0.15652234266E+03  0.00000000000E+00 0. -1.
</event>
<event>
 7    1  0.4687179E-006  0.9692174E+02  0.7561462E-02  0.1286906E+00
         -1   -1    0    0    0  501 -0.00000000000E+00  0.00000000000E+00  0.21380540376E+03  0.21380540376E+03  0.00000000000E+00 0.  1.
          1   -1    0    0  501    0  0.00000000000E+00 -0.00000000000E+00 -0.57208377692E+02  0.57208377692E+02  0.00000000000E+00 0. -1.
         23    2    1    2    0    0 -0.42022992364E+02  0.10823614097E+02  0.70179842541E+02  0.12290133532E+03  0.91084825388E+02 0.  0.
          5    1    1    2  502    0 -0.12114416916E+02  0.35645083352E+02  0.61873548960E+02  0.72547498408E+02  0.41800000000E+01 0. -1.
         -5    1    1    2    0  502  0.54137409280E+02 -0.46468697449E+02  0.24543634566E+02  0.75564947719E+02  0.41800000000E+01 0.  1.
        -11    1    3    3    0    0 -0.59497239081E+02 -0.65484567013E+01  0.76815903700E+02  0.97383195700E+02  0.00000000000E+00 0.  1.
         11    1    3    3    0    0  0.17474246717E+02  0.17372070798E+02 -0.66360611593E+01  0.25518139624E+02  0.00000000000E+00 0. -1.
</event>
<event>
 7    1  0.4687179E-006  0.1172363E+03  0.7561462E-02  0.1247727E+00
          1   -1    0    0  501    0  0.00000000000E+00  0.00000000000E+00  0.91043917648E+02  0.91043917648E+02  0.00000000000E+00 0. -1.
         -1   -1    0    0    0  501 -0.00000000000E+00 -0.00000000000E+00 -0.24277891238E+03  0.24277891238E+03  0.00000000000E+00 0.  1.
         23    2    1    2    0    0  0.85853918796E+02  0.18679729565E+00 -0.16307175639E+01  0.12038764063E+03  0.84377689651E+02 0.  0.
          5    1    1    2  502    0 -0.28270382556E+02  0.50307456302E+02 -0.11572417622E+03  0.12938165269E+03  0.41800000000E+01 0. -1.
         -5    1    1    2    0  502 -0.57583536241E+02 -0.50494253598E+02 -0.34380100942E+02  0.84053536708E+02  0.41800000000E+01 0. -1.
        -11    1    3    3    0    0  0.84388506883E+02  0.14414746292E+02 -0.28264743531E+02  0.90155980009E+02  0.00000000000E+00 0.  1.
         11    1    3    3    0    0  0.14654119135E+01 -0.14227948996E+02  0.26634025967E+02  0.30231660621E+02  0.00000000000E+00 0. -1.
</event>
<event>
 7    1  0.4687179E-006  0.1147641E+03  0.7561462E-02  0.1251993E+00
         -2   -1    0    0    0  501 -0.00000000000E+00  0.00000000000E+00  0.71180168100E+02  0.71180168100E+02  0.00000000000E+00 0.  1.
          2   -1    0    0  501    0  0.00000000000E+00 -0.00000000000E+00 -0.21519593728E+03  0.21519593728E+03  0.00000000000E+00 0. -1.
         23    2    1    2    0    0  0.30534144809E+02 -0.18478792361E+02 -0.60472604965E+02  0.11528075405E+03  0.91427110511E+02 0.  0.
          5    1    1    2  502    0 -0.58107874359E+01  0.72202594332E+02 -0.85043416157E+02  0.11178924327E+03  0.41800000000E+01 0. -1.
         -5    1    1    2    0  502 -0.24723357373E+02 -0.53723801971E+02  0.15002519383E+01  0.59306108066E+02  0.41800000000E+01 0.  1.
        -11    1    3    3    0    0  0.40234934447E+02  0.28762004449E+02 -0.25029525740E+02  0.55430857910E+02  0.00000000000E+00 0. -1.
         11    1    3    3    0    0 -0.97007896376E+01 -0.47240796810E+02 -0.35443079225E+02  0.59849896138E+02  0.00000000000E+00 0.  1.
</event>
<event>
 7    1  0.4687179E-006  0.6231335E+02  0.7561462E-02  0.1388372E+00
          3   -1    0    0  501    0  0.00000000000E+00  0.00000000000E+00  0.11436377443E+03  0.11436377443E+03  0.00000000000E+00 0. -1.
         -3   -1    0    0    0  501 -0.00000000000E+00 -0.00000000000E+00 -0.12484866658E+03  0.12484866658E+03  0.00000000000E+00 0.  1.
         23    2    1    2    0    0  0.41145252552E+02  0.77223167692E+01  0.24655892008E+02  0.10269374548E+03  0.90473898815E+02 0.  0.
          5    1    1    2  502    0 -0.22365435953E+02  0.26529369989E+02  0.39149803535E+02  0.52480469836E+02  0.41800000000E+01 0.  1.
         -5    1    1    2    0  502 -0.18779816599E+02 -0.34251686758E+02 -0.74290587697E+02  0.84038225693E+02  0.41800000000E+01 0.  1.
        -11    1    3    3    0    0  0.51399054190E+01 -0.92533675497E+01 -0.31856567287E+02  0.33569097665E+02  0.00000000000E+00 0.  1.
         11    1    3    3    0    0  0.36005347133E+02  0.16975684319E+02  0.56512459296E+02  0.69124647818E+02  0.00000000000E+00 0. -1.
</event>
<event>
 7    1  0.4687179E-006  0.1165182E+03  0.7561462E-02  0.1248954E+00
          3   -1    0    0  501    0  0.00000000000E+00  0.00000000000E+00  0.12353532018E+03  0.12353532018E+03  0.00000000000E+00 0. -1.
         -3   -1    0    0    0  501 -0.00000000000E+00 -0.00000000000E+00 -0.29946621663E+03  0.29946621663E+03  0.00000000000E+00 0.  1.
         23    2    1    2    0    0  0.66358719521E+02  0.76367881155E+02  0.47796137888E+02  0.14743485591E+03  0.96005380118E+02 0.  0.
          5    1    1    2  502    0 -0.36031420883E+02 -0.84899499049E+02 -0.63102611065E+02  0.11182844072E+03  0.41800000000E+01 0. -1.
         -5    1    1    2    0  502 -0.30327298638E+02  0.85316178936E+01 -0.16062442327E+03  0.16373824018E+03  0.41800000000E+01 0. -1.
        -11    1    3    3    0    0  0.66242068391E+02  0.51093318429E+02 -0.10097569945E+02  0.84264463042E+02  0.00000000000E+00 0.  1.
         11    1    3    3    0    0  0.11665112923E+00  0.25274562726E+02  0.57893707833E+02  0.63170392868E+02  0.00000000000E+00 0. -1.
</event>
<event>
 7    1  0.4687179E-006  0.2433810E+03  0.7561462E-02  0.1117561E+00
          1   -1    0    0  501    0  0.00000000000E+00  0.00000000000E+00  0.56311337876E+03  0.56311337876E+03  0.00000000000E+00 0. -1.
         -1   -1    0    0    0  501 -0.00000000000E+00 -0.00000000000E+00 -0.21426760421E+03  0.21426760421E+03  0.00000000000E+00 0.  1.
         23    2    1    2    0    0 -0.84458702017E+01 -0.23852763569E+03  0.42673495417E+03  0.49687959350E+03  0.88429879679E+02 0.  0.
          5    1    1    2  502    0 -0.24228274688E+02  0.17141283760E+03 -0.10318072582E+03  0.20157654816E+03  0.41800000000E+01 0.  1.
         -5    1    1    2    0  502  0.32674144889E+02  0.67114798094E+02  0.25291546201E+02  0.78924841315E+02  0.41800000000E+01 0.  1.
        -11    1    3    3    0    0 -0.10250927431E+02 -0.20186103440E+03  0.27818215252E+03  0.34385791935E+03  0.00000000000E+00 0. -1.
         11    1    3    3    0    0  0.18050572290E+01 -0.36666601291E+02  0.14855280165E+03  0.15302167415E+03  0.00000000000E+00 0.  1.
</event>
<event>
 6    1  0.4687179E-006  0.9552114E+02  0.7561462E-02  0.1290007E+00
         -2   -1    0    0    0  501 -0.00000000000E+00  0.00000000000E+00  0.40139081234E+02  0.40139081234E+02  0.00000000000E+00 0.  1.
          2   -1    0    0  501    0  0.00000000000E+00 -0.00000000000E+00 -0.26884216041E+03  0.26884216041E+03  0.00000000000E+00 0. -1.
          5    1    1    2  502    0  0.78612310568E+02 -0.29934062252E+01 -0.42492367887E+02  0.89509382650E+02  0.41800000000E+01 0. -1.
         -5    1    1    2    0  502 -0.56620533401E+02  0.54357486134E+01 -0.68285083027E+02  0.88970540797E+02  0.41800000000E+01 0.  1.
        -11    1    1    2    0    0 -0.38582767760E+02 -0.17180242533E+01 -0.91141478795E+02  0.98986618955E+02  0.00000000000E+00 0. -1.
         11    1    1    2    0    0  0.16590990593E+02 -0.72431813487E+00 -0.26784149463E+02  0.31514699238E+02  0.00000000000E+00 0.  1.
</event>
<event>
 7    1  0.4687179E-006  0.6895609E+02  0.7561462E-02  0.1363679E+00
          2   -1    0    0  501    0  0.00000000000E+00  0.00000000000E+00  0.32582966809E+02  0.32582966809E+02  0.00000000000E+00 0. -1.
         -2   -1    0    0    0  501 -0.00000000000E+00 -0.00000000000E+00 -0.37768009264E+03  0.37768009264E+03  0.00000000000E+00 0.  1.
         23    2    1    2    0    0 -0.10662742057E+02  0.32854967844E+02 -0.12078928077E+03  0.15111869767E+03  0.83986114670E+02 0.  0.
          5    1    1    2  502    0  0.22761147878E+02 -0.16263815037E+02 -0.23424926626E+03  0.23595078443E+03  0.41800000000E+01 0.  1.
         -5    1    1    2    0  502 -0.12098405820E+02 -0.16591152807E+02  0.99414211918E+01  0.23193577347E+02  0.41800000000E+01 0.  1.
        -11    1    3    3    0    0 -0.13851179139E+02 -0.26144206897E+02 -0.25816676124E+02  0.39266722347E+02  0.00000000000E+00 0.  1.
         11    1    3    3    0    0  0.31884370812E+01  0.58999174741E+02 -0.94972604641E+02  0.11185197532E+03  0.00000000000E+00 0. -1.
</event>
<event>
 7    1  0.4687179E-006  0.1162480E+03  0.7561462E-02  0.1249418E+00
         -1   -1    0    0    0  501 -0.00000000000E+00  0.00000000000E+00  0.18200147712E+04  0.18200147712E+04  0.00000000000E+00 0.  1.
          1   -1    0    0  501    0  0.00000000000E+00 -0.00000000000E+00 -0.14000134071E+02  0.14000134071E+02  0.00000000000E+00 0. -1.
         23    2    1    2    0    0 -0.34971926379E+02  0.63858054426E+02  0.30374580407E+03  0.32479290616E+03  0.89039494924E+02 0.  0.
          5    1    1    2  502    0  0.40587965401E+02  0.16368135408E+02  0.95999107656E+03  0.96099721033E+03  0.41800000000E+01 0.  1.
         -5    1    1    2    0  502 -0.56160390220E+01 -0.80226189834E+02  0.54227775651E+03  0.54822478878E+03  0.41800000000E+01 0.  1.
        -11    1    3    3    0    0  0.24267957573E+02  0.33695837264E+02  0.17545407227E+03  0.18030106680E+03  0.00000000000E+00 0.  1.
         11    1    3    3    0    0 -0.59239883952E+02  0.30162217162E+02  0.12829173179E+03  0.14449183936E+03  0.00000000000E+00 0. -1.
</event>
<event>
 7    1  0.4687179E-006  0.1910203E+03  0.7561462E-02  0.1157544E+00
         -1   -1    0    0    0  501 -0.00000000000E+00  0.00000000000E+00  0.34827272117E+02  0.34827272117E+02  0.00000000000E+00 0.  1.
          1   -1    0    0  501    0  0.00000000000E+00 -0.00000000000E+00 -0.12635291895E+04  0.12635291895E+04  0.00000000000E+00 0. -1.
         23    2    1    2    0    0  0.58345932153E+02 -0.16926032542E+03 -0.54876022750E+03  0.58419817700E+03  0.89980093157E+02 0.  0.
          5    1    1    2  502    0 -0.37655417247E+02  0.40495681414E+02 -0.64616887986E+02  0.85150720925E+02  0.41800000000E+01 0.  1.
         -5    1    1    2    0  502 -0.20690514906E+02  0.12876464400E+03 -0.61532480193E+03  0.62900756373E+03  0.41800000000E+01 0.  1.
        -11    1    3    3    0    0 -0.10515048739E+02 -0.92036430659E+02 -0.19995670206E+03  0.22037230660E+03  0.00000000000E+00 0.  1.
         11    1    3    3    0    0  0.68860980891E+02 -0.77223894758E+02 -0.34880352544E+03  0.36382587040E+03  0.00000000000E+00 0. -1.
</event>
<event>
 7    1  0.4687179E-006  0.1244330E+03  0.7561462E-02  0.1235958E+00
          1   -1    0    0  501    0  0.00000000000E+00  0.00000000000E+00  0.80373546607E+03  0.80373546607E+03  0.00000000000E+00 0.  1.
         -1   -1    0    0    0  501 -0.00000000000E+00 -0.00000000000E+00 -0.22665934738E+02  0.22665934738E+02  0.00000000000E+00 0. -1.
         23    2    1    2    0    0  0.46314205372E+02 -0.40398197089E+02  0.50492265399E+03  0.51707689242E+03  0.92976374493E+02 0.  0.
          5    1    1    2  502    0 -0.72883402229E+02  0.68693366427E+02  0.19360380055E+03  0.21801530428E+03  0.41800000000E+01 0. -1.
         -5    1    1    2    0  502  0.26569196858E+02 -0.28295169338E+02  0.82543076797E+02  0.91309204117E+02  0.41800000000E+01 0. -1.
        -11    1    3    3    0    0  0.55028704409E+02  0.12122076999E+02  0.21229508175E+03  0.21964586223E+03  0.00000000000E+00 0. -1.
         11    1    3    3    0    0 -0.87144990376E+01 -0.52520274088E+02  0.29262757224E+03  0.29743103019E+03  0.00000000000E+00 0.  1.
</event>
<event>
 7    1  0.4687179E-006  0.1914719E+03  0.7561462E-02  0.1157140E+00
          1   -1    0    0  501    0  0.00000000000E+00  0.00000000000E+00  0.48775274520E+03  0.48775274520E+03  0.00000000000E+00 0. -1.
         -1   -1    0    0    0  501 -0.00000000000E+00 -0.00000000000E+00 -0.91126753878E+02  0.91126753878E+02  0.00000000000E+00 0.  1.
         23    2    1    2    0    0  0.33282960820E+02  0.17691463692E+03  0.20199882243E+03  0.28573265364E+03  0.91831807435E+02 0.  0.
          5    1    1    2  502    0 -0.65027517154E+02 -0.97605917099E+02  0.55469361648E+02  0.12980683927E+03  0.41800000000E+01 0. -1.
         -5    1    1    2    0  502  0.31744556335E+02 -0.79308719822E+02  0.13915780724E+03  0.16334000616E+03  0.41800000000E+01 0. -1.
        -11    1    3    3    0    0  0.13983209717E+02  0.64537652528E+02  0.14264192660E+03  0.15718574354E+03  0.00000000000E+00 0.  1.
         11    1    3    3    0    0  0.19299751103E+02  0.11237698439E+03  0.59356895824E+02  0.12854691010E+03  0.00000000000E+00 0. -1.
</event>
<event>
 7    1  0.5746893E-006  0.3387900E+03  0.7561462E-02  0.1067312E+00
         -1   -1    0    0    0  501 -0.00000000000E+00  0.00000000000E+00  0.77470358819E+02  0.77470358819E+02  0.00000000000E+00 0.  1.
          1   -1    0    0  501    0  0.00000000000E+00 -0.00000000000E+00 -0.15550809202E+04  0.15550809202E+04  0.00000000000E+00 0. -1.
         23    2    1    2    0    0  0.95833118968E+02 -0.31451625006E+03 -0.67869826018E+03  0.75961779256E+03  0.91013208706E+02 0.  0.
          5    1    1    2  502    0 -0.87714106132E+02  0.31642132960E+03 -0.79873464418E+03  0.86360333861E+03  0.41800000000E+01 0. -1.
         -5    1    1    2    0  502 -0.81190128361E+01 -0.19050795418E+01 -0.17765705496E+00  0.93301478832E+01  0.41800000000E+01 0. -1.
        -11    1    3    3    0    0  0.18643623760E+02 -0.20522319815E+03 -0.44315447774E+03  0.48872286309E+03  0.00000000000E+00 0. -1.
         11    1    3    3    0    0  0.77189495208E+02 -0.10929305191E+03 -0.23554378244E+03  0.27089492947E+03  0.00000000000E+00 0.  1.
</event>
<event>
 7    1  0.4687179E-006  0.7347285E+02  0.7561462E-02  0.1348666E+00
          4   -1    0    0  501    0  0.00000000000E+00  0.00000000000E+00  0.63337189260E+02  0.63337189260E+02  0.00000000000E+00 0. -1.
         -4   -1    0    0    0  501 -0.00000000000E+00 -0.00000000000E+00 -0.22495376805E+03  0.22495376805E+03  0.00000000000E+00 0.  1.
         23    2    1    2    0    0  0.70975913462E+01  0.48737212847E+02 -0.57465557780E+02  0.11823038099E+03  0.90831937877E+02 0.  0.
          5    1    1    2  502    0 -0.33773183874E+02 -0.59377081752E+02 -0.11913930135E+03  0.13739691158E+03  0.41800000000E+01 0.  1.
         -5    1    1    2    0  502  0.26675592528E+02  0.10639868905E+02  0.14988280335E+02  0.32663664743E+02  0.41800000000E+01 0.  1.
        -11    1    3    3    0    0  0.37682180206E+01  0.11529897095E+02  0.24950861825E+02  0.27743170329E+02  0.00000000000E+00 0. -1.
         11    1    3    3    0    0  0.33293733256E+01  0.37207315752E+02 -0.82416419606E+02  0.90487210659E+02  0.00000000000E+00 0.  1.
</event>
<event>
 7    1  0.4687179E-006  0.1110248E+03  0.7561462E-02  0.1258684E+00
         -2   -1    0    0    0  501 -0.00000000000E+00  0.00000000000E+00  0.21813411541E+02  0.21813411541E+02  0.00000000000E+00 0.  1.
          2   -1    0    0  501    0  0.00000000000E+00 -0.00000000000E+00 -0.86921423250E+03  0.86921423250E+03  0.00000000000E+00 0. -1.
         23    2    1    2    0    0 -0.17192748168E+02 -0.82230979570E+02 -0.33914721947E+03  0.36090806372E+03  0.90422726107E+02 0.  0.
          5    1    1    2  502    0  0.22003820237E+02 -0.87583846259E+01 -0.32031229780E+03  0.32121381964E+03  0.41800000000E+01 0.  1.
         -5    1    1    2    0  502 -0.48110720686E+01  0.90989364196E+02 -0.18794130369E+03  0.20890576068E+03  0.41800000000E+01 0.  1.
        -11    1    3    3    0    0 -0.42160353136E+02 -0.42505278020E+02 -0.94981783197E+02  0.11227525629E+03  0.00000000000E+00 0.  1.
         11    1    3    3    0    0  0.24967604968E+02 -0.39725701550E+02 -0.24416543627E+03  0.24863280743E+03  0.00000000000E+00 0. -1.
</event>
<event>
 7    1  0.4687179E-006  0.8643537E+02  0.7561462E-02  0.1311721E+00
          2   -1    0    0  501    0  0.00000000000E+00  0.00000000000E+00  0.10259075947E+04  0.10259075947E+04  0.00000000000E+00 0. -1.
         -2   -1    0    0    0  501 -0.00000000000E+00 -0.00000000000E+00 -0.14020101758E+02  0.14020101758E+02  0.00000000000E+00 0.  1.
         23    2    1    2    0    0  0.49977364010E+02 -0.64566336375E+01  0.47644386419E+03  0.48775328137E+03  0.91460826176E+02 0.  0.
          5    1    1    2  502    0 -0.58564262571E+02 -0.23533448631E+00  0.95695399814E+02  0.11227159115E+03  0.41800000000E+01 0. -1.
         -5    1    1    2    0  502  0.85868985606E+01  0.66919681238E+01  0.43974822890E+03  0.43990282391E+03  0.41800000000E+01 0. -1.
        -11    1    3    3    0    0  0.20481707452E+02 -0.47630181102E+02  0.19424951399E+03  0.20104976542E+03  0.00000000000E+00 0.  1.
         11    1    3    3    0    0  0.29495656559E+02  0.41173547464E+02  0.28219435021E+03  0.28670351595E+03  0.00000000000E+00 0. -1.
</event>
<event>
 7    1  0.4687179E-006  0.8445990E+02  0.7561462E-02  0.1316851E+00
          1   -1    0    0  501    0  0.00000000000E+00  0.00000000000E+00  0.22879586043E+03  0.22879586043E+03  0.00000000000E+00 0. -1.
         -1   -1    0    0    0  501 -0.00000000000E+00 -0.00000000000E+00 -0.80761784763E+02  0.80761784763E+02  0.00000000000E+00 0.  1.
         23    2    1    2    0    0  0.73316166458E+02  0.20975617675E+02  0.12265711238E+03  0.16087623741E+03  0.70860142138E+02 0.  0.
          5    1    1    2  502    0 -0.46852660665E+02 -0.38085891671E+02  0.70860414709E+02  0.93190008737E+02  0.41800000000E+01 0.  1.
         -5    1    1    2    0  502 -0.26463505794E+02  0.17110273996E+02 -0.45483451422E+02  0.55491399049E+02  0.41800000000E+01 0.  1.
        -11    1    3    3    0    0  0.15508942077E+02  0.13886537409E+01 -0.73770596320E+01  0.17230108890E+02  0.00000000000E+00 0.  1.
         11    1    3    3    0    0  0.57807224381E+02  0.19586963934E+02  0.13003417202E+03  0.14364612852E+03  0.00000000000E+00 0. -1.
</event>
<event>
 7    1  0.4687179E-006  0.1575473E+03  0.7561462E-02  0.1191494E+00
         -1   -1    0    0    0  501 -0.00000000000E+00  0.00000000000E+00  0.40287265621E+03  0.40287265621E+03  0.00000000000E+00 0.  1.
          1   -1    0    0  501    0  0.00000000000E+00 -0.00000000000E+00 -0.68345768616E+02  0.68345768616E+02  0.00000000000E+00 0. -1.
         23    2    1    2    0    0  0.80835460639E+02 -0.96429163619E+02  0.12384763997E+03  0.19578019556E+03  0.84609052443E+02 0.  0.
          5    1    1    2  502    0 -0.89363705404E+02  0.14130703359E+02  0.13891704038E+03  0.16583414947E+03  0.41800000000E+01 0.  1.
         -5    1    1    2    0  502  0.85282447656E+01  0.82298460261E+02  0.71762207249E+02  0.10960407980E+03  0.41800000000E+01 0.  1.
        -11    1    3    3    0    0  0.68790859200E+02 -0.10595195842E+03  0.12803641379E+03  0.17986473545E+03  0.00000000000E+00 0.  1.
         11    1    3    3    0    0  0.12044601438E+02  0.95227947955E+01 -0.41887738208E+01  0.15915460114E+02  0.00000000000E+00 0. -1.
</event>
<event>
 7    1  0.4687179E-006  0.1132795E+03  0.7561462E-02  0.1254614E+00
          1   -1    0    0  501    0  0.00000000000E+00  0.00000000000E+00  0.90350230446E+03  0.90350230446E+03  0.00000000000E+00 0. -1.
         -1   -1    0    0    0  501 -0.00000000000E+00 -0.00000000000E+00 -0.27441017144E+02  0.27441017144E+02  0.00000000000E+00 0.  1.
         23    2    1    2    0    0  0.53895007010E+02 -0.78604104488E+02  0.60525950904E+03  0.61778882878E+03  0.78998016785E+02 0.  0.
          5    1    1    2  502    0 -0.73284686974E+01  0.43677717841E+02  0.95953648864E+01  0.45508163186E+02  0.41800000000E+01 0. -1.
         -5    1    1    2    0  502 -0.46566538313E+02  0.34926386647E+02  0.26120641339E+03  0.26764632964E+03  0.41800000000E+01 0. -1.
        -11    1    3    3    0    0  0.13513790568E+02 -0.82079509590E+02  0.39675331428E+03  0.40537989692E+03  0.00000000000E+00 0. -1.
         11    1    3    3    0    0  0.40381216442E+02  0.34754051025E+01  0.20850619476E+03  0.21240893186E+03  0.00000000000E+00 0.  1.
</event>
<event>
 7    1  0.4687179E-006  0.1872444E+03  0.7561462E-02  0.1160970E+00
         -2   -1    0    0    0  501 -0.00000000000E+00  0.00000000000E+00  0.61455278557E+02  0.61455278557E+02  0.00000000000E+00 0.  1.
          2   -1    0    0  501    0  0.00000000000E+00 -0.00000000000E+00 -0.59201843957E+03  0.59201843957E+03  0.00000000000E+00 0. -1.
         23    2    1    2    0    0  0.14956655031E+03 -0.39815101184E+02 -0.28960588764E+03  0.34096678346E+03  0.91822557234E+02 0.  0.
          5    1    1    2  502    0 -0.15785785030E+03  0.15388505674E+01 -0.17530620534E+03  0.23594746660E+03  0.41800000000E+01 0. -1.
         -5    1    1    2    0  502  0.82912999885E+01  0.38276250616E+02 -0.65651068034E+02  0.76559468068E+02  0.41800000000E+01 0. -1.
        -11    1    3    3    0    0  0.68571444456E+02  0.25472414758E+02 -0.90923487435E+02  0.11669604739E+03  0.00000000000E+00 0. -1.
         11    1    3    3    0    0  0.80995105856E+02 -0.65287515941E+02 -0.19868240020E+03  0.22427073608E+03  0.00000000000E+00 0.  1.
</event>
<event>
 7    1  0.4687179E-006  0.1167319E+03  0.7561462E-02  0.1248588E+00
         -1   -1    0    0    0  501 -0.00000000000E+00  0.00000000000E+00  0.18606368655E+02  0.18606368655E+02  0.00000000000E+00 0.  1.
          1   -1    0    0  501    0  0.00000000000E+00 -0.00000000000E+00 -0.93663542741E+03  0.93663542741E+03  0.00000000000E+00 0. -1.
         23    2    1    2    0    0  0.40513668631E+02  0.58354378939E+02 -0.48941321298E+03  0.50310492516E+03  0.92426629226E+02 0.  0.
          5    1    1    2  502    0  0.82473919343E+01  0.21893155318E+02 -0.24221877815E+03  0.24338187815E+03  0.41800000000E+01 0. -1.
         -5    1    1    2    0  502 -0.48761060565E+02 -0.80247534258E+02 -0.18639706762E+03  0.20875499276E+03  0.41800000000E+01 0. -1.
        -11    1    3    3    0    0  0.67166934148E+02  0.22104263128E+02 -0.32817872911E+03  0.33571010370E+03  0.00000000000E+00 0.  1.
         11    1    3    3    0    0 -0.26653265517E+02  0.36250115811E+02 -0.16123448388E+03  0.16739482145E+03  0.00000000000E+00 0. -1.
</event>
<event>
 7    1  0.4687179E-006  0.1697347E+03  0.7561462E-02  0.1178125E+00
         -2   -1    0    0    0  501 -0.00000000000E+00  0.00000000000E+00  0.80773921497E+02  0.80773921497E+02  0.00000000000E+00 0.  1.
          2   -1    0    0  501    0  0.00000000000E+00 -0.00000000000E+00 -0.46925007234E+03  0.46925007234E+03  0.00000000000E+00 0. -1.
         23    2    1    2    0    0  0.68259603544E+02  0.13174022670E+03 -0.28040851911E+03  0.32789490825E+03  0.82893138783E+02 0.  0.
          5    1    1    2  502    0 -0.50003028441E+02 -0.32975798318E+00  0.12139378889E+01  0.50193203113E+02  0.41800000000E+01 0.  1.
         -5    1    1    2    0  502 -0.18256575103E+02 -0.13141046872E+03 -0.10928156962E+03  0.17193588247E+03  0.41800000000E+01 0.  1.
        -11    1    3    3    0    0  0.27337734884E+02  0.10294983758E+03 -0.12292873595E+03  0.16265760028E+03  0.00000000000E+00 0.  1.
         11    1    3    3    0    0  0.40921868660E+02  0.28790389124E+02 -0.15747978316E+03  0.16523730797E+03  0.00000000000E+00 0. -1.
</event>
<event>
 7    1  0.4687179E-006  0.1049969E+03  0.7561462E-02  0.1270126E+00
          1   -1    0    0  501    0  0.00000000000E+00  0.00000000000E+00  0.92853660529E+02  0.92853660529E+02  0.00000000000E+00 0.  1.
         -1   -1    0    0    0  501 -0.00000000000E+00 -0.00000000000E+00 -0.14659733507E+03  0.14659733507E+03  0.00000000000E+00 0. -1.
         23    2    1    2    0    0 -0.33786751039E+02 -0.13854930167E+01  0.65952629273E+01  0.96509265195E+02  0.90150300270E+02 0.  0.
          5    1    1    2  502    0  0.75315267491E+02  0.27265667031E+02 -0.41818578142E+02  0.90454806361E+02  0.41800000000E+01 0. -1.
         -5    1    1    2    0  502 -0.41528516452E+02 -0.25880174015E+02 -0.18520359323E+02  0.52486924040E+02  0.41800000000E+01 0. -1.
        -11    1    3    3    0    0 -0.54741700168E+02  0.11689248366E+02 -0.20715660538E+02  0.59686102706E+02  0.00000000000E+00 0. -1.
         11    1    3    3    0    0  0.20954949129E+02 -0.13074741382E+02  0.27310923466E+02  0.36823162490E+02  0.00000000000E+00 0.  1.
</event>
<event>
 7    1  0.4687179E-006  0.9537113E+02  0.7561462E-02  0.1290342E+00
         -1   -1    0    0    0  501 -0.00000000000E+00  0.00000000000E+00  0.11090343364E+03  0.11090343364E+03  0.00000000000E+00 0.  1.
          1   -1    0    0  501    0  0.00000000000E+00 -0.00000000000E+00 -0.88581524132E+02  0.88581524132E+02  0.00000000000E+00 0. -1.
         23    2    1    2    0    0 -0.11394857566E+02 -0.17258541413E+02 -0.22185061200E+01  0.70347450426E+02  0.67202246848E+02 0.  0.
          5    1    1    2  502    0 -0.19109859953E+02 -0.47242162386E+02 -0.58627886946E+01  0.51467012208E+02  0.41800000000E+01 0.  1.
         -5    1    1    2    0  502  0.30504717519E+02  0.64500703800E+02  0.30403204318E+02  0.77670495134E+02  0.41800000000E+01 0.  1.
        -11    1    3    3    0    0  0.16301977498E+02  0.17352422278E+02 -0.90983397457E+01  0.25488052404E+02  0.00000000000E+00 0.  1.
         11    1    3    3    0    0 -0.27696835063E+02 -0.34610963691E+02  0.68798336257E+01  0.44859398022E+02  0.00000000000E+00 0. -1.
</event>
<event>
 7    1  0.4687179E-006  0.1661012E+03  0.7561462E-02  0.1181976E+00
         -1   -1    0    0    0  501 -0.00000000000E+00  0.00000000000E+00  0.59948094331E+02  0.59948094331E+02  0.00000000000E+00 0.  1.
          1   -1    0    0  501    0  0.00000000000E+00 -0.00000000000E+00 -0.72849918088E+03  0.72849918088E+03  0.00000000000E+00 0. -1.
         23    2    1    2    0    0  0.95185461401E+02 -0.98999339143E+02 -0.51872177242E+03  0.54979204354E+03  0.11974085664E+03 0.  0.
          5    1    1    2  502    0 -0.67729715418E+02  0.11647359771E+03 -0.15502389036E+03  0.20543439901E+03  0.41800000000E+01 0.  1.
         -5    1    1    2    0  502 -0.27455745983E+02 -0.17474258564E+02  0.51945762389E+01  0.33220832653E+02  0.41800000000E+01 0.  1.
        -11    1    3    3    0    0  0.79654246934E+02 -0.17407974565E+02 -0.37531968733E+03  0.38407382666E+03  0.00000000000E+00 0. -1.
         11    1    3    3    0    0  0.15531214467E+02 -0.81591364578E+02 -0.14340208509E+03  0.16571821688E+03  0.00000000000E+00 0.  1.
</event>
<event>
 7    1  0.4687179E-006  0.9234357E+02  0.7561462E-02  0.1297274E+00
         -3   -1    0    0    0  501 -0.00000000000E+00  0.00000000000E+00  0.99169414602E+02  0.99169414602E+02  0.00000000000E+00 0.  1.
          3   -1    0    0  501    0  0.00000000000E+00 -0.00000000000E+00 -0.15145267197E+03  0.15145267197E+03  0.00000000000E+00 0. -1.
         23    2    1    2    0    0  0.21954631467E+02 -0.21353094924E+02 -0.71466108832E+02  0.12041819526E+03  0.91952033863E+02 0.  0.
          5    1    1    2  502    0 -0.69390499332E+02 -0.10593396074E+02  0.19078026332E+02  0.72860860046E+02  0.41800000000E+01 0.  1.
         -5    1    1    2    0  502  0.47435867865E+02  0.31946490998E+02  0.10482513088E+00  0.57343031272E+02  0.41800000000E+01 0.  1.
        -11    1    3    3    0    0 -0.14166835258E+02  0.15555251609E+01  0.16982251059E+02  0.22170154054E+02  0.00000000000E+00 0.  1.
         11    1    3    3    0    0  0.36121466726E+02 -0.22908620085E+02 -0.88448359891E+02  0.98248041202E+02  0.00000000000E+00 0. -1.
</event>
<event>
 7    1  0.4687179E-006  0.9555092E+02  0.7561462E-02  0.1289940E+00
         -2   -1    0    0    0  501 -0.00000000000E+00  0.00000000000E+00  0.25950407351E+02  0.25950407351E+02  0.00000000000E+00 0.  1.
          2   -1    0    0  501    0  0.00000000000E+00 -0.00000000000E+00 -0.47300918110E+03  0.47300918110E+03  0.00000000000E+00 0. -1.
         23    2    1    2    0    0  0.37506362283E+00 -0.11181813055E+02 -0.25952909745E+03  0.27326099475E+03  0.84800030731E+02 0.  0.
          5    1    1    2  502    0  0.54304621642E+02  0.30531732413E+01 -0.38714305254E+02  0.66892328632E+02  0.41800000000E+01 0. -1.
         -5    1    1    2    0  502 -0.54679685265E+02  0.81286398138E+01 -0.14881537104E+03  0.15880626507E+03  0.41800000000E+01 0. -1.
        -11    1    3    3    0    0 -0.27344483645E+02  0.23958345775E+02 -0.74523649619E+02  0.82918619565E+02  0.00000000000E+00 0.  1.
         11    1    3    3    0    0  0.27719547268E+02 -0.35140158830E+02 -0.18500544783E+03  0.19034237518E+03  0.00000000000E+00 0. -1.
</event>
<event>
 7    1  0.4687179E-006  0.8536093E+02  0.7561462E-02  0.1314491E+00
          2   -1    0    0  501    0  0.00000000000E+00  0.00000000000E+00  0.16913446053E+02  0.16913446053E+02  0.00000000000E+00 0. -1.
         -2   -1    0    0    0  501 -0.00000000000E+00 -0.00000000000E+00 -0.81921775428E+03  0.81921775428E+03  0.00000000000E+00 0.  1.
         23    2    1    2    0    0 -0.27175154468E+02  0.33455688809E+02 -0.28500532409E+03  0.30217947666E+03  0.90700767503E+02 0.  0.
          5    1    1    2  502    0 -0.74419146793E+01 -0.34403077398E+02 -0.33099515595E+02  0.48497465513E+02  0.41800000000E+01 0. -1.
         -5    1    1    2    0  502  0.34617069148E+02  0.94738858926E+00 -0.48419946855E+03  0.48545425816E+03  0.41800000000E+01 0. -1.
        -11    1    3    3    0    0  0.33596069374E+02  0.81878525450E+01 -0.10150457047E+03  0.10723299227E+03  0.00000000000E+00 0. -1.
         11    1    3    3    0    0 -0.60771223842E+02  0.25267836264E+02 -0.18350075362E+03  0.19494648439E+03  0.00000000000E+00 0.  1.
</event>
<event>
 7    1  0.4687179E-006  0.1256060E+03  0.7561462E-02  0.1234125E+00
         -2   -1    0    0    0  501 -0.00000000000E+00  0.00000000000E+00  0.45770063594E+02  0.45770063594E+02  0.00000000000E+00 0.  1.
          2   -1    0    0  501    0  0.00000000000E+00 -0.00000000000E+00 -0.43414620650E+03  0.43414620650E+03  0.00000000000E+00 0. -1.
         23    2    1    2    0    0  0.91769873306E+02  0.22155015056E+02 -0.19377721046E+03  0.23005784335E+03  0.80401801327E+02 0.  0.
          5    1    1    2  502    0 -0.12176091905E+03 -0.11763721081E+02 -0.13515346588E+03  0.18234044610E+03  0.41800000000E+01 0.  1.
         -5    1    1    2    0  502  0.29991045746E+02 -0.10391293975E+02 -0.59445466568E+02  0.67517980649E+02  0.41800000000E+01 0.  1.
        -11    1    3    3    0    0  0.36269474398E+02 -0.18780621912E+01 -0.11634100766E+02  0.38135996006E+02  0.00000000000E+00 0.  1.
         11    1    3    3    0    0  0.55500398907E+02  0.24033077247E+02 -0.18214310969E+03  0.19192184735E+03  0.00000000000E+00 0. -1.
</event>
<event>
 7    1  0.4687179E-006  0.7839729E+02  0.7561462E-02  0.1333662E+00
         -2   -1    0    0    0  501 -0.00000000000E+00  0.00000000000E+00  0.81052314375E+02  0.81052314375E+02  0.00000000000E+00 0.  1.
          2   -1    0    0  501    0  0.00000000000E+00 -0.00000000000E+00 -0.16432691560E+03  0.16432691560E+03  0.00000000000E+00 0. -1.
         23    2    1    2    0    0  0.14355149116E+02  0.12207671120E+02 -0.73952188516E+02  0.11853503783E+03  0.90700228592E+02 0.  0.
          5    1    1    2  502    0 -0.56738737399E+02  0.29744374759E+02 -0.17411510655E+02  0.66518006996E+02  0.41800000000E+01 0. -1.
         -5    1    1    2    0  502  0.42383588283E+02 -0.41952045878E+02  0.80890979468E+01  0.60326185150E+02  0.41800000000E+01 0. -1.
        -11    1    3    3    0    0  0.13421950059E+02 -0.59151432164E+01  0.18901349373E+02  0.23924854666E+02  0.00000000000E+00 0.  1.
         11    1    3    3    0    0  0.93319905688E+00  0.18122814336E+02 -0.92853537889E+02  0.94610183164E+02  0.00000000000E+00 0. -1.
</event>
<event>
 6    1  0.4687179E-006  0.8654170E+02  0.7561462E-02  0.1311449E+00
         -1   -1    0    0    0  501 -0.00000000000E+00  0.00000000000E+00  0.39554059084E+03  0.39554059084E+03  0.00000000000E+00 0.  1.
          1   -1    0    0  501    0  0.00000000000E+00 -0.00000000000E+00 -0.26862522191E+02  0.26862522191E+02  0.00000000000E+00 0. -1.
          5    1    1    2  502    0 -0.22410123139E+02 -0.56406709428E+02  0.71436551507E+02  0.93832743639E+02  0.41800000000E+01 0. -1.
         -5    1    1    2    0  502  0.45263294230E+01  0.77146933349E+02  0.27640925873E+03  0.28703952288E+03  0.41800000000E+01 0.  1.
        -11    1    1    2    0    0 -0.40642430197E+01 -0.91930994452E+01  0.16680938628E+01  0.10188900130E+02  0.00000000000E+00 0. -1.
         11    1    1    2    0    0  0.21948036735E+02 -0.11547124475E+02  0.19164164549E+02  0.31341946382E+02  0.00000000000E+00 0.  1.
</event>
<event>
 7    1  0.4687179E-006  0.1004934E+03  0.7561462E-02  0.1279262E+00
         -1   -1    0    0    0  501 -0.00000000000E+00  0.00000000000E+00  0.35299087017E+02  0.35299087017E+02  0.00000000000E+00 0.  1.
          1   -1    0    0  501    0  0.00000000000E+00 -0.00000000000E+00 -0.57271332574E+03  0.57271332574E+03  0.00000000000E+00 0. -1.
         23    2    1    2    0    0  0.72658625094E+02 -0.41896708855E+02 -0.31992634532E+03  0.34346871900E+03  0.92646017130E+02 0.  0.
          5    1    1    2  502    0 -0.33369361325E+02  0.12973753544E+02 -0.21226073539E+03  0.21529961622E+03  0.41800000000E+01 0.  1.
         -5    1    1    2    0  502 -0.39289263770E+02  0.28922955312E+02 -0.52271580166E+01  0.49244077537E+02  0.41800000000E+01 0.  1.
        -11    1    3    3    0    0  0.49266265492E+02  0.17385954482E+02 -0.82609047583E+02  0.97742984768E+02  0.00000000000E+00 0.  1.
         11    1    3    3    0    0  0.23392359602E+02 -0.59282663337E+02 -0.23731729773E+03  0.24572573423E+03  0.00000000000E+00 0. -1.
</event>
<event>
 7    1  0.4687179E-006  0.1528733E+03  0.7561462E-02  0.1196986E+00
          2   -1    0    0  501    0  0.00000000000E+00  0.00000000000E+00  0.53817300068E+02  0.53817300068E+02  0.00000000000E+00 0. -1.
         -2   -1    0    0    0  501 -0.00000000000E+00 -0.00000000000E+00 -0.45585492323E+03  0.45585492323E+03  0.00000000000E+00 0.  1.
         23    2    1    2    0    0  0.63178289468E+02 -0.91548714140E+02 -0.15201252073E+03  0.20878583617E+03  0.90061399083E+02 0.  0.
          5    1    1    2  502    0 -0.21899961427E+02  0.11381123268E+03 -0.20612257855E+03  0.23650918541E+03  0.41800000000E+01 0.  1.
         -5    1    1    2    0  502 -0.41278328041E+02 -0.22262518544E+02 -0.43902523878E+02  0.64377201715E+02  0.41800000000E+01 0.  1.
        -11    1    3    3    0    0  0.21106325222E+02  0.16465115357E+02 -0.35162374023E+02  0.44192414904E+02  0.00000000000E+00 0. -1.
         11    1    3    3    0    0  0.42071964246E+02 -0.10801382950E+03 -0.11685014670E+03  0.16459342126E+03  0.00000000000E+00 0.  1.
</event>
<event>
 7    1  0.4687179E-006  0.1294958E+03  0.7561462E-02  0.1228206E+00
         -2   -1    0    0    0  501 -0.00000000000E+00  0.00000000000E+00  0.75204495832E+02  0.75204495832E+02  0.00000000000E+00 0.  1.
          2   -1    0    0  501    0  0.00000000000E+00 -0.00000000000E+00 -0.23731802474E+03  0.23731802474E+03  0.00000000000E+00 0. -1.
         23    2    1    2    0    0  0.59457641739E+02  0.35154973034E+02 -0.77700031338E+02  0.14655741644E+03  0.10329907141E+03 0.  0.
          5    1    1    2  502    0 -0.87556686609E+02  0.28754417016E+01 -0.27628500425E+02  0.91952422321E+02  0.41800000000E+01 0. -1.
         -5    1    1    2    0  502  0.28099044870E+02 -0.38030414736E+02 -0.56784997144E+02  0.74012681807E+02  0.41800000000E+01 0. -1.
        -11    1    3    3    0    0 -0.28605698869E+02 -0.99799253025E+00 -0.23351291245E+02  0.36940016238E+02  0.00000000000E+00 0.  1.
         11    1    3    3    0    0  0.88063340608E+02  0.36152965565E+02 -0.54348740093E+02  0.10961740021E+03  0.00000000000E+00 0. -1.
</event>
<event>
 7    1  0.4687179E-006  0.1461516E+03  0.7561462E-02  0.1205283E+00
          1   -1    0    0  501    0  0.00000000000E+00  0.00000000000E+00  0.25097024858E+03  0.25097024858E+03  0.00000000000E+00 0.  1.
         -1   -1    0    0    0  501 -0.00000000000E+00 -0.00000000000E+00 -0.17171637669E+03  0.17171637669E+03  0.00000000000E+00 0. -1.
         23    2    1    2    0    0  0.99260875692E+02 -0.54235402109E+02  0.17562458704E+03  0.22844936242E+03  0.92471159462E+02 0.  0.
          5    1    1    2  502    0 -0.11306066288E+03  0.47288954081E+01 -0.84593833644E+02  0.14134590561E+03  0.41800000000E+01 0.  1.
         -5    1    1    2    0  502  0.13799787188E+02  0.49506506701E+02 -0.11776881513E+02  0.52891357237E+02  0.41800000000E+01 0.  1.
        -11    1    3    3    0    0  0.47806667237E+02 -0.58874784676E+02  0.15549364159E+03  0.17300286205E+03  0.00000000000E+00 0.  1.
         11    1    3    3    0    0  0.51454208455E+02  0.46393825671E+01  0.20130945448E+02  0.55446500367E+02  0.00000000000E+00 0. -1.
</event>
<event>
 7    1  0.4687179E-006  0.1410561E+03  0.7561462E-02  0.1211915E+00
         -1   -1    0    0    0  501 -0.00000000000E+00  0.00000000000E+00  0.78269265949E+03  0.78269265949E+03  0.00000000000E+00 0.  1.
          1   -1    0    0  501    0  0.00000000000E+00 -0.00000000000E+00 -0.27230733196E+02  0.27230733196E+02  0.00000000000E+00 0. -1.
         23    2    1    2    0    0  0.80834635458E+02 -0.50588125752E+02  0.33700421833E+03  0.36288045562E+03  0.94957807173E+02 0.  0.
          5    1    1    2  502    0 -0.66651885922E+02 -0.25927641285E+02  0.13215615383E+03  0.15032444204E+03  0.41800000000E+01 0. -1.
         -5    1    1    2    0  502 -0.14182749535E+02  0.76515767038E+02  0.28630155413E+03  0.29671849502E+03  0.41800000000E+01 0. -1.
        -11    1    3    3    0    0  0.14893836269E+01 -0.53134554497E+02  0.16697306044E+03  0.17522985493E+03  0.00000000000E+00 0. -1.
         11    1    3    3    0    0  0.79345251831E+02  0.25464287448E+01  0.17003115789E+03  0.18765060070E+03  0.00000000000E+00 0.  1.
</event>
<event>
 7    1  0.4687179E-006  0.1224779E+03  0.7561462E-02  0.1239064E+00
          1   -1    0    0  501    0  0.00000000000E+00  0.00000000000E+00  0.51713503866E+03  0.51713503866E+03  0.00000000000E+00 0. -1.
         -1   -1    0    0    0  501 -0.00000000000E+00 -0.00000000000E+00 -0.31423780626E+02  0.31423780626E+02  0.00000000000E+00 0.  1.
         23    2    1    2    0    0 -0.20924207666E+02 -0.58076400042E+02  0.27205460272E+03  0.29338594954E+03  0.90834562917E+02 0.  0.
          5    1    1    2  502    0  0.73542429353E+02  0.28415087704E+02  0.12275914744E+03  0.14595611260E+03  0.41800000000E+01 0. -1.
         -5    1    1    2    0  502 -0.52618221687E+02  0.29661312338E+02  0.90897507870E+02  0.10921675714E+03  0.41800000000E+01 0. -1.
        -11    1    3    3    0    0 -0.54469694927E+02 -0.35190187160E+02  0.20480593322E+03  0.21482729626E+03  0.00000000000E+00 0. -1.
         11    1    3    3    0    0  0.33545487261E+02 -0.22886212882E+02  0.67248669499E+02  0.78558653279E+02  0.00000000000E+00 0.  1.
</event>
<event>
 7    1  0.4687179E-006  0.8166697E+02  0.7561462E-02  0.1324386E+00
         -1   -1    0    0    0  501 -0.00000000000E+00  0.00000000000E+00  0.13074476768E+03  0.13074476768E+03  0.00000000000E+00 0.  1.
          1   -1    0    0  501    0  0.00000000000E+00 -0.00000000000E+00 -0.97361276782E+02  0.97361276782E+02  0.00000000000E+00 0. -1.
         23    2    1    2    0    0 -0.18852732177E+02  0.24974585084E+02  0.21687180581E+02  0.98628229169E+02  0.90983725889E+02 0.  0.
          5    1    1    2  502    0  0.42893681309E+02 -0.18107855781E+02  0.59321376485E+02  0.75526554571E+02  0.41800000000E+01 0. -1.
         -5    1    1    2    0  502 -0.24040949133E+02 -0.68667293033E+01 -0.47625066166E+02  0.53951260725E+02  0.41800000000E+01 0. -1.
        -11    1    3    3    0    0  0.17162774381E+02  0.46302639082E+02  0.27253901445E+02  0.56402751301E+02  0.00000000000E+00 0.  1.
         11    1    3    3    0    0 -0.36015506558E+02 -0.21328053998E+02 -0.55667208632E+01  0.42225477867E+02  0.00000000000E+00 0. -1.
</event>
<event>
 7    1  0.4687179E-006  0.2230060E+03  0.7561462E-02  0.1131662E+00
         -2   -1    0    0    0  501 -0.00000000000E+00  0.00000000000E+00  0.87038421945E+02  0.87038421945E+02  0.00000000000E+00 0.  1.
          2   -1    0    0  501    0  0.00000000000E+00 -0.00000000000E+00 -0.70575458611E+03  0.70575458611E+03  0.00000000000E+00 0. -1.
         23    2    1    2    0    0 -0.17472444607E+03  0.20922510510E+02 -0.23891212556E+03  0.31068354555E+03  0.92080824472E+02 0.  0.
          5    1    1    2  502    0  0.65515348607E+01  0.60561076479E+02 -0.24279295335E+03  0.25035266563E+03  0.41800000000E+01 0. -1.
         -5    1    1    2    0  502  0.16817291121E+03 -0.81483586989E+02 -0.13701108526E+03  0.23175679688E+03  0.41800000000E+01 0.  1.
        -11    1    3    3    0    0 -0.30359288550E+02  0.42328855794E+02 -0.52766761603E+02  0.74146810883E+02  0.00000000000E+00 0.  1.
         11    1    3    3    0    0 -0.14436515752E+03 -0.21406345284E+02 -0.18614536396E+03  0.23653673467E+03  0.00000000000E+00 0. -1.
</event>
<event>
 7    1  0.4687179E-006  0.1396556E+03  0.7561462E-02  0.1213793E+00
          2   -1    0    0  501    0  0.00000000000E+00  0.00000000000E+00  0.10201462564E+03  0.10201462564E+03  0.00000000000E+00 0.  1.
         -2   -1    0    0    0  501 -0.00000000000E+00 -0.00000000000E+00 -0.25357074013E+03  0.25357074013E+03  0.00000000000E+00 0. -1.
         23    2    1    2    0    0 -0.44443450474E+02 -0.10863347634E+03 -0.84757085092E+02  0.17150470331E+03  0.91943718177E+02 0.  0.
          5    1    1    2  502    0  0.36336862426E+02  0.21105242771E+02  0.31098121013E+02  0.52443916463E+02  0.41800000000E+01 0. -1.
         -5    1    1    2    0  502  0.81065880481E+01  0.87528233564E+02 -0.97897150405E+02  0.13163674600E+03  0.41800000000E+01 0. -1.
        -11    1    3    3    0    0  0.10955063096E+02 -0.89952066053E+02 -0.50239847426E+02  0.10361191951E+03  0.00000000000E+00 0. -1.
         11    1    3    3    0    0 -0.55398513569E+02 -0.18681410282E+02 -0.34517237666E+02  0.67892783799E+02  0.00000000000E+00 0.  1.
</event>
<event>
 7    1  0.4687179E-006  0.9907890E+02  0.7561462E-02  0.1282245E+00
         -1   -1    0    0    0  501 -0.00000000000E+00  0.00000000000E+00  0.19792976080E+02  0.19792976080E+02  0.00000000000E+00 0.  1.
          1   -1    0    0  501    0  0.00000000000E+00 -0.00000000000E+00 -0.85096966118E+03  0.85096966118E+03  0.00000000000E+00 0. -1.
         23    2    1    2    0    0 -0.34254799004E+02  0.62300833476E+02 -0.41969898353E+03  0.43485236128E+03  0.88851304050E+02 0.  0.
          5    1    1    2  502    0  0.30324911554E+02 -0.99851745399E+01 -0.14250125108E+02  0.35211396407E+02  0.41800000000E+01 0. -1.
         -5    1    1    2    0  502  0.39298874501E+01 -0.52315658936E+02 -0.39722757646E+03  0.40069887957E+03  0.41800000000E+01 0. -1.
        -11    1    3    3    0    0 -0.37060237706E+02  0.83809908708E+02 -0.32281092169E+03  0.33556587011E+03  0.00000000000E+00 0.  1.
         11    1    3    3    0    0  0.28054387014E+01 -0.21509075232E+02 -0.96888061835E+02  0.99286491175E+02  0.00000000000E+00 0. -1.
</event>
<event>
 7    1  0.4687179E-006  0.2162615E+03  0.7561462E-02  0.1136701E+00
          1   -1    0    0  501    0  0.00000000000E+00  0.00000000000E+00  0.63477803137E+02  0.63477803137E+02  0.00000000000E+00 0. -1.
         -1   -1    0    0    0  501 -0.00000000000E+00 -0.00000000000E+00 -0.92196829399E+03  0.92196829399E+03  0.00000000000E+00 0.  1.
         23    2    1    2    0    0  0.58305813456E+02 -0.20614074764E+03 -0.35796742919E+03  0.42681992833E+03  0.90227463337E+02 0.  0.
          5    1    1    2  502    0 -0.37279724708E+02  0.15412614475E+03 -0.46684255442E+03  0.49305586842E+03  0.41800000000E+01 0.  1.
         -5    1    1    2    0  502 -0.21026088748E+02  0.52014602898E+02 -0.33680507247E+02  0.65570300374E+02  0.41800000000E+01 0.  1.
        -11    1    3    3    0    0  0.36060702100E+02 -0.61465116835E+02 -0.19578139510E+03  0.20834752096E+03  0.00000000000E+00 0.  1.
         11    1    3    3    0    0  0.22245111355E+02 -0.14467563081E+03 -0.16218603409E+03  0.21847240737E+03  0.00000000000E+00 0. -1.
</event>
<event>
 7    1  0.4687179E-006  0.1257225E+03  0.7561462E-02  0.1233944E+00
         -2   -1    0    0    0  501 -0.00000000000E+00  0.00000000000E+00  0.77933323543E+02  0.77933323543E+02  0.00000000000E+00 0. -1.
          2   -1    0    0  501    0  0.00000000000E+00 -0.00000000000E+00 -0.29488651758E+03  0.29488651758E+03  0.00000000000E+00 0.  1.
         23    2    1    2    0    0  0.65838206112E+02  0.22785926948E+02 -0.19624404145E+03  0.22814262619E+03  0.93185118061E+02 0.  0.
          5    1    1    2  502    0 -0.99676312354E+02 -0.17117413625E+02 -0.35244113724E+02  0.10718205562E+03  0.41800000000E+01 0.  1.
         -5    1    1    2    0  502  0.33838106242E+02 -0.56685133225E+01  0.14534961136E+02  0.37495159322E+02  0.41800000000E+01 0.  1.
        -11    1    3    3    0    0 -0.23362454597E+02  0.10513206165E+02 -0.33784509243E+02  0.42399585534E+02  0.00000000000E+00 0.  1.
         11    1    3    3    0    0  0.89200660708E+02  0.12272720783E+02 -0.16245953221E+03  0.18574304065E+03  0.00000000000E+00 0. -1.
</event>
<event>
 7    1  0.4687179E-006  0.1096905E+03  0.7561462E-02  0.1261144E+00
         -1   -1    0    0    0  501 -0.00000000000E+00  0.00000000000E+00  0.26223243427E+03  0.26223243427E+03  0.00000000000E+00 0.  1.
          1   -1    0    0  501    0  0.00000000000E+00 -0.00000000000E+00 -0.91790707514E+02  0.91790707514E+02  0.00000000000E+00 0. -1.
         23    2    1    2    0    0  0.10024049032E+03 -0.26162167372E+02  0.55506905746E+01  0.12256365853E+03  0.65256611352E+02 0.  0.
          5    1    1    2  502    0 -0.65809095797E+02 -0.87414193596E+01  0.16945388940E+03  0.18204214494E+03  0.41800000000E+01 0. -1.
         -5    1    1    2    0  502 -0.34431394527E+02  0.34903586732E+02 -0.45628532227E+01  0.49417338307E+02  0.41800000000E+01 0. -1.
        -11    1    3    3    0    0  0.20652758345E+02 -0.68464339948E+01  0.30031380024E+02  0.37084954791E+02  0.00000000000E+00 0.  1.
         11    1    3    3    0    0  0.79587731978E+02 -0.19315733377E+02 -0.24480689450E+02  0.85478703741E+02  0.00000000000E+00 0. -1.
</event>
<event>
 7    1  0.4687179E-006  0.1080312E+03  0.7561462E-02  0.1264260E+00
         -3   -1    0    0    0  501 -0.00000000000E+00  0.00000000000E+00  0.40033869852E+02  0.40033869852E+02  0.00000000000E+00 0.  1.
          3   -1    0    0  501    0  0.00000000000E+00 -0.00000000000E+00 -0.30486123781E+03  0.30486123781E+03  0.00000000000E+00 0. -1.
         23    2    1    2    0    0  0.22055077848E+02  0.24525254723E+02 -0.11637586739E+03  0.14798652578E+03  0.85256992225E+02 0.  0.
          5    1    1    2  502    0 -0.74386426419E+02 -0.15394157139E+02 -0.87604558799E+02  0.11602737449E+03  0.41800000000E+01 0.  1.
         -5    1    1    2    0  502  0.52331348571E+02 -0.91310975838E+01 -0.60846941768E+02  0.80881207390E+02  0.41800000000E+01 0.  1.
        -11    1    3    3    0    0 -0.28919355528E+01 -0.28211314999E+02 -0.17927218613E+02  0.33550361435E+02  0.00000000000E+00 0.  1.
         11    1    3    3    0    0  0.24947013401E+02  0.52736569722E+02 -0.98448648780E+02  0.11443616435E+03  0.00000000000E+00 0. -1.
</event>
<event>
 7    1  0.4687179E-006  0.1497467E+03  0.7561462E-02  0.1200785E+00
         -2   -1    0    0    0  501 -0.00000000000E+00  0.00000000000E+00  0.27764573089E+02  0.27764573089E+02  0.00000000000E+00 0.  1.
          2   -1    0    0  501    0  0.00000000000E+00 -0.00000000000E+00 -0.90995065071E+03  0.90995065071E+03  0.00000000000E+00 0. -1.
         23    2    1    2    0    0  0.11002943928E+03  0.23005746074E+02 -0.46449877136E+03  0.48744311007E+03  0.95947564335E+02 0.  0.
          5    1    1    2  502    0  0.23003090128E+02 -0.11457761037E+02 -0.27606170800E+02  0.37947272757E+02  0.41800000000E+01 0. -1.
         -5    1    1    2    0  502 -0.13303252941E+03 -0.11547985037E+02 -0.39008113547E+03  0.41232484098E+03  0.41800000000E+01 0. -1.
        -11    1    3    3    0    0  0.28901887440E+02  0.47072242058E+02 -0.26574086987E+03  0.27142093690E+03  0.00000000000E+00 0.  1.
         11    1    3    3    0    0  0.81127551838E+02 -0.24066495984E+02 -0.19875790149E+03  0.21602217317E+03  0.00000000000E+00 0. -1.
</event>
<event>
 7    1  0.4687179E-006  0.1041600E+03  0.7561462E-02  0.1271784E+00
          3   -1    0    0  501    0  0.00000000000E+00  0.00000000000E+00  0.36939457129E+02  0.36939457129E+02  0.00000000000E+00 0. -1.
         -3   -1    0    0    0  501 -0.00000000000E+00 -0.00000000000E+00 -0.38647137093E+03  0.38647137093E+03  0.00000000000E+00 0.  1.
         23    2    1    2    0    0 -0.26638995978E+02  0.68384039581E+01 -0.78049697947E+02  0.12323146236E+03  0.91311763148E+02 0.  0.
          5    1    1    2  502    0 -0.42053845554E+02 -0.32748616430E+02 -0.13387435188E+03  0.14415551427E+03  0.41800000000E+01 0. -1.
         -5    1    1    2    0  502  0.68692841531E+02  0.25910212472E+02 -0.13760786398E+03  0.15602385143E+03  0.41800000000E+01 0. -1.
        -11    1    3    3    0    0 -0.35100444299E+02  0.36402318928E+02 -0.14457714611E+02  0.52594633995E+02  0.00000000000E+00 0. -1.
         11    1    3    3    0    0  0.84614483209E+01 -0.29563914970E+02 -0.63591983337E+02  0.70636828360E+02  0.00000000000E+00 0.  1.
</event>
<event>
 7    1  0.4687179E-006  0.1223306E+03  0.7561462E-02  0.1239301E+00
          1   -1    0    0  501    0  0.00000000000E+00  0.00000000000E+00  0.30354244303E+03  0.30354244303E+03  0.00000000000E+00 0. -1.
         -1   -1    0    0    0  501 -0.00000000000E+00 -0.00000000000E+00 -0.68377248708E+02  0.68377248708E+02  0.00000000000E+00 0.  1.
         23    2    1    2    0    0  0.35937786627E+02 -0.82742022997E+02  0.14432865792E+03  0.19295390636E+03  0.90899293760E+02 0.  0.
          5    1    1    2  502    0 -0.77447915858E+02  0.22415406789E+02  0.51075808092E+02  0.95534500075E+02  0.41800000000E+01 0. -1.
         -5    1    1    2    0  502  0.41510129231E+02  0.60326616207E+02  0.39760728318E+02  0.83431285308E+02  0.41800000000E+01 0. -1.
        -11    1    3    3    0    0  0.11284200358E+02 -0.36093216680E+02  0.13394267806E+03  0.13917864230E+03  0.00000000000E+00 0. -1.
         11    1    3    3    0    0  0.24653586269E+02 -0.46648806316E+02  0.10385979858E+02  0.53775264056E+02  0.00000000000E+00 0.  1.
</event>
<event>
 7    1  0.4687179E-006  0.2305146E+03  0.7561462E-02  0.1126278E+00
          3   -1    0    0  501    0  0.00000000000E+00  0.00000000000E+00  0.45496560278E+03  0.45496560278E+03  0.00000000000E+00 0. -1.
         -3   -1    0    0    0  501 -0.00000000000E+00 -0.00000000000E+00 -0.14990042626E+03  0.14990042626E+03  0.00000000000E+00 0.  1.
         23    2    1    2    0    0  0.13504477528E+03 -0.16555162425E+03  0.26703745800E+03  0.35438670763E+03  0.92932787241E+02 0.  0.
          5    1    1    2  502    0  0.39511412806E+01  0.44686995761E+02  0.48169754659E+02  0.65957082800E+02  0.41800000000E+01 0. -1.
         -5    1    1    2    0  502 -0.13899591656E+03  0.12086462849E+03 -0.10142036141E+02  0.18452223860E+03  0.41800000000E+01 0. -1.
        -11    1    3    3    0    0  0.97940743835E+02 -0.16808721716E+03  0.23673961387E+03  0.30641694903E+03  0.00000000000E+00 0.  1.
         11    1    3    3    0    0  0.37104031449E+02  0.25355929126E+01  0.30297844137E+02  0.47969758604E+02  0.00000000000E+00 0. -1.
</event>
<event>
 7    1  0.4687179E-006  0.5857917E+02  0.7561462E-02  0.1403893E+00
         -1   -1    0    0    0  501 -0.00000000000E+00  0.00000000000E+00  0.15970898195E+03  0.15970898195E+03  0.00000000000E+00 0. -1.
          1   -1    0    0  501    0  0.00000000000E+00 -0.00000000000E+00 -0.10797038177E+03  0.10797038177E+03  0.00000000000E+00 0.  1.
         23    2    1    2    0    0 -0.22733834756E+00  0.38548074363E+02 -0.39961400158E+02  0.10786617091E+03  0.92478060129E+02 0.  0.
          5    1    1    2  502    0  0.16590637625E+01  0.11301351834E+02  0.10683858746E+03  0.10752873670E+03  0.41800000000E+01 0. -1.
         -5    1    1    2    0  502 -0.14317254150E+01 -0.49849426197E+02 -0.15138587119E+02  0.52284456101E+02  0.41800000000E+01 0. -1.
        -11    1    3    3    0    0 -0.15035205651E+02  0.15694517823E+01  0.26426640532E+02  0.30444834006E+02  0.00000000000E+00 0. -1.
         11    1    3    3    0    0  0.14807867303E+02  0.36978622581E+02 -0.66388040689E+02  0.77421336908E+02  0.00000000000E+00 0.  1.
</event>
<event>
 7    1  0.4687179E-006  0.1152129E+03  0.7561462E-02  0.1251210E+00
         -4   -1    0    0    0  501 -0.00000000000E+00  0.00000000000E+00  0.17233800436E+03  0.17233800436E+03  0.00000000000E+00 0.  1.
          4   -1    0    0  501    0  0.00000000000E+00 -0.00000000000E+00 -0.97758254735E+02  0.97758254735E+02  0.00000000000E+00 0. -1.
         23    2    1    2    0    0  0.64630959268E+02  0.13385715126E+02  0.81504064424E+01  0.11382992275E+03  0.92382270606E+02 0.  0.
          5    1    1    2  502    0 -0.34878398089E+02  0.41676954095E+02  0.75256589596E+02  0.92921998652E+02  0.41800000000E+01 0. -1.
         -5    1    1    2    0  502 -0.29752561179E+02 -0.55062669221E+02 -0.88272464159E+01  0.63344337693E+02  0.41800000000E+01 0. -1.
        -11    1    3    3    0    0  0.34400019519E+02 -0.39436708670E+02  0.81878412116E+01  0.52968444166E+02  0.00000000000E+00 0.  1.
         11    1    3    3    0    0  0.30230939749E+02  0.52822423796E+02 -0.37434769204E-01  0.60861478582E+02  0.00000000000E+00 0. -1.
</event>
<event>
 7    1  0.4687179E-006  0.1137038E+03  0.7561462E-02  0.1253861E+00
         -1   -1    0    0    0  501 -0.00000000000E+00  0.00000000000E+00  0.23512484619E+02  0.23512484619E+02  0.00000000000E+00 0.  1.
          1   -1    0    0  501    0  0.00000000000E+00 -0.00000000000E+00 -0.65429807408E+03  0.65429807408E+03  0.00000000000E+00 0. -1.
         23    2    1    2    0    0 -0.30591610860E+02  0.32890577072E+02 -0.38198169219E+03  0.39573146387E+03  0.93143661125E+02 0.  0.
          5    1    1    2  502    0 -0.54960484045E+01 -0.74692685726E+02 -0.16944526300E+03  0.18530616127E+03  0.41800000000E+01 0. -1.
         -5    1    1    2    0  502  0.36087659264E+02  0.41802108654E+02 -0.79358634268E+02  0.96772933571E+02  0.41800000000E+01 0. -1.
        -11    1    3    3    0    0 -0.49316916630E+02 -0.99044940706E+01 -0.26566945693E+03  0.27038956639E+03  0.00000000000E+00 0. -1.
         11    1    3    3    0    0  0.18725305770E+02  0.42795071142E+02 -0.11631223527E+03  0.12534189748E+03  0.00000000000E+00 0.  1.
</event>
<event>
 7    1  0.4687179E-006  0.1547230E+03  0.7561462E-02  0.1194787E+00
          2   -1    0    0  501    0  0.00000000000E+00  0.00000000000E+00  0.19938820478E+02  0.19938820478E+02  0.00000000000E+00 0. -1.
         -2   -1    0    0    0  501 -0.00000000000E+00 -0.00000000000E+00 -0.23860698214E+04  0.23860698214E+04  0.00000000000E+00 0.  1.
         23    2    1    2    0    0  0.10134624710E+03  0.10018266706E+03 -0.45078627948E+03  0.48130141286E+03  0.90195075679E+02 0.  0.
          5    1    1    2  502    0 -0.75037698589E+02 -0.84127994678E+02 -0.18363261174E+04  0.18397878295E+04  0.41800000000E+01 0.  1.
         -5    1    1    2    0  502 -0.26308548512E+02 -0.16054672383E+02 -0.79018603998E+02  0.84919399480E+02  0.41800000000E+01 0.  1.
        -11    1    3    3    0    0  0.18362800531E+02  0.77305348689E+02 -0.26270404360E+03  0.27445714401E+03  0.00000000000E+00 0.  1.
         11    1    3    3    0    0  0.82983446571E+02  0.22877318373E+02 -0.18808223588E+03  0.20684426885E+03  0.00000000000E+00 0. -1.
</event>
<event>
 7    1  0.4687179E-006  0.1293146E+03  0.7561462E-02  0.1228476E+00
          2   -1    0    0  501    0  0.00000000000E+00  0.00000000000E+00  0.27166747468E+03  0.27166747468E+03  0.00000000000E+00 0. -1.
         -2   -1    0    0    0  501 -0.00000000000E+00 -0.00000000000E+00 -0.66599072932E+02  0.66599072932E+02  0.00000000000E+00 0.  1.
         23    2    1    2    0    0 -0.68554437421E+02  0.37271610352E+02  0.95724555881E+02  0.15470866638E+03  0.93180990686E+02 0.  0.
          5    1    1    2  502    0  0.73572648923E+02  0.25742119793E+02  0.34059505765E+02  0.85165214343E+02  0.41800000000E+01 0.  1.
         -5    1    1    2    0  502 -0.50182115021E+01 -0.63013730145E+02  0.75284340097E+02  0.98392666888E+02  0.41800000000E+01 0.  1.
        -11    1    3    3    0    0 -0.85122306964E+02  0.10542922629E+02  0.50213767989E+02  0.99390054110E+02  0.00000000000E+00 0.  1.
         11    1    3    3    0    0  0.16567869542E+02  0.26728687723E+02  0.45510787892E+02  0.55318612267E+02  0.00000000000E+00 0. -1.
</event>
<event>
 7    1  0.4687179E-006  0.1261661E+03  0.7561462E-02  0.1233258E+00
          1   -1    0    0  501    0  0.00000000000E+00  0.00000000000E+00  0.34623857946E+02  0.34623857946E+02  0.00000000000E+00 0. -1.
         -1   -1    0    0    0  501 -0.00000000000E+00 -0.00000000000E+00 -0.51154117636E+03  0.51154117636E+03  0.00000000000E+00 0.  1.
         23    2    1    2    0    0  0.39134309097E+02 -0.67611344924E+02 -0.20213007742E+03  0.23430355257E+03  0.89099935120E+02 0.  0.
          5    1    1    2  502    0 -0.18776831149E+02 -0.35496446909E+02 -0.10034510751E+03  0.10816274836E+03  0.41800000000E+01 0.  1.
         -5    1    1    2    0  502 -0.20357477949E+02  0.10310779183E+03 -0.17444213349E+03  0.20369873339E+03  0.41800000000E+01 0.  1.
        -11    1    3    3    0    0 -0.29824806891E+01  0.14334548433E+02 -0.79939388816E+02  0.81269184530E+02  0.00000000000E+00 0.  1.
         11    1    3    3    0    0  0.42116789786E+02 -0.81945893358E+02 -0.12219068860E+03  0.15303436804E+03  0.00000000000E+00 0. -1.
</event>
<event>
 7    1  0.4687179E-006  0.1177223E+03  0.7561462E-02  0.1246902E+00
          2   -1    0    0  501    0  0.00000000000E+00  0.00000000000E+00  0.73945436995E+02  0.73945436995E+02  0.00000000000E+00 0. -1.
         -2   -1    0    0    0  501 -0.00000000000E+00 -0.00000000000E+00 -0.21564847785E+03  0.21564847785E+03  0.00000000000E+00 0.  1.
         23    2    1    2    0    0  0.43924432266E+02  0.28835931219E+02 -0.17213411060E+02  0.10546193476E+03  0.89805631688E+02 0.  0.
          5    1    1    2  502    0 -0.75316634849E+02 -0.55703252378E+02 -0.92424557778E+02  0.13166327921E+03  0.41800000000E+01 0.  1.
         -5    1    1    2    0  502  0.31392202583E+02  0.26867321159E+02 -0.32065072021E+02  0.52468700889E+02  0.41800000000E+01 0.  1.
        -11    1    3    3    0    0 -0.10205116660E+01  0.50318095625E+02  0.56616267049E+01  0.50645890340E+02  0.00000000000E+00 0. -1.
         11    1    3    3    0    0  0.44944943932E+02 -0.21482164406E+02 -0.22875037765E+02  0.54816044416E+02  0.00000000000E+00 0.  1.
</event>
<event>
 7    1  0.4687179E-006  0.1552036E+03  0.7561462E-02  0.1194221E+00
          1   -1    0    0  501    0  0.00000000000E+00  0.00000000000E+00  0.56157062193E+03  0.56157062193E+03  0.00000000000E+00 0. -1.
         -1   -1    0    0    0  501 -0.00000000000E+00 -0.00000000000E+00 -0.50340967687E+02  0.50340967687E+02  0.00000000000E+00 0.  1.
         23    2    1    2    0    0  0.11804713076E+03  0.21491402594E+02  0.31954070644E+03  0.35347597110E+03  0.91880322175E+02 0.  0.
          5    1    1    2  502    0 -0.14171876916E+03 -0.30858053880E+02  0.14522788241E+03  0.20529256988E+03  0.41800000000E+01 0. -1.
         -5    1    1    2    0  502  0.23671638396E+02  0.93666512868E+01  0.46461065392E+02  0.53143048633E+02  0.41800000000E+01 0. -1.
        -11    1    3    3    0    0  0.33247178471E+02  0.40707576151E+02  0.19237654604E+03  0.19942722256E+03  0.00000000000E+00 0. -1.
         11    1    3    3    0    0  0.84799952292E+02 -0.19216173557E+02  0.12716416041E+03  0.15404874854E+03  0.00000000000E+00 0.  1.
</event>
<event>
 7    1  0.4687179E-006  0.7110128E+02  0.7561462E-02  0.1356388E+00
          2   -1    0    0  501    0  0.00000000000E+00  0.00000000000E+00  0.21913642878E+03  0.21913642878E+03  0.00000000000E+00 0.  1.
         -2   -1    0    0    0  501 -0.00000000000E+00 -0.00000000000E+00 -0.66461533735E+02  0.66461533735E+02  0.00000000000E+00 0. -1.
         23    2    1    2    0    0 -0.48357155090E+02  0.16311787716E+02  0.61590346921E+02  0.12265986480E+03  0.92992379971E+02 0.  0.
          5    1    1    2  502    0  0.21832997020E+02 -0.24920826494E+02 -0.26115501832E+02  0.42393622020E+02  0.41800000000E+01 0. -1.
         -5    1    1    2    0  502  0.26524158069E+02  0.86090387783E+01  0.11720004996E+03  0.12054447569E+03  0.41800000000E+01 0. -1.
        -11    1    3    3    0    0 -0.53531194650E+02  0.33170585893E+02  0.76837682200E+02  0.99347400445E+02  0.00000000000E+00 0.  1.
         11    1    3    3    0    0  0.51740395608E+01 -0.16858798177E+02 -0.15247335279E+02  0.23312464358E+02  0.00000000000E+00 0. -1.
</event>
<event>
 7    1  0.4687179E-006  0.8572023E+02  0.7561462E-02  0.1313560E+00
          1   -1    0    0  501    0  0.00000000000E+00  0.00000000000E+00  0.11140544130E+03  0.11140544130E+03  0.00000000000E+00 0. -1.
         -1   -1    0    0    0  501 -0.00000000000E+00 -0.00000000000E+00 -0.17329385771E+03  0.17329385771E+03  0.00000000000E+00 0.  1.
         23    2    1    2    0    0  0.26138511748E+02  0.16379410584E+02  0.41528550134E+02  0.10245397077E+03  0.88434658154E+02 0.  0.
          5    1    1    2  502    0 -0.86217843914E+00 -0.59413164508E+02  0.79890624278E+01  0.60099625515E+02  0.41800000000E+01 0. -1.
         -5    1    1    2    0  502 -0.25276333309E+02  0.43033753924E+02 -0.11140602897E+03  0.12214570273E+03  0.41800000000E+01 0.  1.
        -11    1    3    3    0    0  0.42343623585E+02  0.16866428543E+02  0.61614914300E+02  0.76641089073E+02  0.00000000000E+00 0. -1.
         11    1    3    3    0    0 -0.16205111837E+02 -0.48701795940E+00 -0.20086364165E+02  0.25812881697E+02  0.00000000000E+00 0.  1.
</event>
<event>
 7    1  0.4687179E-006  0.1991126E+03  0.7561462E-02  0.1150490E+00
         -2   -1    0    0    0  501 -0.00000000000E+00  0.00000000000E+00  0.59617052239E+03  0.59617052239E+03  0.00000000000E+00 0.  1.
          2   -1    0    0  501    0  0.00000000000E+00 -0.00000000000E+00 -0.73846960738E+02  0.73846960738E+02  0.00000000000E+00 0. -1.
         23    2    1    2    0    0 -0.88747614370E+02  0.15366494363E+03  0.29062518531E+03  0.35249441810E+03  0.91105776444E+02 0.  0.
          5    1    1    2  502    0 -0.16447118712E+02 -0.79175750215E+02  0.51622168693E+02  0.96029307176E+02  0.41800000000E+01 0.  1.
         -5    1    1    2    0  502  0.10519473308E+03 -0.74489193416E+02  0.18007620766E+03  0.22149375785E+03  0.41800000000E+01 0.  1.
        -11    1    3    3    0    0 -0.75880738445E+02  0.68724551863E+02  0.98641574453E+02  0.14216578599E+03  0.00000000000E+00 0. -1.
         11    1    3    3    0    0 -0.12866875925E+02  0.84940391769E+02  0.19198361085E+03  0.21032863211E+03  0.00000000000E+00 0.  1.
</event>
<event>
 7    1  0.4687179E-006  0.9199997E+02  0.7561462E-02  0.1298080E+00
         -2   -1    0    0    0  501 -0.00000000000E+00  0.00000000000E+00  0.33589873727E+02  0.33589873727E+02  0.00000000000E+00 0. -1.
          2   -1    0    0  501    0  0.00000000000E+00 -0.00000000000E+00 -0.36385385196E+03  0.36385385196E+03  0.00000000000E+00 0.  1.
         23    2    1    2    0    0 -0.90296799537E+01  0.60489416715E+01 -0.17947076488E+03  0.20122417108E+03  0.90350909047E+02 0.  0.
          5    1    1    2  502    0 -0.33349860753E+02 -0.29206721592E+02 -0.77643841529E+01  0.45199600216E+02  0.41800000000E+01 0.  1.
         -5    1    1    2    0  502  0.42379540707E+02  0.23157779921E+02 -0.14302882919E+03  0.15101995438E+03  0.41800000000E+01 0.  1.
        -11    1    3    3    0    0 -0.24296266386E+02 -0.37593891412E+02 -0.87271220791E+02  0.98080962527E+02  0.00000000000E+00 0. -1.
         11    1    3    3    0    0  0.15266586433E+02  0.43642833084E+02 -0.92199544091E+02  0.10314320856E+03  0.00000000000E+00 0.  1.
</event>
<event>
 7    1  0.4687179E-006  0.1094920E+03  0.7561462E-02  0.1261513E+00
          2   -1    0    0  501    0  0.00000000000E+00  0.00000000000E+00  0.29526714064E+03  0.29526714064E+03  0.00000000000E+00 0. -1.
         -2   -1    0    0    0  501 -0.00000000000E+00 -0.00000000000E+00 -0.50671626078E+02  0.50671626078E+02  0.00000000000E+00 0.  1.
         23    2    1    2    0    0  0.38964165356E+02  0.39549149213E+02  0.92670407655E+02  0.14146195812E+03  0.91330935366E+02 0.  0.
          5    1    1    2  502    0  0.14943549469E+02  0.26322104263E+02  0.31528322005E+00  0.30557071965E+02  0.41800000000E+01 0.  1.
         -5    1    1    2    0  502 -0.53907714825E+02 -0.65871253475E+02  0.15160982369E+03  0.17391973663E+03  0.41800000000E+01 0.  1.
        -11    1    3    3    0    0 -0.63434167389E+01 -0.24189331400E+02  0.81214799612E+01  0.26292986256E+02  0.00000000000E+00 0.  1.
         11    1    3    3    0    0  0.45307582095E+02  0.63738480612E+02  0.84548927694E+02  0.11516897186E+03  0.00000000000E+00 0. -1.
</event>
<event>
 7    1  0.4687179E-006  0.1250783E+03  0.7561462E-02  0.1234947E+00
         -1   -1    0    0    0  501 -0.00000000000E+00  0.00000000000E+00  0.21965383664E+03  0.21965383664E+03  0.00000000000E+00 0.  1.
          1   -1    0    0  501    0  0.00000000000E+00 -0.00000000000E+00 -0.78237071141E+02  0.78237071141E+02  0.00000000000E+00 0. -1.
         23    2    1    2    0    0  0.27406722364E+02 -0.58955625791E+02  0.18968438606E+02  0.11116157244E+03  0.88148733865E+02 0.  0.
          5    1    1    2  502    0 -0.77430053607E+02  0.37283452359E+02  0.80340538279E+02  0.11771806791E+03  0.41800000000E+01 0. -1.
         -5    1    1    2    0  502  0.50023331243E+02  0.21672173432E+02  0.42107788615E+02  0.69011267428E+02  0.41800000000E+01 0. -1.
        -11    1    3    3    0    0 -0.28631807501E+02 -0.74859474660E+00  0.29767244432E+01  0.28795862260E+02  0.00000000000E+00 0.  1.
         11    1    3    3    0    0  0.56038529865E+02 -0.58207031044E+02  0.15991714163E+02  0.82365710185E+02  0.00000000000E+00 0. -1.
</event>
<event>
 7    1  0.4687179E-006  0.1187899E+03  0.7561462E-02  0.1245107E+00
         -1   -1    0    0    0  501 -0.00000000000E+00  0.00000000000E+00  0.57625620585E+02  0.57625620585E+02  0.00000000000E+00 0.  1.
          1   -1    0    0  501    0  0.00000000000E+00 -0.00000000000E+00 -0.37093477466E+03  0.37093477466E+03  0.00000000000E+00 0. -1.
         23    2    1    2    0    0  0.40757834452E+02 -0.78869020516E+02 -0.11016429331E+03  0.17400667110E+03  0.10129475109E+03 0.  0.
          5    1    1    2  502    0 -0.73857788085E+01  0.10504936469E+03 -0.17216902002E+03  0.20186520900E+03  0.41800000000E+01 0.  1.
         -5    1    1    2    0  502 -0.33372055644E+02 -0.26180344171E+02 -0.30975840742E+02  0.52688515147E+02  0.41800000000E+01 0.  1.
        -11    1    3    3    0    0  0.11738264118E+02 -0.12589600625E+02 -0.99372564290E+02  0.10085232482E+03  0.00000000000E+00 0. -1.
         11    1    3    3    0    0  0.29019570334E+02 -0.66279419891E+02 -0.10791729022E+02  0.73154346274E+02  0.00000000000E+00 0.  1.
</event>
<event>
 7    1  0.4687179E-006  0.1427251E+03  0.7561462E-02  0.1209709E+00
          2   -1    0    0  501    0  0.00000000000E+00  0.00000000000E+00  0.54732373924E+02  0.54732373924E+02  0.00000000000E+00 0. -1.
         -2   -1    0    0    0  501 -0.00000000000E+00 -0.00000000000E+00 -0.38043521024E+03  0.38043521024E+03  0.00000000000E+00 0.  1.
         23    2    1    2    0    0  0.25351386556E+02 -0.87600770047E+02 -0.15728163787E+03  0.20641017021E+03  0.97729509565E+02 0.  0.
          5    1    1    2  502    0 -0.26452007132E+02 -0.27422302117E+02 -0.29631765820E+02  0.48447964666E+02  0.41800000000E+01 0. -1.
         -5    1    1    2    0  502  0.11006205757E+01  0.11502307216E+03 -0.13878943263E+03  0.18030944929E+03  0.41800000000E+01 0. -1.
        -11    1    3    3    0    0  0.60649537477E+02 -0.69849802154E+02 -0.12429113517E+03  0.15493756013E+03  0.00000000000E+00 0. -1.
         11    1    3    3    0    0 -0.35298150921E+02 -0.17750967893E+02 -0.32990502702E+02  0.51472610077E+02  0.00000000000E+00 0.  1.
</event>
<event>
 7    1  0.4687179E-006  0.1694348E+03  0.7561462E-02  0.1178439E+00
          1   -1    0    0  501    0  0.00000000000E+00  0.00000000000E+00  0.16040620408E+04  0.16040620408E+04  0.00000000000E+00 0. -1.
         -1   -1    0    0    0  501 -0.00000000000E+00 -0.00000000000E+00 -0.21793508711E+02  0.21793508711E+02  0.00000000000E+00 0.  1.
         23    2    1    2    0    0  0.12239914441E+03  0.49976527817E+02  0.60230096092E+03  0.62912954292E+03  0.12473303638E+03 0.  0.
          5    1    1    2  502    0 -0.13205308116E+03 -0.19553815046E+02  0.56750581659E+03  0.58301002752E+03  0.41800000000E+01 0.  1.
         -5    1    1    2    0  502  0.96539367569E+01 -0.30422712771E+02  0.41246175457E+03  0.41371597906E+03  0.41800000000E+01 0.  1.
        -11    1    3    3    0    0  0.33260472465E+02 -0.36183774278E+02  0.95730654537E+02  0.10760986371E+03  0.00000000000E+00 0.  1.
         11    1    3    3    0    0  0.89138671943E+02  0.86160302095E+02  0.50657030638E+03  0.52151967921E+03  0.00000000000E+00 0. -1.
</event>
<event>
 7    1  0.4687179E-006  0.7745211E+02  0.7561462E-02  0.1336442E+00
         -1   -1    0    0    0  501 -0.00000000000E+00  0.00000000000E+00  0.26616710233E+02  0.26616710233E+02  0.00000000000E+00 0.  1.
          1   -1    0    0  501    0  0.00000000000E+00 -0.00000000000E+00 -0.43776153239E+03  0.43776153239E+03  0.00000000000E+00 0. -1.
         23    2    1    2    0    0 -0.81234231682E+01 -0.99913243896E+01 -0.17217648262E+03  0.19434353539E+03  0.89212398315E+02 0.  0.
          5    1    1    2  502    0 -0.37358477179E+02 -0.26924919302E+02 -0.35598329226E+02  0.58355124370E+02  0.41800000000E+01 0. -1.
         -5    1    1    2    0  502  0.45481900348E+02  0.36916243692E+02 -0.20337001031E+03  0.21167958286E+03  0.41800000000E+01 0. -1.
        -11    1    3    3    0    0  0.20015334508E+02 -0.85411464828E+01 -0.20033407500E+01  0.21853562018E+02  0.00000000000E+00 0.  1.
         11    1    3    3    0    0 -0.28138757676E+02 -0.14501779068E+01 -0.17017314187E+03  0.17248997337E+03  0.00000000000E+00 0. -1.
</event>
<event>
 7    1  0.4687179E-006  0.8794091E+02  0.7561462E-02  0.1307916E+00
          2   -1    0    0  501    0  0.00000000000E+00  0.00000000000E+00  0.11779539939E+03  0.11779539939E+03  0.00000000000E+00 0. -1.
         -2   -1    0    0    0  501 -0.00000000000E+00 -0.00000000000E+00 -0.10485975950E+03  0.10485975950E+03  0.00000000000E+00 0.  1.
         23    2    1    2    0    0 -0.18786495368E+02  0.17442186143E+02  0.10869853689E+02  0.94949158616E+02  0.90774593014E+02 0.  0.
          5    1    1    2  502    0 -0.24793693272E+02 -0.33286046243E+02 -0.45097895206E+02  0.61432732745E+02  0.41800000000E+01 0.  1.
         -5    1    1    2    0  502  0.43580188641E+02  0.15843860100E+02  0.47163681412E+02  0.66273267530E+02  0.41800000000E+01 0.  1.
        -11    1    3    3    0    0 -0.39179607064E+02  0.40823337066E+02 -0.10134018763E+02  0.57482908722E+02  0.00000000000E+00 0.  1.
         11    1    3    3    0    0  0.20393111695E+02 -0.23381150923E+02  0.21003872451E+02  0.37466249893E+02  0.00000000000E+00 0. -1.
</event>
<event>
 7    1  0.4687179E-006  0.1482218E+03  0.7561462E-02  0.1202675E+00
          4   -1    0    0  501    0  0.00000000000E+00  0.00000000000E+00  0.11008039363E+03  0.11008039363E+03  0.00000000000E+00 0. -1.
         -4   -1    0    0    0  501 -0.00000000000E+00 -0.00000000000E+00 -0.27975404374E+03  0.27975404374E+03  0.00000000000E+00 0.  1.
         23    2    1    2    0    0  0.65912343471E+02 -0.12293059679E+03 -0.68091670521E+02  0.17670787247E+03  0.84456071117E+02 0.  0.
          5    1    1    2  502    0 -0.74781826795E+02  0.10957179302E+03 -0.25361804263E+02  0.13512584120E+03  0.41800000000E+01 0.  1.
         -5    1    1    2    0  502  0.88694833241E+01  0.13358803771E+02 -0.76220175322E+02  0.78000723707E+02  0.41800000000E+01 0.  1.
        -11    1    3    3    0    0  0.73392154159E+02 -0.11122942672E+03 -0.30602817362E+02  0.13672939000E+03  0.00000000000E+00 0. -1.
         11    1    3    3    0    0 -0.74798106883E+01 -0.11701170075E+02 -0.37488853160E+02  0.39978482466E+02  0.00000000000E+00 0.  1.
</event>
<event>
 7    1  0.4687179E-006  0.2015963E+03  0.7561462E-02  0.1148399E+00
          3   -1    0    0  501    0  0.00000000000E+00  0.00000000000E+00  0.45925704714E+02  0.45925704714E+02  0.00000000000E+00 0. -1.
         -3   -1    0    0    0  501 -0.00000000000E+00 -0.00000000000E+00 -0.12452746109E+04  0.12452746109E+04  0.00000000000E+00 0.  1.
         23    2    1    2    0    0  0.99892999911E+02  0.11855749238E+03 -0.25931074188E+03  0.31705239452E+03  0.96154404901E+02 0.  0.
          5    1    1    2  502    0 -0.53395829767E+02 -0.16892768291E+03 -0.54221949182E+03  0.57044467427E+03  0.41800000000E+01 0.  1.
         -5    1    1    2    0  502 -0.46497170144E+02  0.50370190537E+02 -0.39781867249E+03  0.40370324684E+03  0.41800000000E+01 0. -1.
        -11    1    3    3    0    0  0.52809565421E+02  0.42228160968E+02 -0.19583288879E+03  0.20717767281E+03  0.00000000000E+00 0.  1.
         11    1    3    3    0    0  0.47083434490E+02  0.76329331409E+02 -0.63477853094E+02  0.10987472171E+03  0.00000000000E+00 0. -1.
</event>
<event>
 7    1  0.4687179E-006  0.1242355E+03  0.7561462E-02  0.1236269E+00
          2   -1    0    0  501    0  0.00000000000E+00  0.00000000000E+00  0.15028481078E+04  0.15028481078E+04  0.00000000000E+00 0. -1.
         -2   -1    0    0    0  501 -0.00000000000E+00 -0.00000000000E+00 -0.10781901562E+02  0.10781901562E+02  0.00000000000E+00 0.  1.
         23    2    1    2    0    0  0.21834307752E+01 -0.62675500262E+02  0.49553995866E+03  0.50732725248E+03  0.88815003078E+02 0.  0.
          5    1    1    2  502    0  0.46082067525E+02  0.76586881672E+02  0.64994736049E+03  0.65607785453E+03  0.41800000000E+01 0.  1.
         -5    1    1    2    0  502 -0.48265498300E+02 -0.13911381411E+02  0.34657888712E+03  0.35022490239E+03  0.41800000000E+01 0.  1.
        -11    1    3    3    0    0 -0.33138952999E+01  0.22747594236E+02  0.11568497364E+03  0.11794680187E+03  0.00000000000E+00 0.  1.
         11    1    3    3    0    0  0.54973260750E+01 -0.85423094498E+02  0.37985498502E+03  0.38938045061E+03  0.00000000000E+00 0. -1.
</event>
<event>
 7    1  0.4687179E-006  0.9643017E+02  0.7561462E-02  0.1287987E+00
          1   -1    0    0  501    0  0.00000000000E+00  0.00000000000E+00  0.31807614948E+03  0.31807614948E+03  0.00000000000E+00 0. -1.
         -1   -1    0    0    0  501 -0.00000000000E+00 -0.00000000000E+00 -0.76924217009E+02  0.76924217009E+02  0.00000000000E+00 0.  1.
         23    2    1    2    0    0 -0.10021026214E+02 -0.42497711457E+02  0.25231800718E+03  0.27162094856E+03  0.90592971585E+02 0.  0.
          5    1    1    2  502    0  0.47911332727E+02  0.44401690146E+02  0.25694416203E+02  0.70318427994E+02  0.41800000000E+01 0.  1.
         -5    1    1    2    0  502 -0.37890306513E+02 -0.19039786887E+01 -0.36860490917E+02  0.53060989937E+02  0.41800000000E+01 0. -1.
        -11    1    3    3    0    0  0.48819646796E+01 -0.63387823374E+02  0.11036121100E+03  0.12736344305E+03  0.00000000000E+00 0. -1.
         11    1    3    3    0    0 -0.14902990894E+02  0.20890111917E+02  0.14195679619E+03  0.14425750551E+03  0.00000000000E+00 0.  1.
</event>
<event>
 7    1  0.4687179E-006  0.1116964E+03  0.7561462E-02  0.1257460E+00
         -3   -1    0    0    0  501 -0.00000000000E+00  0.00000000000E+00  0.60852751053E+03  0.60852751053E+03  0.00000000000E+00 0.  1.
          3   -1    0    0  501    0  0.00000000000E+00 -0.00000000000E+00 -0.32485382274E+02  0.32485382274E+02  0.00000000000E+00 0. -1.
         23    2    1    2    0    0  0.70742429359E+02 -0.23171011121E+02  0.16792758406E+03  0.20771420732E+03  0.96974900694E+02 0.  0.
          5    1    1    2  502    0 -0.17403695941E+01 -0.24833385396E+02  0.11298856115E+02  0.27656146985E+02  0.41800000000E+01 0.  1.
         -5    1    1    2    0  502 -0.69002059765E+02  0.48004396517E+02  0.39681568807E+03  0.40564253850E+03  0.41800000000E+01 0.  1.
        -11    1    3    3    0    0  0.71454032733E+02  0.17294087634E+02  0.14126361591E+03  0.15924877846E+03  0.00000000000E+00 0.  1.
         11    1    3    3    0    0 -0.71160337398E+00 -0.40465098756E+02  0.26663968150E+02  0.48465428856E+02  0.00000000000E+00 0. -1.
</event>
<event>
 7    1  0.4687179E-006  0.1542224E+03  0.7561462E-02  0.1195379E+00
          1   -1    0    0  501    0  0.00000000000E+00  0.00000000000E+00  0.14930431178E+03  0.14930431178E+03  0.00000000000E+00 0. -1.
         -1   -1    0    0    0  501 -0.00000000000E+00 -0.00000000000E+00 -0.25774694594E+03  0.25774694594E+03  0.00000000000E+00 0.  1.
         23    2    1    2    0    0  0.11106769858E+03  0.73352193208E+02  0.46859318334E+02  0.16729692529E+03  0.89865942282E+02 0.  0.
          5    1    1    2  502    0  0.37460550176E+01  0.12706659362E+02 -0.72952912772E+02  0.74263665424E+02  0.41800000000E+01 0. -1.
         -5    1    1    2    0  502 -0.11481375360E+03 -0.86058852570E+02 -0.82349039723E+02  0.16549066700E+03  0.41800000000E+01 0. -1.
        -11    1    3    3    0    0  0.52715249311E+02 -0.54004287522E+01 -0.10082676100E+02  0.53941843665E+02  0.00000000000E+00 0.  1.
         11    1    3    3    0    0  0.58352449268E+02  0.78752621960E+02  0.56941994433E+02  0.11335508163E+03  0.00000000000E+00 0. -1.
</event>
<event>
 7    1  0.4687179E-006  0.9976317E+02  0.7561462E-02  0.1280795E+00
          2   -1    0    0  501    0  0.00000000000E+00  0.00000000000E+00  0.42473621675E+03  0.42473621675E+03  0.00000000000E+00 0. -1.
         -2   -1    0    0    0  501 -0.00000000000E+00 -0.00000000000E+00 -0.38194843642E+02  0.38194843642E+02  0.00000000000E+00 0.  1.
         23    2    1    2    0    0  0.21823403071E+01  0.51431340153E+02  0.22676073945E+03  0.25358779454E+03  0.10117505239E+03 0.  0.
          5    1    1    2  502    0 -0.42736525301E+02 -0.60984141629E+02  0.44871563125E+02  0.87042551102E+02  0.41800000000E+01 0.  1.
         -5    1    1    2    0  502  0.40554184994E+02  0.95528014765E+01  0.11490907054E+03  0.12230071475E+03  0.41800000000E+01 0.  1.
        -11    1    3    3    0    0  0.29247433532E+02  0.47410056446E+02  0.21777678400E+03  0.22478846383E+03  0.00000000000E+00 0. -1.
         11    1    3    3    0    0 -0.27065093225E+02  0.40212837072E+01  0.89839554422E+01  0.28799330710E+02  0.00000000000E+00 0.  1.
</event>
<event>
 7    1  0.4687179E-006  0.1772534E+03  0.7561462E-02  0.1170488E+00
         -3   -1    0    0    0  501 -0.00000000000E+00  0.00000000000E+00  0.24393952078E+03  0.24393952078E+03  0.00000000000E+00 0.  1.
          3   -1    0    0  501    0  0.00000000000E+00 -0.00000000000E+00 -0.15020687604E+03  0.15020687604E+03  0.00000000000E+00 0. -1.
         23    2    1    2    0    0  0.46970992459E+02 -0.14671429203E+03  0.18549498842E+02  0.18193877447E+03  0.95006716235E+02 0.  0.
          5    1    1    2  502    0 -0.24623502840E+02  0.16470340539E+03  0.50334617101E+02  0.17402463825E+03  0.41800000000E+01 0. -1.
         -5    1    1    2    0  502 -0.22347489620E+02 -0.17989113357E+02  0.24848528797E+02  0.38182984104E+02  0.41800000000E+01 0. -1.
        -11    1    3    3    0    0  0.15204601685E+02 -0.10699217434E+03 -0.29445490541E+02  0.11200688459E+03  0.00000000000E+00 0. -1.
         11    1    3    3    0    0  0.31766390774E+02 -0.39722117697E+02  0.47994989383E+02  0.69931889885E+02  0.00000000000E+00 0.  1.
</event>
<event>
 7    1  0.4687179E-006  0.1182556E+03  0.7561462E-02  0.1246003E+00
          1   -1    0    0  501    0  0.00000000000E+00  0.00000000000E+00  0.47494833703E+03  0.47494833703E+03  0.00000000000E+00 0. -1.
         -1   -1    0    0    0  501 -0.00000000000E+00 -0.00000000000E+00 -0.32122997287E+02  0.32122997287E+02  0.00000000000E+00 0.  1.
         23    2    1    2    0    0 -0.14616657802E+02 -0.48948643458E+02  0.25938818397E+03  0.27924267734E+03  0.89914551000E+02 0.  0.
          5    1    1    2  502    0  0.61904279904E+02  0.59518962983E+02  0.12643203568E+03  0.15289597402E+03  0.41800000000E+01 0. -1.
         -5    1    1    2    0  502 -0.47287622102E+02 -0.10570319525E+02  0.57005120089E+02  0.74932682958E+02  0.41800000000E+01 0. -1.
        -11    1    3    3    0    0  0.24912329220E+02  0.13239117783E+02  0.52119099385E+02  0.59264651416E+02  0.00000000000E+00 0.  1.
         11    1    3    3    0    0 -0.39528987023E+02 -0.62187761241E+02  0.20726908459E+03  0.21997802592E+03  0.00000000000E+00 0. -1.
</event>
<event>
 7    1  0.4687179E-006  0.9567820E+02  0.7561462E-02  0.1289656E+00
          4   -1    0    0  501    0  0.00000000000E+00  0.00000000000E+00  0.22263828500E+03  0.22263828500E+03  0.00000000000E+00 0. -1.
         -4   -1    0    0    0  501 -0.00000000000E+00 -0.00000000000E+00 -0.73986026634E+02  0.73986026634E+02  0.00000000000E+00 0.  1.
         23    2    1    2    0    0 -0.22876606723E+02  0.38685800685E+02  0.12355658181E+03  0.15893751257E+03  0.89302708168E+02 0.  0.
          5    1    1    2  502    0  0.43011924273E+02  0.71676668326E+01  0.61590492152E+02  0.75579509134E+02  0.41800000000E+01 0. -1.
         -5    1    1    2    0  502 -0.20135317549E+02 -0.45853467517E+02 -0.36494815594E+02  0.62107289922E+02  0.41800000000E+01 0.  1.
        -11    1    3    3    0    0 -0.47502947939E+02  0.51057729155E+02  0.70583273121E+02  0.99224090895E+02  0.00000000000E+00 0. -1.
         11    1    3    3    0    0  0.24626341216E+02 -0.12371928470E+02  0.52973308684E+02  0.59713421680E+02  0.00000000000E+00 0.  1.
</event>
<event>
 7    1  0.5085872E-006  0.3228520E+03  0.7561462E-02  0.1074344E+00
         -2   -1    0    0    0  501 -0.00000000000E+00  0.00000000000E+00  0.54286313057E+02  0.54286313057E+02  0.00000000000E+00 0. -1.
          2   -1    0    0  501    0  0.00000000000E+00 -0.00000000000E+00 -0.19282988237E+04  0.19282988237E+04  0.00000000000E+00 0.  1.
         23    2    1    2    0    0 -0.26876909047E+03 -0.14277302289E+03 -0.90897774003E+03  0.96299708346E+03  0.92205698402E+02 0.  0.
          5    1    1    2  502    0  0.34839143178E+01 -0.17113167382E+02 -0.77325412029E+02  0.79383184002E+02  0.41800000000E+01 0. -1.
         -5    1    1    2    0  502  0.26528517615E+03  0.15988619028E+03 -0.88770935854E+03  0.94020486925E+03  0.41800000000E+01 0. -1.
        -11    1    3    3    0    0 -0.12878856779E+03 -0.12024157046E+03 -0.49812311546E+03  0.52836650974E+03  0.00000000000E+00 0.  1.
         11    1    3    3    0    0 -0.13998052268E+03 -0.22531452438E+02 -0.41085462457E+03  0.43463057371E+03  0.00000000000E+00 0. -1.
</event>
<event>
 7    1  0.4687179E-006  0.4403561E+03  0.7561462E-02  0.1030638E+00
          2   -1    0    0  501    0  0.00000000000E+00  0.00000000000E+00  0.40530253965E+03  0.40530253965E+03  0.00000000000E+00 0.  1.
         -2   -1    0    0    0  501 -0.00000000000E+00 -0.00000000000E+00 -0.52866566096E+03  0.52866566096E+03  0.00000000000E+00 0. -1.
         23    2    1    2    0    0 -0.36402599890E+03  0.23408913251E+03  0.62723866036E+02  0.44653735298E+03  0.90270008301E+02 0.  0.
          5    1    1    2  502    0  0.29466118595E+03 -0.12845725049E+03 -0.10952216078E+03  0.33961604174E+03  0.41800000000E+01 0.  1.
         -5    1    1    2    0  502  0.69364812948E+02 -0.10563188202E+03 -0.76564826566E+02  0.14781480589E+03  0.41800000000E+01 0.  1.
        -11    1    3    3    0    0 -0.96398420564E+02  0.63020436546E+02  0.57818948296E+02  0.12886916502E+03  0.00000000000E+00 0.  1.
         11    1    3    3    0    0 -0.26762757833E+03  0.17106869596E+03  0.49049177405E+01  0.31766818796E+03  0.00000000000E+00 0. -1.
</event>
<event>
 7    1  0.4687179E-006  0.1018507E+03  0.7561462E-02  0.1276452E+00
         -3   -1    0    0    0  501 -0.00000000000E+00  0.00000000000E+00  0.10988566137E+03  0.10988566137E+03  0.00000000000E+00 0.  1.
          3   -1    0    0  501    0  0.00000000000E+00 -0.00000000000E+00 -0.11627114380E+03  0.11627114380E+03  0.00000000000E+00 0. -1.
         23    2    1    2    0    0  0.13528805126E+02 -0.38430263697E+02 -0.14786383655E+02  0.94331764974E+02  0.83785028529E+02 0.  0.
          5    1    1    2  502    0 -0.71597308433E+00  0.73331198394E+02  0.39296258347E+02  0.83304535263E+02  0.41800000000E+01 0.  1.
         -5    1    1    2    0  502 -0.12812832041E+02 -0.34900934697E+02 -0.30895357125E+02  0.48520504939E+02  0.41800000000E+01 0.  1.
        -11    1    3    3    0    0  0.34184866668E+02 -0.56071767030E+02 -0.14053526431E+02  0.67157648649E+02  0.00000000000E+00 0. -1.
         11    1    3    3    0    0 -0.20656061542E+02  0.17641503334E+02 -0.73285722444E+00  0.27174116324E+02  0.00000000000E+00 0.  1.
</event>
<event>
 7    1  0.4687179E-006  0.1162417E+03  0.7561462E-02  0.1249429E+00
          1   -1    0    0  501    0  0.00000000000E+00  0.00000000000E+00  0.78693221449E+02  0.78693221449E+02  0.00000000000E+00 0. -1.
         -1   -1    0    0    0  501 -0.00000000000E+00 -0.00000000000E+00 -0.28223054779E+03  0.28223054779E+03  0.00000000000E+00 0.  1.
         23    2    1    2    0    0 -0.35884825839E+02  0.53514430274E+02  0.24427112017E+01  0.11147186287E+03  0.90931261951E+02 0.  0.
          5    1    1    2  502    0 -0.43419905760E+02 -0.36973765331E+02 -0.63138985273E+02  0.85184220371E+02  0.41800000000E+01 0. -1.
         -5    1    1    2    0  502  0.79304731599E+02 -0.16540664943E+02 -0.14284105227E+03  0.16426768600E+03  0.41800000000E+01 0. -1.
        -11    1    3    3    0    0  0.20290826285E+02  0.77355769340E+01  0.27279424640E+02  0.34867230898E+02  0.00000000000E+00 0. -1.
         11    1    3    3    0    0 -0.56175652123E+02  0.45778853340E+02 -0.24836713438E+02  0.76604631968E+02  0.00000000000E+00 0.  1.
</event>
<event>
 7    1  0.4687179E-006  0.1244058E+03  0.7561462E-02  0.1236001E+00
          1   -1    0    0  501    0  0.00000000000E+00  0.00000000000E+00  0.45521922301E+03  0.45521922301E+03  0.00000000000E+00 0. -1.
         -1   -1    0    0    0  501 -0.00000000000E+00 -0.00000000000E+00 -0.34902811595E+02  0.34902811595E+02  0.00000000000E+00 0.  1.
         23    2    1    2    0    0  0.64071767395E+02 -0.63524884869E+01  0.21430652221E+03  0.24066239149E+03  0.88575141697E+02 0.  0.
          5    1    1    2  502    0 -0.94140144641E+02  0.33215881146E+02  0.15280268482E+03  0.18256997146E+03  0.41800000000E+01 0.  1.
         -5    1    1    2    0  502  0.30068377246E+02 -0.26863392659E+02  0.53207204385E+02  0.66889671653E+02  0.41800000000E+01 0.  1.
        -11    1    3    3    0    0  0.68999703972E+02 -0.36329812954E+02  0.16887228687E+03  0.18600716043E+03  0.00000000000E+00 0.  1.
         11    1    3    3    0    0 -0.49279365771E+01  0.29977324467E+02  0.45434235344E+02  0.54655231061E+02  0.00000000000E+00 0. -1.
</event>
<event>
 7    1  0.4687179E-006  0.1594693E+03  0.7561462E-02  0.1189297E+00
          2   -1    0    0  501    0  0.00000000000E+00  0.00000000000E+00  0.13388936844E+02  0.13388936844E+02  0.00000000000E+00 0.  1.
         -2   -1    0    0    0  501 -0.00000000000E+00 -0.00000000000E+00 -0.24926043314E+04  0.24926043314E+04  0.00000000000E+00 0. -1.
         23    2    1    2    0    0 -0.27713137469E+01 -0.11863790890E+03 -0.57309169975E+03  0.59208684877E+03  0.89722386026E+02 0.  0.
          5    1    1    2  502    0  0.62290205278E+02  0.63564372965E+02 -0.11460258432E+04  0.11494838863E+04  0.41800000000E+01 0. -1.
         -5    1    1    2    0  502 -0.59518891531E+02  0.55073535933E+02 -0.76009785154E+03  0.76442253311E+03  0.41800000000E+01 0. -1.
        -11    1    3    3    0    0 -0.44562576455E+02 -0.41397376345E+02 -0.22264689438E+03  0.23080555792E+03  0.00000000000E+00 0.  1.
         11    1    3    3    0    0  0.41791262708E+02 -0.77240532553E+02 -0.35044480538E+03  0.36128129086E+03  0.00000000000E+00 0. -1.
</event>
<event>
 7    1  0.4687179E-006  0.7480250E+02  0.7561462E-02  0.1344484E+00
         -4   -1    0    0    0  501 -0.00000000000E+00  0.00000000000E+00  0.38441326246E+03  0.38441326246E+03  0.00000000000E+00 0. -1.
          4   -1    0    0  501    0  0.00000000000E+00 -0.00000000000E+00 -0.33982509219E+02  0.33982509219E+02  0.00000000000E+00 0.  1.
         23    2    1    2    0    0 -0.32742886121E+02 -0.16917665333E+02  0.14404388777E+03  0.17426200484E+03  0.90886196621E+02 0.  0.
          5    1    1    2  502    0  0.39384073396E+02  0.48035081148E+01  0.27544731694E+01  0.39990479490E+02  0.41800000000E+01 0. -1.
         -5    1    1    2    0  502 -0.66411872748E+01  0.12114157218E+02  0.20363239230E+03  0.20414328734E+03  0.41800000000E+01 0. -1.
        -11    1    3    3    0    0  0.19674628796E+02  0.22353820737E+02  0.65787632797E+02  0.72213551005E+02  0.00000000000E+00 0. -1.
         11    1    3    3    0    0 -0.52417514917E+02 -0.39271486070E+02  0.78256254969E+02  0.10204845383E+03  0.00000000000E+00 0.  1.
</event>
<event>
 7    1  0.4687179E-006  0.4365901E+03  0.7561462E-02  0.1031798E+00
         -2   -1    0    0    0  501 -0.00000000000E+00  0.00000000000E+00  0.38579677577E+03  0.38579677577E+03  0.00000000000E+00 0.  1.
          2   -1    0    0  501    0  0.00000000000E+00 -0.00000000000E+00 -0.51606491795E+03  0.51606491795E+03  0.00000000000E+00 0. -1.
         23    2    1    2    0    0 -0.35588369475E+03  0.22834179023E+03 -0.15724707622E+03  0.46007908045E+03  0.90293631769E+02 0.  0.
          5    1    1    2  502    0  0.27271339348E+03 -0.23112321298E+03  0.17611506618E+02  0.35793598887E+03  0.41800000000E+01 0.  1.
         -5    1    1    2    0  502  0.83170301269E+02  0.27814227523E+01  0.93674274159E+01  0.83846624393E+02  0.41800000000E+01 0.  1.
        -11    1    3    3    0    0 -0.11940244108E+03  0.12922469298E+03 -0.65976342350E+02  0.18790647132E+03  0.00000000000E+00 0.  1.
         11    1    3    3    0    0 -0.23648125367E+03  0.99117097244E+02 -0.91270733870E+02  0.27217260914E+03  0.00000000000E+00 0. -1.
</event>
<event>
 7    1  0.4687179E-006  0.1126329E+03  0.7561462E-02  0.1255770E+00
         -1   -1    0    0    0  501 -0.00000000000E+00  0.00000000000E+00  0.42758166384E+02  0.42758166384E+02  0.00000000000E+00 0.  1.
          1   -1    0    0  501    0  0.00000000000E+00 -0.00000000000E+00 -0.36292201528E+03  0.36292201528E+03  0.00000000000E+00 0. -1.
         23    2    1    2    0    0 -0.41424914675E+02  0.38285205754E+02 -0.17177021521E+03  0.20356596003E+03  0.93553795824E+02 0.  0.
          5    1    1    2  502    0  0.74404601219E+02 -0.59900403402E+02 -0.88498333303E+02  0.13028250231E+03  0.41800000000E+01 0.  1.
         -5    1    1    2    0  502 -0.32979686543E+02  0.21615197648E+02 -0.59895300386E+02  0.71831719332E+02  0.41800000000E+01 0.  1.
        -11    1    3    3    0    0 -0.40462714305E+02  0.57749035321E+02 -0.67925050679E+02  0.97908093839E+02  0.00000000000E+00 0.  1.
         11    1    3    3    0    0 -0.96220037040E+00 -0.19463829567E+02 -0.10384516453E+03  0.10565786619E+03  0.00000000000E+00 0. -1.
</event>
<event>
 7    1  0.4687179E-006  0.9112913E+02  0.7561462E-02  0.1300140E+00
          3   -1    0    0  501    0  0.00000000000E+00  0.00000000000E+00  0.24583056482E+03  0.24583056482E+03  0.00000000000E+00 0. -1.
         -3   -1    0    0    0  501 -0.00000000000E+00 -0.00000000000E+00 -0.59068979217E+02  0.59068979217E+02  0.00000000000E+00 0.  1.
         23    2    1    2    0    0 -0.40465938309E+02 -0.97107074938E+01  0.12264391839E+03  0.15830471044E+03  0.91033294051E+02 0.  0.
          5    1    1    2  502    0 -0.29848478836E+02  0.43783500240E+02  0.31771279406E+02  0.61925868401E+02  0.41800000000E+01 0. -1.
         -5    1    1    2    0  502  0.70314417145E+02 -0.34072792746E+02  0.32346387812E+02  0.84668965203E+02  0.41800000000E+01 0. -1.
        -11    1    3    3    0    0 -0.46200000431E+01 -0.14012008092E+02 -0.11928934008E+02  0.18973145172E+02  0.00000000000E+00 0.  1.
         11    1    3    3    0    0 -0.35845938266E+02  0.43013005980E+01  0.13457285240E+03  0.13933156527E+03  0.00000000000E+00 0. -1.
</event>
<event>
 7    1  0.4687179E-006  0.8783700E+02  0.7561462E-02  0.1308176E+00
         -2   -1    0    0    0  501 -0.00000000000E+00  0.00000000000E+00  0.26866334989E+02  0.26866334989E+02  0.00000000000E+00 0.  1.
          2   -1    0    0  501    0  0.00000000000E+00 -0.00000000000E+00 -0.57511003132E+03  0.57511003132E+03  0.00000000000E+00 0. -1.
         23    2    1    2    0    0 -0.37801217027E+02  0.20354143250E+02 -0.34035937815E+03  0.35559052102E+03  0.93578251694E+02 0.  0.
          5    1    1    2  502    0  0.17123818211E+02  0.25399967900E+02 -0.19064394302E+03  0.19313458761E+03  0.41800000000E+01 0. -1.
         -5    1    1    2    0  502  0.20677398815E+02 -0.45754111150E+02 -0.17240375160E+02  0.53251257680E+02  0.41800000000E+01 0. -1.
        -11    1    3    3    0    0 -0.29378637993E+02 -0.30780352790E+02 -0.22690995098E+03  0.23086502625E+03  0.00000000000E+00 0.  1.
         11    1    3    3    0    0 -0.84225790339E+01  0.51134496040E+02 -0.11344942717E+03  0.12472549478E+03  0.00000000000E+00 0. -1.
</event>
<event>
 7    1  0.4687179E-006  0.3827193E+03  0.7561462E-02  0.1049933E+00
          3   -1    0    0  501    0  0.00000000000E+00  0.00000000000E+00  0.12685692073E+04  0.12685692073E+04  0.00000000000E+00 0. -1.
         -3   -1    0    0    0  501 -0.00000000000E+00 -0.00000000000E+00 -0.18863529165E+03  0.18863529165E+03  0.00000000000E+00 0.  1.
         23    2    1    2    0    0  0.17706718655E+03 -0.32928685500E+03  0.98031019846E+03  0.10530652218E+04  0.90308663908E+02 0.  0.
          5    1    1    2  502    0 -0.93762000272E+02  0.64602891855E+02  0.35065243001E+02  0.11921363176E+03  0.41800000000E+01 0. -1.
         -5    1    1    2    0  502 -0.83305186276E+02  0.26468396314E+03  0.64558474206E+02  0.28492564538E+03  0.41800000000E+01 0.  1.
        -11    1    3    3    0    0  0.76497452490E+01 -0.18493487246E+02  0.15322510327E+02  0.25205296975E+02  0.00000000000E+00 0.  1.
         11    1    3    3    0    0  0.16941744130E+03 -0.31079336775E+03  0.96498768813E+03  0.10278599248E+04  0.00000000000E+00 0. -1.
</event>
<event>
 7    1  0.4687179E-006  0.1738149E+03  0.7561462E-02  0.1173927E+00
         -1   -1    0    0    0  501 -0.00000000000E+00  0.00000000000E+00  0.13718117407E+03  0.13718117407E+03  0.00000000000E+00 0.  1.
          1   -1    0    0  501    0  0.00000000000E+00 -0.00000000000E+00 -0.26571502238E+03  0.26571502238E+03  0.00000000000E+00 0. -1.
         23    2    1    2    0    0 -0.36839972025E+02  0.15193804900E+03 -0.50484844785E+02  0.18800655826E+03  0.91407834034E+02 0.  0.
          5    1    1    2  502    0  0.28231106231E+02 -0.18183631007E+02  0.28004253018E+02  0.43924371171E+02  0.41800000000E+01 0. -1.
         -5    1    1    2    0  502  0.86088657938E+01 -0.13375441799E+03 -0.10605325654E+03  0.17096526701E+03  0.41800000000E+01 0. -1.
        -11    1    3    3    0    0  0.28726656627E+02  0.62609208073E+02 -0.30824031770E+02  0.75466911100E+02  0.00000000000E+00 0.  1.
         11    1    3    3    0    0 -0.65566628652E+02  0.89328840927E+02 -0.19660813015E+02  0.11253964716E+03  0.00000000000E+00 0. -1.
</event>
<event>
 7    1  0.4687179E-006  0.7267532E+02  0.7561462E-02  0.1351225E+00
          4   -1    0    0  501    0  0.00000000000E+00  0.00000000000E+00  0.13668106152E+02  0.13668106152E+02  0.00000000000E+00 0. -1.
         -4   -1    0    0    0  501 -0.00000000000E+00 -0.00000000000E+00 -0.95113113665E+03  0.95113113665E+03  0.00000000000E+00 0.  1.
         23    2    1    2    0    0 -0.30252167912E+01 -0.12979902050E+02 -0.26605360751E+03  0.28170132578E+03  0.91615965219E+02 0.  0.
          5    1    1    2  502    0 -0.10415955162E+02  0.31206910015E+02 -0.43176605977E+02  0.54443136008E+02  0.41800000000E+01 0. -1.
         -5    1    1    2    0  502  0.13441171953E+02 -0.18227007965E+02 -0.62823281701E+03  0.62865478102E+03  0.41800000000E+01 0. -1.
        -11    1    3    3    0    0 -0.23343938389E+01  0.38050586412E+02 -0.15273356670E+03  0.15741930922E+03  0.00000000000E+00 0.  1.
         11    1    3    3    0    0 -0.69082295228E+00 -0.51030488462E+02 -0.11332004081E+03  0.12428201656E+03  0.00000000000E+00 0. -1.
</event>
<event>
 7    1  0.4687179E-006  0.8596113E+02  0.7561462E-02  0.1312938E+00
          3   -1    0    0  501    0  0.00000000000E+00  0.00000000000E+00  0.39611002785E+03  0.39611002785E+03  0.00000000000E+00 0. -1.
         -3   -1    0    0    0  501 -0.00000000000E+00 -0.00000000000E+00 -0.28908445388E+02  0.28908445388E+02  0.00000000000E+00 0.  1.
         23    2    1    2    0    0 -0.54779097838E+01  0.35747086583E+02  0.18288508085E+03  0.20716065200E+03  0.90336710400E+02 0.  0.
          5    1    1    2  502    0 -0.20392042760E+02 -0.42903791589E+02  0.18463194196E+03  0.19069084177E+03  0.41800000000E+01 0. -1.
         -5    1    1    2    0  502  0.25869952544E+02  0.71567050063E+01 -0.31544034498E+00  0.27166979475E+02  0.41800000000E+01 0.  1.
        -11    1    3    3    0    0  0.52880290589E+01  0.65353498594E+02  0.11661589733E+03  0.13378456764E+03  0.00000000000E+00 0. -1.
         11    1    3    3    0    0 -0.10765938843E+02 -0.29606412011E+02  0.66269183517E+02  0.73376084355E+02  0.00000000000E+00 0.  1.
</event>
<event>
 7    1  0.4687179E-006  0.1151264E+03  0.7561462E-02  0.1251361E+00
          2   -1    0    0  501    0  0.00000000000E+00  0.00000000000E+00  0.13307766525E+03  0.13307766525E+03  0.00000000000E+00 0. -1.
         -2   -1    0    0    0  501 -0.00000000000E+00 -0.00000000000E+00 -0.10444843585E+03  0.10444843585E+03  0.00000000000E+00 0.  1.
         23    2    1    2    0    0  0.23291688404E+02 -0.39254956101E+02  0.15040822651E+02  0.10367676266E+03  0.91865066499E+02 0.  0.
          5    1    1    2  502    0 -0.64705291340E+02 -0.98656293571E+01  0.21407147726E+02  0.68991620823E+02  0.41800000000E+01 0.  1.
         -5    1    1    2    0  502  0.41413602937E+02  0.49120585458E+02 -0.78187409836E+01  0.64857717617E+02  0.41800000000E+01 0.  1.
        -11    1    3    3    0    0  0.78307789342E+00  0.28692456436E+02 -0.54652259820E+01  0.29218811789E+02  0.00000000000E+00 0. -1.
         11    1    3    3    0    0  0.22508610510E+02 -0.67947412537E+02  0.20506048633E+02  0.74457950873E+02  0.00000000000E+00 0.  1.
</event>
<event>
 7    1  0.4687179E-006  0.1150110E+03  0.7561462E-02  0.1251562E+00
         -2   -1    0    0    0  501 -0.00000000000E+00  0.00000000000E+00  0.17447120102E+03  0.17447120102E+03  0.00000000000E+00 0.  1.
          2   -1    0    0  501    0  0.00000000000E+00 -0.00000000000E+00 -0.14098384440E+03  0.14098384440E+03  0.00000000000E+00 0. -1.
         23    2    1    2    0    0  0.63627248657E+02 -0.18158947275E+02 -0.78255059065E+02  0.13514345891E+03  0.88100658793E+02 0.  0.
          5    1    1    2  502    0 -0.89255299803E+02  0.27621945500E+02  0.11936645677E+03  0.15164202524E+03  0.41800000000E+01 0. -1.
         -5    1    1    2    0  502  0.25628051146E+02 -0.94629982248E+01 -0.76240410830E+01  0.28669561269E+02  0.41800000000E+01 0. -1.
        -11    1    3    3    0    0  0.24211881938E+02  0.35076158712E+02 -0.20649072732E+02  0.47359648876E+02  0.00000000000E+00 0.  1.
         11    1    3    3    0    0  0.39415366720E+02 -0.53235105987E+02 -0.57605986333E+02  0.87783810036E+02  0.00000000000E+00 0. -1.
</event>
<event>
 7    1  0.4687179E-006  0.9527421E+02  0.7561462E-02  0.1290560E+00
          1   -1    0    0  501    0  0.00000000000E+00  0.00000000000E+00  0.14689809828E+03  0.14689809828E+03  0.00000000000E+00 0. -1.
         -1   -1    0    0    0  501 -0.00000000000E+00 -0.00000000000E+00 -0.29050176376E+03  0.29050176376E+03  0.00000000000E+00 0.  1.
         23    2    1    2    0    0  0.45277172572E+02  0.21103253576E+01  0.91768702774E+02  0.15829745979E+03  0.12075642898E+03 0.  0.
          5    1    1    2  502    0  0.19799133039E+02 -0.55845873057E+01  0.11363948682E+02  0.23870588894E+02  0.41800000000E+01 0. -1.
         -5    1    1    2    0  502 -0.65076305611E+02  0.34742619481E+01 -0.24673631694E+03  0.25523181335E+03  0.41800000000E+01 0.  1.
        -11    1    3    3    0    0 -0.27695305269E+02  0.12785886453E+02 -0.10456015655E+02  0.32246505077E+02  0.00000000000E+00 0.  1.
         11    1    3    3    0    0  0.72972477840E+02 -0.10675561095E+02  0.10222471843E+03  0.12605095472E+03  0.00000000000E+00 0. -1.
</event>
<event>
 7    1  0.4687179E-006  0.1951994E+03  0.7561462E-02  0.1153854E+00
         -1   -1    0    0    0  501 -0.00000000000E+00  0.00000000000E+00  0.45491346732E+03  0.45491346732E+03  0.00000000000E+00 0.  1.
          1   -1    0    0  501    0  0.00000000000E+00 -0.00000000000E+00 -0.95348052759E+02  0.95348052759E+02  0.00000000000E+00 0. -1.
         23    2    1    2    0    0 -0.14550146376E+03  0.10025587523E+03  0.14975911456E+03  0.24878591385E+03  0.90800451890E+02 0.  0.
          5    1    1    2  502    0 -0.20323547230E+02 -0.21759148859E+02  0.48932903538E+02  0.57431773260E+02  0.41800000000E+01 0.  1.
         -5    1    1    2    0  502  0.16582501099E+03 -0.78496726368E+02  0.16087339647E+03  0.24404383297E+03  0.41800000000E+01 0.  1.
        -11    1    3    3    0    0 -0.11695332719E+03  0.83691271022E+02  0.64987134210E+02  0.15781519952E+03  0.00000000000E+00 0. -1.
         11    1    3    3    0    0 -0.28548136570E+02  0.16564604204E+02  0.84771980347E+02  0.90970714332E+02  0.00000000000E+00 0.  1.
</event>
<event>
 7    1  0.4687179E-006  0.1932812E+03  0.7561462E-02  0.1155535E+00
         -2   -1    0    0    0  501 -0.00000000000E+00  0.00000000000E+00  0.76127339136E+03  0.76127339136E+03  0.00000000000E+00 0.  1.
          2   -1    0    0  501    0  0.00000000000E+00 -0.00000000000E+00 -0.59757036294E+02  0.59757036294E+02  0.00000000000E+00 0. -1.
         23    2    1    2    0    0 -0.17238553553E+03  0.48435272363E+02  0.24631655672E+03  0.31613773479E+03  0.84902725339E+02 0.  0.
          5    1    1    2  502    0  0.49850163618E+02  0.30929932414E+02  0.62069516879E+02  0.85509045472E+02  0.41800000000E+01 0.  1.
         -5    1    1    2    0  502  0.12253537191E+03 -0.79365204778E+02  0.39313028146E+03  0.41938364740E+03  0.41800000000E+01 0.  1.
        -11    1    3    3    0    0 -0.16230444282E+03  0.37032716416E+02  0.25011362518E+03  0.30045129347E+03  0.00000000000E+00 0.  1.
         11    1    3    3    0    0 -0.10081092711E+02  0.11402555948E+02 -0.37970684578E+01  0.15686441319E+02  0.00000000000E+00 0. -1.
</event>
<event>
 7    1  0.4687179E-006  0.1163855E+03  0.7561462E-02  0.1249182E+00
         -2   -1    0    0    0  501 -0.00000000000E+00  0.00000000000E+00  0.36659320772E+02  0.36659320772E+02  0.00000000000E+00 0. -1.
          2   -1    0    0  501    0  0.00000000000E+00 -0.00000000000E+00 -0.69724701706E+03  0.69724701706E+03  0.00000000000E+00 0.  1.
         23    2    1    2    0    0  0.30744659257E+02  0.93840022485E+02 -0.45009515619E+03  0.46989204161E+03  0.91987484208E+02 0.  0.
          5    1    1    2  502    0 -0.60054479499E+02 -0.76056464982E+02 -0.20785883553E+03  0.22937718780E+03  0.41800000000E+01 0.  1.
         -5    1    1    2    0  502  0.29309820242E+02 -0.17783557503E+02 -0.26337045634E+01  0.34637108421E+02  0.41800000000E+01 0.  1.
        -11    1    3    3    0    0  0.34235382190E+02  0.81175988846E+02 -0.44801135044E+03  0.45659147241E+03  0.00000000000E+00 0.  1.
         11    1    3    3    0    0 -0.34907229329E+01  0.12664033638E+02 -0.20838057519E+01  0.13300569198E+02  0.00000000000E+00 0. -1.
</event>
<event>
 7    1  0.4687179E-006  0.7922531E+02  0.7561462E-02  0.1331264E+00
         -2   -1    0    0    0  501 -0.00000000000E+00  0.00000000000E+00  0.68806094295E+02  0.68806094295E+02  0.00000000000E+00 0. -1.
          2   -1    0    0  501    0  0.00000000000E+00 -0.00000000000E+00 -0.18081080335E+03  0.18081080335E+03  0.00000000000E+00 0.  1.
         23    2    1    2    0    0 -0.10730872969E+02  0.22827884477E+02 -0.48501066451E+02  0.10708275065E+03  0.92076588202E+02 0.  0.
          5    1    1    2  502    0  0.40945412237E+02  0.24362678340E+02  0.11136605233E+02  0.49107670025E+02  0.41800000000E+01 0.  1.
         -5    1    1    2    0  502 -0.30214539268E+02 -0.47190562817E+02 -0.74640247835E+02  0.93426476970E+02  0.41800000000E+01 0.  1.
        -11    1    3    3    0    0  0.15672768544E+02 -0.46266902814E+01  0.21728966936E+02  0.27188047758E+02  0.00000000000E+00 0. -1.
         11    1    3    3    0    0 -0.26403641513E+02  0.27454574759E+02 -0.70230033387E+02  0.79894702890E+02  0.00000000000E+00 0.  1.
</event>
<event>
 7    1  0.4687179E-006  0.1109060E+03  0.7561462E-02  0.1258901E+00
         -3   -1    0    0    0  501 -0.00000000000E+00  0.00000000000E+00  0.34984280083E+02  0.34984280083E+02  0.00000000000E+00 0.  1.
          3   -1    0    0  501    0  0.00000000000E+00 -0.00000000000E+00 -0.38619572137E+03  0.38619572137E+03  0.00000000000E+00 0. -1.
         23    2    1    2    0    0  0.28242243714E+02 -0.23474745739E+02 -0.19254915055E+03  0.21582222818E+03  0.90307091532E+02 0.  0.
          5    1    1    2  502    0  0.19468258003E+02  0.63423017005E+02 -0.97501220417E+02  0.11800615466E+03  0.41800000000E+01 0.  1.
         -5    1    1    2    0  502 -0.47710501717E+02 -0.39948271266E+02 -0.61161070319E+02  0.87351618610E+02  0.41800000000E+01 0.  1.
        -11    1    3    3    0    0  0.51551488764E+02  0.96689813332E+01 -0.13974005267E+03  0.14925926274E+03  0.00000000000E+00 0. -1.
         11    1    3    3    0    0 -0.23309245049E+02 -0.33143727073E+02 -0.52809097885E+02  0.66562965442E+02  0.00000000000E+00 0.  1.
</event>
<event>
 7    1  0.4687179E-006  0.8484660E+02  0.7561462E-02  0.1315834E+00
         -1   -1    0    0    0  501 -0.00000000000E+00  0.00000000000E+00  0.39552628052E+02  0.39552628052E+02  0.00000000000E+00 0.  1.
          1   -1    0    0  501    0  0.00000000000E+00 -0.00000000000E+00 -0.38558524984E+03  0.38558524984E+03  0.00000000000E+00 0. -1.
         23    2    1    2    0    0  0.52962639776E+02 -0.20133301268E+02 -0.18772005856E+03  0.21556396666E+03  0.89546704615E+02 0.  0.
          5    1    1    2  502    0 -0.48166446821E+01  0.53468086377E+02 -0.16864820073E+02  0.56426331468E+02  0.41800000000E+01 0. -1.
         -5    1    1    2    0  502 -0.48145995094E+02 -0.33334785109E+02 -0.14144774316E+03  0.15314757976E+03  0.41800000000E+01 0. -1.
        -11    1    3    3    0    0  0.44386099938E+02 -0.13820331571E+02 -0.19639899501E+03  0.20182589693E+03  0.00000000000E+00 0. -1.
         11    1    3    3    0    0  0.85765398388E+01 -0.63129696966E+01  0.86789364521E+01  0.13738069731E+02  0.00000000000E+00 0.  1.
</event>
<event>
 7    1  0.4687179E-006  0.1061901E+03  0.7561462E-02  0.1267792E+00
         -1   -1    0    0    0  501 -0.00000000000E+00  0.00000000000E+00  0.86330461917E+03  0.86330461917E+03  0.00000000000E+00 0. -1.
          1   -1    0    0  501    0  0.00000000000E+00 -0.00000000000E+00 -0.19245126013E+02  0.19245126013E+02  0.00000000000E+00 0.  1.
         23    2    1    2    0    0  0.52784391389E+02 -0.46178160407E+02  0.36591315597E+03  0.38335911503E+03  0.90294844189E+02 0.  0.
          5    1    1    2  502    0 -0.37553997793E+02  0.69315736761E+02  0.14696630893E+03  0.16682788278E+03  0.41800000000E+01 0.  1.
         -5    1    1    2    0  502 -0.15230393596E+02 -0.23137576353E+02  0.33118002825E+03  0.33236274737E+03  0.41800000000E+01 0.  1.
        -11    1    3    3    0    0 -0.55283664157E+01 -0.46778937792E+02  0.92580816127E+02  0.10387511430E+03  0.00000000000E+00 0.  1.
         11    1    3    3    0    0  0.58312757804E+02  0.60077738489E+00  0.27333233985E+03  0.27948400073E+03  0.00000000000E+00 0. -1.
</event>
<event>
 7    1  0.4687179E-006  0.2745006E+03  0.7561462E-02  0.1098731E+00
         -2   -1    0    0    0  501 -0.00000000000E+00  0.00000000000E+00  0.23543021740E+03  0.23543021740E+03  0.00000000000E+00 0.  1.
          2   -1    0    0  501    0  0.00000000000E+00 -0.00000000000E+00 -0.39524929180E+03  0.39524929180E+03  0.00000000000E+00 0. -1.
         23    2    1    2    0    0 -0.69980330406E+02  0.71033880952E+02 -0.89440498327E+02  0.16083439922E+03  0.89022706901E+02 0.  0.
          5    1    1    2  502    0  0.69201082681E+02  0.17247954923E+03 -0.12004335777E+03  0.22128231943E+03  0.41800000000E+01 0. -1.
         -5    1    1    2    0  502  0.77924772523E+00 -0.24351343018E+03  0.49664781702E+02  0.24856279055E+03  0.41800000000E+01 0.  1.
        -11    1    3    3    0    0 -0.83054051077E+02  0.60131839608E+02 -0.97950367002E+02  0.14180298985E+03  0.00000000000E+00 0.  1.
         11    1    3    3    0    0  0.13073720671E+02  0.10902041345E+02  0.85098686741E+01  0.19031409367E+02  0.00000000000E+00 0. -1.
</event>
<event>
 7    1  0.4687179E-006  0.8090382E+02  0.7561462E-02  0.1326506E+00
          2   -1    0    0  501    0  0.00000000000E+00  0.00000000000E+00  0.26329483415E+02  0.26329483415E+02  0.00000000000E+00 0. -1.
         -2   -1    0    0    0  501 -0.00000000000E+00 -0.00000000000E+00 -0.51443688885E+03  0.51443688885E+03  0.00000000000E+00 0.  1.
         23    2    1    2    0    0  0.28536622339E+02 -0.24614500907E+02 -0.26037154554E+03  0.27821848620E+03  0.90509512597E+02 0.  0.
          5    1    1    2  502    0 -0.29770021780E+02  0.47534425214E+02 -0.23209604086E+03  0.23881335884E+03  0.41800000000E+01 0. -1.
         -5    1    1    2    0  502  0.12333994407E+01 -0.22919924307E+02  0.43601809631E+01  0.23734527222E+02  0.41800000000E+01 0. -1.
        -11    1    3    3    0    0  0.52587807190E+02 -0.84663855347E+01 -0.23062638910E+03  0.23669746196E+03  0.00000000000E+00 0.  1.
         11    1    3    3    0    0 -0.24051184851E+02 -0.16148115373E+02 -0.29745156440E+02  0.41521024246E+02  0.00000000000E+00 0. -1.
</event>
<event>
 7    1  0.4687179E-006  0.7957409E+02  0.7561462E-02  0.1330264E+00
         -4   -1    0    0    0  501 -0.00000000000E+00  0.00000000000E+00  0.59093929763E+03  0.59093929763E+03  0.00000000000E+00 0. -1.
          4   -1    0    0  501    0  0.00000000000E+00 -0.00000000000E+00 -0.28068870989E+02  0.28068870989E+02  0.00000000000E+00 0.  1.
         23    2    1    2    0    0  0.30992052482E+02 -0.60909645446E+02  0.24340331989E+03  0.26918403220E+03  0.92435787609E+02 0.  0.
          5    1    1    2  502    0 -0.20164906914E+01  0.41693015709E+02  0.31097276973E+03  0.31378959464E+03  0.41800000000E+01 0. -1.
         -5    1    1    2    0  502 -0.28975561791E+02  0.19216629737E+02  0.84943370176E+01  0.36034541775E+02  0.41800000000E+01 0. -1.
        -11    1    3    3    0    0  0.42902672905E+02 -0.43614326692E+02  0.24028855409E+03  0.24795450805E+03  0.00000000000E+00 0. -1.
         11    1    3    3    0    0 -0.11910620423E+02 -0.17295318755E+02  0.31147658041E+01  0.21229524152E+02  0.00000000000E+00 0.  1.
</event>
<event>
 7    1  0.4687179E-006  0.1313388E+03  0.7561462E-02  0.1225483E+00
          2   -1    0    0  501    0  0.00000000000E+00  0.00000000000E+00  0.27971263345E+03  0.27971263345E+03  0.00000000000E+00 0. -1.
         -2   -1    0    0    0  501 -0.00000000000E+00 -0.00000000000E+00 -0.83234722471E+02  0.83234722471E+02  0.00000000000E+00 0.  1.
         23    2    1    2    0    0  0.40108817824E+02 -0.70981850817E+02  0.17346661265E+03  0.21187791557E+03  0.90301965577E+02 0.  0.
          5    1    1    2  502    0  0.42166043094E+02  0.44694638014E+02  0.19203548552E+02  0.64512282043E+02  0.41800000000E+01 0.  1.
         -5    1    1    2    0  502 -0.82274860919E+02  0.26287212803E+02  0.38077497717E+01  0.86557158308E+02  0.41800000000E+01 0.  1.
        -11    1    3    3    0    0 -0.17211990633E+02  0.63595115337E+01  0.61687235234E+02  0.64358457092E+02  0.00000000000E+00 0. -1.
         11    1    3    3    0    0  0.57320808458E+02 -0.77341362351E+02  0.11177937742E+03  0.14751945847E+03  0.00000000000E+00 0.  1.
</event>
<event>
 7    1  0.4687179E-006  0.7158876E+02  0.7561462E-02  0.1354772E+00
          2   -1    0    0  501    0  0.00000000000E+00  0.00000000000E+00  0.20409377757E+03  0.20409377757E+03  0.00000000000E+00 0.  1.
         -2   -1    0    0    0  501 -0.00000000000E+00 -0.00000000000E+00 -0.71542737756E+02  0.71542737756E+02  0.00000000000E+00 0. -1.
         23    2    1    2    0    0 -0.39846050928E+02 -0.29364345489E+02  0.74571239138E+02  0.12914572313E+03  0.93100889012E+02 0.  0.
          5    1    1    2  502    0 -0.47031562448E+01  0.32982671577E+02  0.86851961701E+02  0.93116657770E+02  0.41800000000E+01 0. -1.
         -5    1    1    2    0  502  0.44549207173E+02 -0.36183260875E+01 -0.28872161027E+02  0.53374134427E+02  0.41800000000E+01 0. -1.
        -11    1    3    3    0    0  0.79954075264E+01 -0.10696577136E+02 -0.18517720034E+02  0.22830883890E+02  0.00000000000E+00 0. -1.
         11    1    3    3    0    0 -0.47841458455E+02 -0.18667768353E+02  0.93088959172E+02  0.10631483924E+03  0.00000000000E+00 0.  1.
</event>
<event>
 7    1  0.4687179E-006  0.1553460E+03  0.7561462E-02  0.1194054E+00
          2   -1    0    0  501    0  0.00000000000E+00  0.00000000000E+00  0.31542163853E+03  0.31542163853E+03  0.00000000000E+00 0. -1.
         -2   -1    0    0    0  501 -0.00000000000E+00 -0.00000000000E+00 -0.80118511196E+02  0.80118511196E+02  0.00000000000E+00 0.  1.
         23    2    1    2    0    0 -0.69920230331E+02 -0.92631157317E+02  0.10943209839E+03  0.18349931904E+03  0.90704167559E+02 0.  0.
          5    1    1    2  502    0 -0.29813456652E+01  0.91430744724E+02  0.41755460891E+02  0.10064522054E+03  0.41800000000E+01 0.  1.
         -5    1    1    2    0  502  0.72901575997E+02  0.12004125939E+01  0.84115568054E+02  0.11139561016E+03  0.41800000000E+01 0.  1.
        -11    1    3    3    0    0 -0.26734105884E+02  0.14617197490E+02  0.32929752680E+02  0.44863609880E+02  0.00000000000E+00 0.  1.
         11    1    3    3    0    0 -0.43186124447E+02 -0.10724835481E+03  0.76502345711E+02  0.13863570916E+03  0.00000000000E+00 0. -1.
</event>
<event>
 7    1  0.4687179E-006  0.1301520E+03  0.7561462E-02  0.1227230E+00
          1   -1    0    0  501    0  0.00000000000E+00  0.00000000000E+00  0.87770082921E+02  0.87770082921E+02  0.00000000000E+00 0. -1.
         -1   -1    0    0    0  501 -0.00000000000E+00 -0.00000000000E+00 -0.23109313551E+03  0.23109313551E+03  0.00000000000E+00 0.  1.
         23    2    1    2    0    0  0.67595335027E+02 -0.57794832254E+02 -0.41059454116E+02  0.13443111023E+03  0.92067761308E+02 0.  0.
          5    1    1    2  502    0  0.29238862052E+02  0.16255014951E+02  0.49212666404E+01  0.34070923534E+02  0.41800000000E+01 0.  1.
         -5    1    1    2    0  502 -0.96834197079E+02  0.41539817303E+02 -0.10718486511E+03  0.15036118467E+03  0.41800000000E+01 0.  1.
        -11    1    3    3    0    0  0.34619666804E+02 -0.75970319764E+02 -0.47766492667E+02  0.96185490778E+02  0.00000000000E+00 0.  1.
         11    1    3    3    0    0  0.32975668223E+02  0.18175487510E+02  0.67070385511E+01  0.38245619450E+02  0.00000000000E+00 0. -1.
</event>
<event>
 7    1  0.4687179E-006  0.1557903E+03  0.7561462E-02  0.1193533E+00
          1   -1    0    0  501    0  0.00000000000E+00  0.00000000000E+00  0.36888278483E+03  0.36888278483E+03  0.00000000000E+00 0. -1.
         -1   -1    0    0    0  501 -0.00000000000E+00 -0.00000000000E+00 -0.12900188230E+03  0.12900188230E+03  0.00000000000E+00 0.  1.
         23    2    1    2    0    0 -0.37664442288E+02 -0.12561946692E+03  0.27046914806E+03  0.31408357308E+03  0.91082765385E+02 0.  0.
          5    1    1    2  502    0 -0.13876708232E+02  0.10623993438E+03  0.19809476055E+02  0.10903840805E+03  0.41800000000E+01 0. -1.
         -5    1    1    2    0  502  0.51541150520E+02  0.19379532540E+02 -0.50397721579E+02  0.74762686005E+02  0.41800000000E+01 0. -1.
        -11    1    3    3    0    0  0.12519245988E+02 -0.81064878629E+02  0.20289395417E+03  0.21884744163E+03  0.00000000000E+00 0.  1.
         11    1    3    3    0    0 -0.50183688276E+02 -0.44554588287E+02  0.67575193883E+02  0.95236131456E+02  0.00000000000E+00 0. -1.
</event>
<event>
 7    1  0.6285217E-006  0.3105592E+03  0.7561462E-02  0.1080078E+00
         -2   -1    0    0    0  501 -0.00000000000E+00  0.00000000000E+00  0.11167396974E+03  0.11167396974E+03  0.00000000000E+00 0. -1.
          2   -1    0    0  501    0  0.00000000000E+00 -0.00000000000E+00 -0.93067989215E+03  0.93067989215E+03  0.00000000000E+00 0.  1.
         23    2    1    2    0    0  0.28897765363E+03 -0.92476113478E+02 -0.39380450662E+03  0.50522862616E+03  0.90078073896E+02 0.  0.
          5    1    1    2  502    0 -0.46464826868E+01  0.11512654910E+01 -0.81664974478E+02  0.81911877466E+02  0.41800000000E+01 0.  1.
         -5    1    1    2    0  502 -0.28433117094E+03  0.91324847987E+02 -0.34353644131E+03  0.45521335826E+03  0.41800000000E+01 0.  1.
        -11    1    3    3    0    0  0.11199398832E+03 -0.81997462144E+02 -0.16028703571E+03  0.21203341962E+03  0.00000000000E+00 0.  1.
         11    1    3    3    0    0  0.17698366530E+03 -0.10478651334E+02 -0.23351747091E+03  0.29319520654E+03  0.00000000000E+00 0. -1.
</event>
<event>
 7    1  0.4687179E-006  0.1881463E+03  0.7561462E-02  0.1160144E+00
         -2   -1    0    0    0  501 -0.00000000000E+00  0.00000000000E+00  0.18231256598E+03  0.18231256598E+03  0.00000000000E+00 0.  1.
          2   -1    0    0  501    0  0.00000000000E+00 -0.00000000000E+00 -0.20874093314E+03  0.20874093314E+03  0.00000000000E+00 0. -1.
         23    2    1    2    0    0  0.95515631529E+02 -0.13040467487E+03 -0.59201696790E+01  0.18563570940E+03  0.91087612223E+02 0.  0.
          5    1    1    2  502    0 -0.21833131093E+01 -0.16732683457E+02  0.19980213477E+02  0.26484540441E+02  0.41800000000E+01 0. -1.
         -5    1    1    2    0  502 -0.93332318420E+02  0.14713735833E+03 -0.40488410955E+02  0.17893324928E+03  0.41800000000E+01 0. -1.
        -11    1    3    3    0    0  0.74061151218E+02 -0.26718712373E+02 -0.11688909258E+02  0.79596320959E+02  0.00000000000E+00 0.  1.
         11    1    3    3    0    0  0.21454480312E+02 -0.10368596250E+03  0.57687395787E+01  0.10603938844E+03  0.00000000000E+00 0. -1.
</event>
<event>
 7    1  0.4687179E-006  0.1294135E+03  0.7561462E-02  0.1228329E+00
         -1   -1    0    0    0  501 -0.00000000000E+00  0.00000000000E+00  0.98824531834E+02  0.98824531834E+02  0.00000000000E+00 0.  1.
          1   -1    0    0  501    0  0.00000000000E+00 -0.00000000000E+00 -0.28219999627E+03  0.28219999627E+03  0.00000000000E+00 0. -1.
         23    2    1    2    0    0 -0.12100977347E+03 -0.24025023464E+02 -0.12330967586E+03  0.19535544462E+03  0.87965371333E+02 0.  0.
          5    1    1    2  502    0  0.65471816226E+02 -0.36101478559E+01  0.33171355335E+02  0.73603010144E+02  0.41800000000E+01 0.  1.
         -5    1    1    2    0  502  0.55537957246E+02  0.27635171320E+02 -0.93237143906E+02  0.11206607334E+03  0.41800000000E+01 0.  1.
        -11    1    3    3    0    0 -0.40695447474E+01 -0.12845686749E+02 -0.60821291545E+02  0.62296086296E+02  0.00000000000E+00 0. -1.
         11    1    3    3    0    0 -0.11694022872E+03 -0.11179336715E+02 -0.62488384317E+02  0.13305935833E+03  0.00000000000E+00 0.  1.
</event>
<event>
 7    1  0.4687179E-006  0.1022209E+03  0.7561462E-02  0.1275694E+00
          2   -1    0    0  501    0  0.00000000000E+00  0.00000000000E+00  0.98048487272E+02  0.98048487272E+02  0.00000000000E+00 0. -1.
         -2   -1    0    0    0  501 -0.00000000000E+00 -0.00000000000E+00 -0.19402151356E+03  0.19402151356E+03  0.00000000000E+00 0.  1.
         23    2    1    2    0    0  0.41428338772E+02 -0.53545488986E+02  0.10772875218E+02  0.11423164648E+03  0.91374983298E+02 0.  0.
          5    1    1    2  502    0 -0.41114495763E+02  0.75358127599E+02 -0.19930674038E+02  0.88226715482E+02  0.41800000000E+01 0.  1.
         -5    1    1    2    0  502 -0.31384300899E+00 -0.21812638613E+02 -0.86815227465E+02  0.89611638867E+02  0.41800000000E+01 0.  1.
        -11    1    3    3    0    0  0.83607916981E+01 -0.61669073082E+02 -0.22928840571E+02  0.66322764889E+02  0.00000000000E+00 0.  1.
         11    1    3    3    0    0  0.33067547074E+02  0.81235840954E+01  0.33701715790E+02  0.47908881590E+02  0.00000000000E+00 0. -1.
</event>
<event>
 7    1  0.4687179E-006  0.1089148E+03  0.7561462E-02  0.1262593E+00
         -3   -1    0    0    0  501 -0.00000000000E+00  0.00000000000E+00  0.56481827708E+02  0.56481827708E+02  0.00000000000E+00 0.  1.
          3   -1    0    0  501    0  0.00000000000E+00 -0.00000000000E+00 -0.22773330241E+03  0.22773330241E+03  0.00000000000E+00 0. -1.
         23    2    1    2    0    0  0.33133316916E+02 -0.99376754529E+01 -0.73947799455E+02  0.12200486991E+03  0.90666074984E+02 0.  0.
          5    1    1    2  502    0 -0.62365169050E+02  0.43659322096E+02 -0.31283063357E+02  0.82411486878E+02  0.41800000000E+01 0. -1.
         -5    1    1    2    0  502  0.29231852133E+02 -0.33721646643E+02 -0.66020611891E+02  0.79798773336E+02  0.41800000000E+01 0. -1.
        -11    1    3    3    0    0  0.56604453658E+02 -0.31596409818E+02 -0.53806355378E+02  0.84246787276E+02  0.00000000000E+00 0.  1.
         11    1    3    3    0    0 -0.23471136742E+02  0.21658734366E+02 -0.20141444078E+02  0.37758082629E+02  0.00000000000E+00 0. -1.
</event>
<event>
 7    1  0.4687179E-006  0.1251672E+03  0.7561462E-02  0.1234808E+00
          2   -1    0    0  501    0  0.00000000000E+00  0.00000000000E+00  0.13975542554E+03  0.13975542554E+03  0.00000000000E+00 0. -1.
         -2   -1    0    0    0  501 -0.00000000000E+00 -0.00000000000E+00 -0.14910806642E+03  0.14910806642E+03  0.00000000000E+00 0.  1.
         23    2    1    2    0    0 -0.54208892811E+02 -0.72613750856E+02  0.24855327527E+02  0.13065402064E+03  0.90781743379E+02 0.  0.
          5    1    1    2  502    0  0.18408437853E+02 -0.21105384074E+02 -0.49119918841E+02  0.56696972124E+02  0.41800000000E+01 0.  1.
         -5    1    1    2    0  502  0.35800454958E+02  0.93719134931E+02  0.14911950436E+02  0.10151249920E+03  0.41800000000E+01 0.  1.
        -11    1    3    3    0    0  0.21605140307E+02 -0.13561011045E+02  0.23291541526E+02  0.34542423408E+02  0.00000000000E+00 0. -1.
         11    1    3    3    0    0 -0.75814033118E+02 -0.59052739812E+02  0.15637860013E+01  0.96111597237E+02  0.00000000000E+00 0.  1.
</event>
<event>
 7    1  0.4687179E-006  0.1193539E+03  0.7561462E-02  0.1244167E+00
         -2   -1    0    0    0  501 -0.00000000000E+00  0.00000000000E+00  0.38310554108E+03  0.38310554108E+03  0.00000000000E+00 0. -1.
          2   -1    0    0  501    0  0.00000000000E+00 -0.00000000000E+00 -0.75586228306E+02  0.75586228306E+02  0.00000000000E+00 0.  1.
         23    2    1    2    0    0 -0.47206117123E+02  0.56067233062E+02 -0.25649416570E+01  0.11638728918E+03  0.90374056238E+02 0.  0.
          5    1    1    2  502    0 -0.26405318699E+02 -0.46393769756E+02  0.55653460473E+02  0.77229546097E+02  0.41800000000E+01 0. -1.
         -5    1    1    2    0  502  0.73611435822E+02 -0.96734633058E+01  0.25443079396E+03  0.26507493410E+03  0.41800000000E+01 0. -1.
        -11    1    3    3    0    0 -0.71197962678E+02  0.46106888467E+02 -0.17231212930E+02  0.86555818711E+02  0.00000000000E+00 0.  1.
         11    1    3    3    0    0  0.23991845555E+02  0.99603445942E+01  0.14666271273E+02  0.29831470473E+02  0.00000000000E+00 0. -1.
</event>
<event>
 7    1  0.4687179E-006  0.1546010E+03  0.7561462E-02  0.1194931E+00
          3   -1    0    0  501    0  0.00000000000E+00  0.00000000000E+00  0.30722331325E+02  0.30722331325E+02  0.00000000000E+00 0. -1.
         -3   -1    0    0    0  501 -0.00000000000E+00 -0.00000000000E+00 -0.85582071142E+03  0.85582071142E+03  0.00000000000E+00 0.  1.
         23    2    1    2    0    0 -0.73383666838E+02 -0.90269402467E+02 -0.29729555180E+03  0.33178401892E+03  0.90345240647E+02 0.  0.
          5    1    1    2  502    0  0.94418170516E+02  0.20745876717E+02 -0.33464369902E+03  0.34835191979E+03  0.41800000000E+01 0. -1.
         -5    1    1    2    0  502 -0.21034503677E+02  0.69523525750E+02 -0.19315912928E+03  0.20640710405E+03  0.41800000000E+01 0. -1.
        -11    1    3    3    0    0 -0.50270541885E+02 -0.40634931130E+01 -0.16227289127E+03  0.16992978138E+03  0.00000000000E+00 0.  1.
         11    1    3    3    0    0 -0.23113124954E+02 -0.86205909354E+02 -0.13502266053E+03  0.16185423754E+03  0.00000000000E+00 0. -1.
</event>
<event>
 7    1  0.4687179E-006  0.1504212E+03  0.7561462E-02  0.1199956E+00
         -1   -1    0    0    0  501 -0.00000000000E+00  0.00000000000E+00  0.31944021444E+03  0.31944021444E+03  0.00000000000E+00 0.  1.
          1   -1    0    0  501    0  0.00000000000E+00 -0.00000000000E+00 -0.88279014969E+02  0.88279014969E+02  0.00000000000E+00 0. -1.
         23    2    1    2    0    0  0.90498925708E+02  0.80506383759E+02  0.58235248094E+02  0.16231632038E+03  0.91015989584E+02 0.  0.
          5    1    1    2  502    0 -0.22539760623E+02  0.20447158868E+02 -0.36258187784E+01  0.30931312234E+02  0.41800000000E+01 0. -1.
         -5    1    1    2    0  502 -0.67959165085E+02 -0.10095354263E+03  0.17655177016E+03  0.21447159680E+03  0.41800000000E+01 0. -1.
        -11    1    3    3    0    0  0.19723745778E+02  0.74793565539E+02  0.46770670600E+02  0.90391366965E+02  0.00000000000E+00 0.  1.
         11    1    3    3    0    0  0.70775179931E+02  0.57128182201E+01  0.11464577494E+02  0.71924953412E+02  0.00000000000E+00 0. -1.
</event>
<event>
 7    1  0.4687179E-006  0.6762722E+02  0.7561462E-02  0.1368353E+00
         -2   -1    0    0    0  501 -0.00000000000E+00  0.00000000000E+00  0.54754752373E+02  0.54754752373E+02  0.00000000000E+00 0.  1.
          2   -1    0    0  501    0  0.00000000000E+00 -0.00000000000E+00 -0.25191307132E+03  0.25191307132E+03  0.00000000000E+00 0. -1.
         23    2    1    2    0    0 -0.12013393313E+02 -0.40458014143E+02 -0.11896791971E+03  0.15323668640E+03  0.86873146656E+02 0.  0.
          5    1    1    2  502    0 -0.76442737755E+00  0.34697787298E+01  0.34050923732E+02  0.34490020596E+02  0.41800000000E+01 0. -1.
         -5    1    1    2    0  502  0.12777820691E+02  0.36988235413E+02 -0.11224132297E+03  0.11894111670E+03  0.41800000000E+01 0. -1.
        -11    1    3    3    0    0  0.28943320851E+02 -0.40100182649E+02 -0.37542084900E+02  0.62089843043E+02  0.00000000000E+00 0.  1.
         11    1    3    3    0    0 -0.40956714165E+02 -0.35783149333E+00 -0.81425834813E+02  0.91146843355E+02  0.00000000000E+00 0. -1.
</event>
<event>
 7    1  0.4687179E-006  0.1551254E+03  0.7561462E-02  0.1194313E+00
         -1   -1    0    0    0  501 -0.00000000000E+00  0.00000000000E+00  0.28513220754E+02  0.28513220754E+02  0.00000000000E+00 0.  1.
          1   -1    0    0  501    0  0.00000000000E+00 -0.00000000000E+00 -0.91557092713E+03  0.91557092713E+03  0.00000000000E+00 0. -1.
         23    2    1    2    0    0 -0.75383378582E+02  0.10324628239E+03 -0.47299588296E+03  0.49306039698E+03  0.55145273407E+02 0.  0.
          5    1    1    2  502    0  0.33937223664E+02  0.20947981626E+02 -0.49885830815E+02  0.64004856069E+02  0.41800000000E+01 0.  1.
         -5    1    1    2    0  502  0.41446154918E+02 -0.12419426402E+03 -0.36417599259E+03  0.38701889483E+03  0.41800000000E+01 0.  1.
        -11    1    3    3    0    0 -0.11035443701E+01  0.44341528115E+02 -0.14366654595E+03  0.15035779112E+03  0.00000000000E+00 0.  1.
         11    1    3    3    0    0 -0.74279834212E+02  0.58904754278E+02 -0.32932933701E+03  0.34270260586E+03  0.00000000000E+00 0. -1.
</event>
<event>
 7    1  0.4687179E-006  0.7830678E+02  0.7561462E-02  0.1333926E+00
          1   -1    0    0  501    0  0.00000000000E+00  0.00000000000E+00  0.21855697338E+03  0.21855697338E+03  0.00000000000E+00 0. -1.
         -1   -1    0    0    0  501 -0.00000000000E+00 -0.00000000000E+00 -0.61897309539E+02  0.61897309539E+02  0.00000000000E+00 0.  1.
         23    2    1    2    0    0  0.34364323798E+01 -0.20647416777E+02  0.10855316712E+03  0.14481078866E+03  0.93532077560E+02 0.  0.
          5    1    1    2  502    0  0.45246006766E+02  0.17794277293E+02 -0.19185014557E+02  0.52434479269E+02  0.41800000000E+01 0.  1.
         -5    1    1    2    0  502 -0.48682439146E+02  0.28531394838E+01  0.67291511274E+02  0.83209014990E+02  0.41800000000E+01 0.  1.
        -11    1    3    3    0    0  0.11039866469E+01  0.19061144948E+02  0.10287352341E+03  0.10463033906E+03  0.00000000000E+00 0. -1.
         11    1    3    3    0    0  0.23324457329E+01 -0.39708561725E+02  0.56796437158E+01  0.40180449601E+02  0.00000000000E+00 0.  1.
</event>
<event>
 7    1  0.4687179E-006  0.1070798E+03  0.7561462E-02  0.1266075E+00
          2   -1    0    0  501    0  0.00000000000E+00  0.00000000000E+00  0.40508664207E+03  0.40508664207E+03  0.00000000000E+00 0. -1.
         -2   -1    0    0    0  501 -0.00000000000E+00 -0.00000000000E+00 -0.35822697254E+02  0.35822697254E+02  0.00000000000E+00 0.  1.
         23    2    1    2    0    0 -0.19328218114E+02 -0.75303837620E+01  0.24898593023E+03  0.26613899453E+03  0.91682518856E+02 0.  0.
          5    1    1    2  502    0  0.18945432982E+01  0.63302300258E+02  0.38699168018E+02  0.74336185788E+02  0.41800000000E+01 0. -1.
         -5    1    1    2    0  502  0.17433674815E+02 -0.55771916496E+02  0.81578846569E+02  0.10043415900E+03  0.41800000000E+01 0. -1.
        -11    1    3    3    0    0 -0.34639486092E+02  0.33577070788E+02  0.15670174443E+03  0.16395959986E+03  0.00000000000E+00 0.  1.
         11    1    3    3    0    0  0.15311267978E+02 -0.41107454550E+02  0.92284185796E+02  0.10217939467E+03  0.00000000000E+00 0. -1.
</event>
<event>
 7    1  0.4687179E-006  0.1211814E+03  0.7561462E-02  0.1241161E+00
          1   -1    0    0  501    0  0.00000000000E+00  0.00000000000E+00  0.21597639212E+03  0.21597639212E+03  0.00000000000E+00 0. -1.
         -1   -1    0    0    0  501 -0.00000000000E+00 -0.00000000000E+00 -0.14134155774E+03  0.14134155774E+03  0.00000000000E+00 0.  1.
         23    2    1    2    0    0 -0.46246924492E+02  0.29268174638E+02  0.13602723759E+03  0.17560673875E+03  0.96638052850E+02 0.  0.
          5    1    1    2  502    0  0.57844258744E+02  0.35743057971E+02  0.25282930202E+02  0.72665145856E+02  0.41800000000E+01 0. -1.
         -5    1    1    2    0  502 -0.11597334252E+02 -0.65011232609E+02 -0.86675333403E+02  0.10904606526E+03  0.41800000000E+01 0.  1.
        -11    1    3    3    0    0 -0.59738979037E+02  0.53590860042E+02  0.81419375097E+02  0.11432340328E+03  0.00000000000E+00 0.  1.
         11    1    3    3    0    0  0.13492054545E+02 -0.24322685404E+02  0.54607862489E+02  0.61283335473E+02  0.00000000000E+00 0. -1.
</event>
<event>
 7    1  0.4687179E-006  0.1384187E+03  0.7561462E-02  0.1215473E+00
         -2   -1    0    0    0  501 -0.00000000000E+00  0.00000000000E+00  0.85510314117E+02  0.85510314117E+02  0.00000000000E+00 0.  1.
          2   -1    0    0  501    0  0.00000000000E+00 -0.00000000000E+00 -0.41145261934E+03  0.41145261934E+03  0.00000000000E+00 0. -1.
         23    2    1    2    0    0 -0.62578689629E+02 -0.99272323275E+02 -0.28390833150E+03  0.32037037611E+03  0.90896373036E+02 0.  0.
          5    1    1    2  502    0  0.60329261371E+02  0.18069820470E+01 -0.50276250745E+02  0.78664215185E+02  0.41800000000E+01 0. -1.
         -5    1    1    2    0  502  0.22494282571E+01  0.97465341228E+02  0.82422770183E+01  0.97928342162E+02  0.41800000000E+01 0. -1.
        -11    1    3    3    0    0 -0.35251802834E+02 -0.38958324804E+02 -0.35798203452E+02  0.63576348157E+02  0.00000000000E+00 0.  1.
         11    1    3    3    0    0 -0.27326886794E+02 -0.60313998471E+02 -0.24811012804E+03  0.25679402795E+03  0.00000000000E+00 0. -1.
</event>
<event>
 7    1  0.4687179E-006  0.1066179E+03  0.7561462E-02  0.1266964E+00
          2   -1    0    0  501    0  0.00000000000E+00  0.00000000000E+00  0.12793797680E+03  0.12793797680E+03  0.00000000000E+00 0. -1.
         -2   -1    0    0    0  501 -0.00000000000E+00 -0.00000000000E+00 -0.16067125694E+03  0.16067125694E+03  0.00000000000E+00 0.  1.
         23    2    1    2    0    0 -0.83955758692E+02 -0.21889951640E+02  0.26333684429E+02  0.12531763764E+03  0.86506115203E+02 0.  0.
          5    1    1    2  502    0 -0.12476007884E+02 -0.58419110598E+01  0.27281317059E+02  0.30846739828E+02  0.41800000000E+01 0. -1.
         -5    1    1    2    0  502  0.96431766576E+02  0.27731862700E+02 -0.86348281623E+02  0.13244485627E+03  0.41800000000E+01 0. -1.
        -11    1    3    3    0    0 -0.67056961608E+02  0.43543185804E+01 -0.19404113421E+02  0.69943661672E+02  0.00000000000E+00 0.  1.
         11    1    3    3    0    0 -0.16898797084E+02 -0.26244270220E+02  0.45737797850E+02  0.55373975967E+02  0.00000000000E+00 0. -1.
</event>
<event>
 7    1  0.4687179E-006  0.1392813E+03  0.7561462E-02  0.1214299E+00
         -1   -1    0    0    0  501 -0.00000000000E+00  0.00000000000E+00  0.24442592169E+02  0.24442592169E+02  0.00000000000E+00 0.  1.
          1   -1    0    0  501    0  0.00000000000E+00 -0.00000000000E+00 -0.10073279176E+04  0.10073279176E+04  0.00000000000E+00 0. -1.
         23    2    1    2    0    0 -0.10606922374E+03  0.25227210579E+02 -0.58074461253E+03  0.59673969183E+03  0.83347840044E+02 0.  0.
          5    1    1    2  502    0  0.54512895265E+02 -0.75718735044E+02 -0.23863738274E+03  0.25626208348E+03  0.41800000000E+01 0. -1.
         -5    1    1    2    0  502  0.51556328479E+02  0.50491524465E+02 -0.16350333018E+03  0.17876873449E+03  0.41800000000E+01 0. -1.
        -11    1    3    3    0    0 -0.78440345811E+01  0.11184490337E+02 -0.87955651579E+01  0.16247574251E+02  0.00000000000E+00 0.  1.
         11    1    3    3    0    0 -0.98225189163E+02  0.14042720242E+02 -0.57194904737E+03  0.58049211758E+03  0.00000000000E+00 0. -1.
</event>
<event>
 7    1  0.4687179E-006  0.7385036E+02  0.7561462E-02  0.1347468E+00
          2   -1    0    0  501    0  0.00000000000E+00  0.00000000000E+00  0.63648443756E+02  0.63648443756E+02  0.00000000000E+00 0. -1.
         -2   -1    0    0    0  501 -0.00000000000E+00 -0.00000000000E+00 -0.16992486240E+03  0.16992486240E+03  0.00000000000E+00 0.  1.
         23    2    1    2    0    0  0.21690827498E+02 -0.98760680358E+01 -0.45188844111E+02  0.10382596728E+03  0.90386786265E+02 0.  0.
          5    1    1    2  502    0 -0.38129026498E+02 -0.37581599920E+02 -0.43753875519E+01  0.53877785130E+02  0.41800000000E+01 0. -1.
         -5    1    1    2    0  502  0.16438199000E+02  0.47457667956E+02 -0.56712186981E+02  0.75869553751E+02  0.41800000000E+01 0.  1.
        -11    1    3    3    0    0  0.24521457895E+02 -0.20901249954E+02 -0.69707523010E+02  0.76793898918E+02  0.00000000000E+00 0.  1.
         11    1    3    3    0    0 -0.28306303967E+01  0.11025181918E+02  0.24518678899E+02  0.27032068358E+02  0.00000000000E+00 0. -1.
</event>
<event>
 7    1  0.4687179E-006  0.2213500E+03  0.7561462E-02  0.1132881E+00
         -1   -1    0    0    0  501 -0.00000000000E+00  0.00000000000E+00  0.57031756006E+02  0.57031756006E+02  0.00000000000E+00 0.  1.
          1   -1    0    0  501    0  0.00000000000E+00 -0.00000000000E+00 -0.10952201190E+04  0.10952201190E+04  0.00000000000E+00 0. -1.
         23    2    1    2    0    0  0.79817812187E+02  0.20060535812E+03 -0.64767630512E+03  0.68883098348E+03  0.91597678708E+02 0.  0.
          5    1    1    2  502    0  0.15906143157E+01 -0.52886030208E+02 -0.20888074405E+03  0.21551821241E+03  0.41800000000E+01 0. -1.
         -5    1    1    2    0  502 -0.81408426502E+02 -0.14771932792E+03 -0.18163131379E+03  0.24790267908E+03  0.41800000000E+01 0. -1.
        -11    1    3    3    0    0  0.31725125327E+02  0.13994185250E+03 -0.29880000168E+03  0.33146892262E+03  0.00000000000E+00 0.  1.
         11    1    3    3    0    0  0.48092686860E+02  0.60663505621E+02 -0.34887630344E+03  0.35736206086E+03  0.00000000000E+00 0. -1.
</event>
<event>
 7    1  0.4687179E-006  0.8722639E+02  0.7561462E-02  0.1309711E+00
          3   -1    0    0  501    0  0.00000000000E+00  0.00000000000E+00  0.14835172192E+03  0.14835172192E+03  0.00000000000E+00 0. -1.
         -3   -1    0    0    0  501 -0.00000000000E+00 -0.00000000000E+00 -0.98387001377E+02  0.98387001377E+02  0.00000000000E+00 0.  1.
         23    2    1    2    0    0  0.12044753996E+02  0.50063110431E+02  0.30728523045E+02  0.11010361560E+03  0.92342692806E+02 0.  0.
          5    1    1    2  502    0  0.17277555089E+01  0.85308552703E+01  0.61957878041E+02  0.62705754777E+02  0.41800000000E+01 0. -1.
         -5    1    1    2    0  502 -0.13772509505E+02 -0.58593965701E+02 -0.42721680545E+02  0.73929352921E+02  0.41800000000E+01 0. -1.
        -11    1    3    3    0    0  0.51341375089E+02  0.36079235748E+02  0.10056406993E+02  0.63551391565E+02  0.00000000000E+00 0.  1.
         11    1    3    3    0    0 -0.39296621093E+02  0.13983874683E+02  0.20672116052E+02  0.46552224035E+02  0.00000000000E+00 0. -1.
</event>
<event>
 7    1  0.4687179E-006  0.1212985E+03  0.7561462E-02  0.1240970E+00
         -4   -1    0    0    0  501 -0.00000000000E+00  0.00000000000E+00  0.39578733297E+03  0.39578733297E+03  0.00000000000E+00 0. -1.
          4   -1    0    0  501    0  0.00000000000E+00 -0.00000000000E+00 -0.45884188162E+02  0.45884188162E+02  0.00000000000E+00 0.  1.
         23    2    1    2    0    0  0.71145954617E+02  0.27454793212E+02  0.12876366518E+03  0.17640550228E+03  0.93398646853E+02 0.  0.
          5    1    1    2  502    0  0.26756197499E+02 -0.37976119726E+00  0.66269346809E+01  0.27882377704E+02  0.41800000000E+01 0. -1.
         -5    1    1    2    0  502 -0.97902152116E+02 -0.27075032015E+02  0.21451254494E+03  0.23738364115E+03  0.41800000000E+01 0. -1.
        -11    1    3    3    0    0  0.37475198772E+02  0.57559640304E+02  0.47748601498E+02  0.83650652477E+02  0.00000000000E+00 0.  1.
         11    1    3    3    0    0  0.33670755845E+02 -0.30104847092E+02  0.81015063686E+02  0.92754849801E+02  0.00000000000E+00 0. -1.
</event>
<event>
 7    1  0.4687179E-006  0.9080589E+02  0.7561462E-02  0.1300912E+00
          1   -1    0    0  501    0  0.00000000000E+00  0.00000000000E+00  0.44849024891E+03  0.44849024891E+03  0.00000000000E+00 0. -1.
         -1   -1    0    0    0  501 -0.00000000000E+00 -0.00000000000E+00 -0.36615894451E+02  0.36615894451E+02  0.00000000000E+00 0.  1.
         23    2    1    2    0    0 -0.34873303059E+02  0.18882043143E+02  0.28724133168E+03  0.30412807331E+03  0.91725806253E+02 0.  0.
          5    1    1    2  502    0  0.61796103531E+02 -0.22867960585E+02  0.13600736938E+03  0.15118590860E+03  0.41800000000E+01 0. -1.
         -5    1    1    2    0  502 -0.26922800472E+02  0.39859174415E+01 -0.11374346603E+02  0.29792161448E+02  0.41800000000E+01 0. -1.
        -11    1    3    3    0    0  0.20135668279E+02  0.25671214478E+02  0.44736222596E+02  0.55369540381E+02  0.00000000000E+00 0.  1.
         11    1    3    3    0    0 -0.55008971338E+02 -0.67891713349E+01  0.24250510908E+03  0.24875853293E+03  0.00000000000E+00 0. -1.
</event>
<event>
 7    1  0.4687179E-006  0.1254715E+03  0.7561462E-02  0.1234334E+00
         -1   -1    0    0    0  501 -0.00000000000E+00  0.00000000000E+00  0.18676093804E+03  0.18676093804E+03  0.00000000000E+00 0.  1.
          1   -1    0    0  501    0  0.00000000000E+00 -0.00000000000E+00 -0.88993830690E+02  0.88993830690E+02  0.00000000000E+00 0. -1.
         23    2    1    2    0    0 -0.57179026619E+02  0.19310486223E+02  0.13313719053E+02  0.11004897863E+03  0.91055953233E+02 0.  0.
          5    1    1    2  502    0  0.75581922735E+02 -0.60170492622E+02  0.48958836686E+02  0.10838613987E+03  0.41800000000E+01 0. -1.
         -5    1    1    2    0  502 -0.18402896116E+02  0.40860006399E+02  0.35494551614E+02  0.57319650232E+02  0.41800000000E+01 0.  1.
        -11    1    3    3    0    0 -0.71822363839E+02  0.41275798855E+02  0.10483794155E+02  0.83498823096E+02  0.00000000000E+00 0. -1.
         11    1    3    3    0    0  0.14643337220E+02 -0.21965312632E+02  0.28299248984E+01  0.26550155534E+02  0.00000000000E+00 0.  1.
</event>
<event>
 7    1  0.4687179E-006  0.1741208E+03  0.7561462E-02  0.1173617E+00
          2   -1    0    0  501    0  0.00000000000E+00  0.00000000000E+00  0.10525317346E+04  0.10525317346E+04  0.00000000000E+00 0. -1.
         -2   -1    0    0    0  501 -0.00000000000E+00 -0.00000000000E+00 -0.36113579544E+02  0.36113579544E+02  0.00000000000E+00 0.  1.
         23    2    1    2    0    0 -0.13257430786E+03 -0.99267110530E+02  0.50960518541E+03  0.54221541971E+03  0.82886730171E+02 0.  0.
          5    1    1    2  502    0  0.78001822107E+02  0.65346683460E+02  0.44730367728E+03  0.45875104948E+03  0.41800000000E+01 0. -1.
         -5    1    1    2    0  502  0.54572485749E+02  0.33920427071E+02  0.59509292348E+02  0.87678844936E+02  0.41800000000E+01 0.  1.
        -11    1    3    3    0    0 -0.84519256691E+02 -0.16223516796E+02  0.29151062017E+03  0.30394925386E+03  0.00000000000E+00 0.  1.
         11    1    3    3    0    0 -0.48055051165E+02 -0.83043593735E+02  0.21809456524E+03  0.23826616585E+03  0.00000000000E+00 0. -1.
</event>
<event>
 7    1  0.4687179E-006  0.1273290E+03  0.7561462E-02  0.1231474E+00
         -2   -1    0    0    0  501 -0.00000000000E+00  0.00000000000E+00  0.36815693448E+03  0.36815693448E+03  0.00000000000E+00 0.  1.
          2   -1    0    0  501    0  0.00000000000E+00 -0.00000000000E+00 -0.65636526659E+02  0.65636526659E+02  0.00000000000E+00 0. -1.
         23    2    1    2    0    0  0.15693254042E+02  0.86134420052E+02  0.35381002211E+02  0.12901256250E+03  0.87903409632E+02 0.  0.
          5    1    1    2  502    0 -0.17499813751E+02 -0.11328566219E+03  0.18041653920E+03  0.21379308866E+03  0.41800000000E+01 0. -1.
         -5    1    1    2    0  502  0.18065597095E+01  0.27151242139E+02  0.86722866406E+02  0.90987809983E+02  0.41800000000E+01 0.  1.
        -11    1    3    3    0    0  0.24807195235E+02  0.95904509895E+02  0.48492120632E+02  0.11029305380E+03  0.00000000000E+00 0.  1.
         11    1    3    3    0    0 -0.91139411932E+01 -0.97700898429E+01 -0.13111118421E+02  0.18719508697E+02  0.00000000000E+00 0. -1.
</event>
<event>
 7    1  0.4687179E-006  0.1087246E+03  0.7561462E-02  0.1262950E+00
         -1   -1    0    0    0  501 -0.00000000000E+00  0.00000000000E+00  0.15914597693E+03  0.15914597693E+03  0.00000000000E+00 0.  1.
          1   -1    0    0  501    0  0.00000000000E+00 -0.00000000000E+00 -0.12698865874E+03  0.12698865874E+03  0.00000000000E+00 0. -1.
         23    2    1    2    0    0  0.71978793776E+02  0.55370672299E+02  0.30097521992E+01  0.12884005754E+03  0.91344642498E+02 0.  0.
          5    1    1    2  502    0 -0.59556611825E+02 -0.41824090036E+02 -0.41701799916E+02  0.83980694422E+02  0.41800000000E+01 0. -1.
         -5    1    1    2    0  502 -0.12422181951E+02 -0.13546582264E+02  0.70849365908E+02  0.73313883713E+02  0.41800000000E+01 0. -1.
        -11    1    3    3    0    0 -0.25722378060E+01  0.50958340811E+02 -0.12574522896E+02  0.52549857579E+02  0.00000000000E+00 0.  1.
         11    1    3    3    0    0  0.74551031582E+02  0.44123314881E+01  0.15584275095E+02  0.76290199956E+02  0.00000000000E+00 0. -1.
</event>
<event>
 7    1  0.4687179E-006  0.1414266E+03  0.7561462E-02  0.1211422E+00
         -1   -1    0    0    0  501 -0.00000000000E+00  0.00000000000E+00  0.66856696109E+02  0.66856696109E+02  0.00000000000E+00 0.  1.
          1   -1    0    0  501    0  0.00000000000E+00 -0.00000000000E+00 -0.36860213758E+03  0.36860213758E+03  0.00000000000E+00 0. -1.
         23    2    1    2    0    0 -0.58466097067E+02  0.82510087545E+02 -0.18750824710E+03  0.23816618604E+03  0.10647812165E+03 0.  0.
          5    1    1    2  502    0 -0.26769600693E+02  0.20726687915E+01 -0.59190743843E+02  0.65130054766E+02  0.41800000000E+01 0. -1.
         -5    1    1    2    0  502  0.85235697760E+02 -0.84582756337E+02 -0.55046450533E+02  0.13216259289E+03  0.41800000000E+01 0. -1.
        -11    1    3    3    0    0 -0.39430398867E+02 -0.10325147313E+02 -0.19297297485E+02  0.45097125320E+02  0.00000000000E+00 0. -1.
         11    1    3    3    0    0 -0.19035698200E+02  0.92835234858E+02 -0.16821094961E+03  0.19306906072E+03  0.00000000000E+00 0.  1.
</event>
<event>
 7    1  0.4687179E-006  0.1171292E+03  0.7561462E-02  0.1247910E+00
         -1   -1    0    0    0  501 -0.00000000000E+00  0.00000000000E+00  0.92276262653E+02  0.92276262653E+02  0.00000000000E+00 0.  1.
          1   -1    0    0  501    0  0.00000000000E+00 -0.00000000000E+00 -0.16437119962E+03  0.16437119962E+03  0.00000000000E+00 0. -1.
         23    2    1    2    0    0  0.52626024754E+02  0.20650938130E+02 -0.53543619587E+02  0.11812929298E+03  0.88834964589E+02 0.  0.
          5    1    1    2  502    0  0.11328839542E+02 -0.59688402387E+02  0.12323449657E+01  0.60910089961E+02  0.41800000000E+01 0.  1.
         -5    1    1    2    0  502 -0.63954864296E+02  0.39037464257E+02 -0.19783662350E+02  0.77608079339E+02  0.41800000000E+01 0.  1.
        -11    1    3    3    0    0  0.56380159592E+02 -0.18230566200E+02 -0.52320985509E+02  0.79047842882E+02  0.00000000000E+00 0. -1.
         11    1    3    3    0    0 -0.37541348384E+01  0.38881504330E+02 -0.12226340778E+01  0.39081450094E+02  0.00000000000E+00 0.  1.
</event>
<event>
 7    1  0.4687179E-006  0.1141494E+03  0.7561462E-02  0.1253073E+00
         -1   -1    0    0    0  501 -0.00000000000E+00  0.00000000000E+00  0.23877644559E+03  0.23877644559E+03  0.00000000000E+00 0.  1.
          1   -1    0    0  501    0  0.00000000000E+00 -0.00000000000E+00 -0.71772618620E+02  0.71772618620E+02  0.00000000000E+00 0. -1.
         23    2    1    2    0    0 -0.62562026258E+02 -0.18916355965E+02  0.30233463867E+02  0.11401806392E+03  0.88398082048E+02 0.  0.
          5    1    1    2  502    0  0.10089791310E+03  0.10706883435E+02  0.10258116984E+03  0.14434470904E+03  0.41800000000E+01 0. -1.
         -5    1    1    2    0  502 -0.38335886841E+02  0.82094725304E+01  0.34189193260E+02  0.52186291254E+02  0.41800000000E+01 0. -1.
        -11    1    3    3    0    0 -0.52457489628E+02  0.12831403152E+02  0.51392953944E+02  0.74549774245E+02  0.00000000000E+00 0.  1.
         11    1    3    3    0    0 -0.10104536630E+02 -0.31747759117E+02 -0.21159490077E+02  0.39468289674E+02  0.00000000000E+00 0. -1.
</event>
<event>
 7    1  0.4687179E-006  0.1635147E+03  0.7561462E-02  0.1184785E+00
          2   -1    0    0  501    0  0.00000000000E+00  0.00000000000E+00  0.55620591744E+03  0.55620591744E+03  0.00000000000E+00 0. -1.
         -2   -1    0    0    0  501 -0.00000000000E+00 -0.00000000000E+00 -0.53504234090E+02  0.53504234090E+02  0.00000000000E+00 0.  1.
         23    2    1    2    0    0  0.31684283870E+02 -0.12897233888E+03  0.21236776955E+03  0.26681134540E+03  0.91926418689E+02 0.  0.
          5    1    1    2  502    0  0.38142975023E+02  0.59029690933E+02  0.61056230239E+02  0.93191880581E+02  0.41800000000E+01 0. -1.
         -5    1    1    2    0  502 -0.69827258894E+02  0.69942647944E+02  0.22927768356E+03  0.24970692554E+03  0.41800000000E+01 0. -1.
        -11    1    3    3    0    0 -0.29368799942E+02 -0.48387399673E+02  0.49913941801E+02  0.75467002348E+02  0.00000000000E+00 0.  1.
         11    1    3    3    0    0  0.61053083813E+02 -0.80584939204E+02  0.16245382775E+03  0.19134434306E+03  0.00000000000E+00 0. -1.
</event>
<event>
 7    1  0.4687179E-006  0.9206580E+02  0.7561462E-02  0.1297925E+00
         -2   -1    0    0    0  501 -0.00000000000E+00  0.00000000000E+00  0.68872402861E+02  0.68872402861E+02  0.00000000000E+00 0. -1.
          2   -1    0    0  501    0  0.00000000000E+00 -0.00000000000E+00 -0.20923496411E+03  0.20923496411E+03  0.00000000000E+00 0.  1.
         23    2    1    2    0    0 -0.31000104610E+01  0.65108698077E+01 -0.12056212236E+03  0.15128999109E+03  0.91112208646E+02 0.  0.
          5    1    1    2  502    0 -0.15072211166E+02 -0.55794787653E+02  0.19438070693E+02  0.61119071254E+02  0.41800000000E+01 0.  1.
         -5    1    1    2    0  502  0.18172221627E+02  0.49283917845E+02 -0.39238509575E+02  0.65698304626E+02  0.41800000000E+01 0.  1.
        -11    1    3    3    0    0 -0.20191370315E+01  0.39967421063E+02 -0.10860695027E+03  0.11574515674E+03  0.00000000000E+00 0.  1.
         11    1    3    3    0    0 -0.10808734295E+01 -0.33456551256E+02 -0.11955172091E+02  0.35544834351E+02  0.00000000000E+00 0. -1.
</event>
<event>
 7    1  0.4687179E-006  0.1117852E+03  0.7561462E-02  0.1257299E+00
         -2   -1    0    0    0  501 -0.00000000000E+00  0.00000000000E+00  0.70963302271E+02  0.70963302271E+02  0.00000000000E+00 0.  1.
          2   -1    0    0  501    0  0.00000000000E+00 -0.00000000000E+00 -0.18652261954E+03  0.18652261954E+03  0.00000000000E+00 0. -1.
         23    2    1    2    0    0 -0.16998637233E+02  0.31923920488E+02 -0.74759050828E+02  0.12103363264E+03  0.88046204811E+02 0.  0.
          5    1    1    2  502    0  0.65992545469E+02 -0.41911335399E+02 -0.35616795326E+02  0.86009328574E+02  0.41800000000E+01 0.  1.
         -5    1    1    2    0  502 -0.48993908236E+02  0.99874149111E+01 -0.51834711117E+01  0.50442960596E+02  0.41800000000E+01 0.  1.
        -11    1    3    3    0    0 -0.53087078053E+02  0.23453818028E+02 -0.48009745802E+02  0.75321013855E+02  0.00000000000E+00 0.  1.
         11    1    3    3    0    0  0.36088440820E+02  0.84701024605E+01 -0.26749305027E+02  0.45712618782E+02  0.00000000000E+00 0. -1.
</event>
<event>
 7    1  0.4687179E-006  0.1418751E+03  0.7561462E-02  0.1210828E+00
          1   -1    0    0  501    0  0.00000000000E+00  0.00000000000E+00  0.23256758760E+03  0.23256758760E+03  0.00000000000E+00 0. -1.
         -1   -1    0    0    0  501 -0.00000000000E+00 -0.00000000000E+00 -0.11038723954E+03  0.11038723954E+03  0.00000000000E+00 0.  1.
         23    2    1    2    0    0  0.82622627003E+02 -0.82486679686E+02  0.67537706943E+02  0.16333469561E+03  0.92121279366E+02 0.  0.
          5    1    1    2  502    0 -0.12549246366E+02 -0.30761697922E+02 -0.46066691755E+01  0.33800287636E+02  0.41800000000E+01 0. -1.
         -5    1    1    2    0  502 -0.70073380637E+02  0.11324837761E+03  0.59249310293E+02  0.14581984390E+03  0.41800000000E+01 0. -1.
        -11    1    3    3    0    0  0.66641599039E+02 -0.61817864502E+02  0.90707035187E+02  0.12841463050E+03  0.00000000000E+00 0. -1.
         11    1    3    3    0    0  0.15981027964E+02 -0.20668815183E+02 -0.23169328244E+02  0.34920065108E+02  0.00000000000E+00 0.  1.
</event>
<event>
 7    1  0.4687179E-006  0.1021885E+03  0.7561462E-02  0.1275760E+00
          1   -1    0    0  501    0  0.00000000000E+00  0.00000000000E+00  0.99847367271E+02  0.99847367271E+02  0.00000000000E+00 0. -1.
         -1   -1    0    0    0  501 -0.00000000000E+00 -0.00000000000E+00 -0.16175648847E+03  0.16175648847E+03  0.00000000000E+00 0.  1.
         23    2    1    2    0    0  0.17179346500E+02 -0.53413672932E+02  0.61804989339E+01  0.10852060502E+03  0.92684263741E+02 0.  0.
          5    1    1    2  502    0 -0.44483748098E+02  0.52192307454E+02  0.10745735937E+02  0.69539801862E+02  0.41800000000E+01 0. -1.
         -5    1    1    2    0  502  0.27304401598E+02  0.12213654776E+01 -0.78835356068E+02  0.83543448855E+02  0.41800000000E+01 0. -1.
        -11    1    3    3    0    0 -0.44808350825E+01  0.25653895502E+02  0.50763055613E+01  0.26532416317E+02  0.00000000000E+00 0. -1.
         11    1    3    3    0    0  0.21660181583E+02 -0.79067568434E+02  0.11041933726E+01  0.81988188706E+02  0.00000000000E+00 0.  1.
</event>
<event>
 7    1  0.4687179E-006  0.1254686E+03  0.7561462E-02  0.1234339E+00
          3   -1    0    0  501    0  0.00000000000E+00  0.00000000000E+00  0.48208086431E+02  0.48208086431E+02  0.00000000000E+00 0. -1.
         -3   -1    0    0    0  501 -0.00000000000E+00 -0.00000000000E+00 -0.38030425948E+03  0.38030425948E+03  0.00000000000E+00 0.  1.
         23    2    1    2    0    0  0.54120456147E+02  0.37752236703E+02 -0.77443213557E+02  0.13722230644E+03  0.92077439740E+02 0.  0.
          5    1    1    2  502    0 -0.56430881883E+02 -0.80506361884E+02 -0.17823122949E+03  0.20359165577E+03  0.41800000000E+01 0.  1.
         -5    1    1    2    0  502  0.23104257360E+01  0.42754125181E+02 -0.76421730001E+02  0.87698383699E+02  0.41800000000E+01 0.  1.
        -11    1    3    3    0    0 -0.25039661801E+01  0.51243409388E+02 -0.18926751303E+02  0.54684355782E+02  0.00000000000E+00 0.  1.
         11    1    3    3    0    0  0.56624422327E+02 -0.13491172685E+02 -0.58516462254E+02  0.82537950659E+02  0.00000000000E+00 0. -1.
</event>
<event>
 7    1  0.4687179E-006  0.1119832E+03  0.7561462E-02  0.1256941E+00
         -3   -1    0    0    0  501 -0.00000000000E+00  0.00000000000E+00  0.17827829776E+03  0.17827829776E+03  0.00000000000E+00 0.  1.
          3   -1    0    0  501    0  0.00000000000E+00 -0.00000000000E+00 -0.87542228926E+02  0.87542228926E+02  0.00000000000E+00 0. -1.
         23    2    1    2    0    0 -0.55003447718E+02  0.24717747162E+02  0.20176875330E+02  0.11005569668E+03  0.89826520514E+02 0.  0.
          5    1    1    2  502    0 -0.35256399234E+02  0.13583904876E+02  0.64899269041E+01  0.38563294852E+02  0.41800000000E+01 0. -1.
         -5    1    1    2    0  502  0.90259846952E+02 -0.38301652038E+02  0.64069266603E+02  0.11720153516E+03  0.41800000000E+01 0. -1.
        -11    1    3    3    0    0 -0.68597954060E+02  0.12899188141E+02  0.42229802848E+02  0.81580785755E+02  0.00000000000E+00 0.  1.
         11    1    3    3    0    0  0.13594506342E+02  0.11818559021E+02 -0.22052927517E+02  0.28474910923E+02  0.00000000000E+00 0. -1.
</event>
<event>
 7    1  0.4687179E-006  0.8960602E+02  0.7561462E-02  0.1303809E+00
         -3   -1    0    0    0  501 -0.00000000000E+00  0.00000000000E+00  0.10720363933E+03  0.10720363933E+03  0.00000000000E+00 0.  1.
          3   -1    0    0  501    0  0.00000000000E+00 -0.00000000000E+00 -0.11666993310E+03  0.11666993310E+03  0.00000000000E+00 0. -1.
         23    2    1    2    0    0 -0.50921625259E+01  0.19320360264E+02 -0.25776856683E+02  0.96174560321E+02  0.90475926481E+02 0.  0.
          5    1    1    2  502    0 -0.47889630049E+01 -0.56503137468E+02 -0.32434179741E+02  0.65459813060E+02  0.41800000000E+01 0. -1.
         -5    1    1    2    0  502  0.98811255308E+01  0.37182777204E+02  0.48744742650E+02  0.62239199050E+02  0.41800000000E+01 0. -1.
        -11    1    3    3    0    0  0.18107318198E+02 -0.26615469297E+02  0.97566045732E+01  0.33637025894E+02  0.00000000000E+00 0.  1.
         11    1    3    3    0    0 -0.23199480724E+02  0.45935829561E+02 -0.35533461257E+02  0.62537534427E+02  0.00000000000E+00 0. -1.
</event>
<event>
 7    1  0.4687179E-006  0.1331616E+03  0.7561462E-02  0.1222839E+00
          2   -1    0    0  501    0  0.00000000000E+00  0.00000000000E+00  0.46153437815E+03  0.46153437815E+03  0.00000000000E+00 0. -1.
         -2   -1    0    0    0  501 -0.00000000000E+00 -0.00000000000E+00 -0.47834740911E+02  0.47834740911E+02  0.00000000000E+00 0.  1.
         23    2    1    2    0    0  0.75218375886E+02  0.58836578439E+02  0.24399223900E+03  0.27792308022E+03  0.92679441049E+02 0.  0.
          5    1    1    2  502    0  0.25165383944E+02  0.13552617748E+02  0.12894534218E+02  0.31634022975E+02  0.41800000000E+01 0.  1.
         -5    1    1    2    0  502 -0.10038375983E+03 -0.72389196187E+02  0.15681286402E+03  0.19981201586E+03  0.41800000000E+01 0.  1.
        -11    1    3    3    0    0  0.77968917123E+02  0.28303988214E+02  0.22946917477E+03  0.24400075811E+03  0.00000000000E+00 0.  1.
         11    1    3    3    0    0 -0.27505412371E+01  0.30532590225E+02  0.14523064228E+02  0.33922322112E+02  0.00000000000E+00 0. -1.
</event>
<event>
 7    1  0.4687179E-006  0.1132916E+03  0.7561462E-02  0.1254593E+00
         -2   -1    0    0    0  501 -0.00000000000E+00  0.00000000000E+00  0.20493512149E+02  0.20493512149E+02  0.00000000000E+00 0.  1.
          2   -1    0    0  501    0  0.00000000000E+00 -0.00000000000E+00 -0.86043942671E+03  0.86043942671E+03  0.00000000000E+00 0. -1.
         23    2    1    2    0    0 -0.46713903608E+02 -0.42636703616E+02 -0.51807012946E+03  0.53033832260E+03  0.94138196741E+02 0.  0.
          5    1    1    2  502    0  0.72396491332E+01 -0.29594336906E+02 -0.20665198193E+03  0.20892762223E+03  0.41800000000E+01 0. -1.
         -5    1    1    2    0  502  0.39474254474E+02  0.72231040522E+02 -0.11522380318E+03  0.14166699404E+03  0.41800000000E+01 0.  1.
        -11    1    3    3    0    0  0.29157920724E+02 -0.10108956173E+02 -0.14093341015E+03  0.14427266350E+03  0.00000000000E+00 0.  1.
         11    1    3    3    0    0 -0.75871824332E+02 -0.32527747443E+02 -0.37713671931E+03  0.38606565910E+03  0.00000000000E+00 0. -1.
</event>
<event>
 7    1  0.4687179E-006  0.1576289E+03  0.7561462E-02  0.1191400E+00
         -3   -1    0    0    0  501 -0.00000000000E+00  0.00000000000E+00  0.63442719445E+02  0.63442719445E+02  0.00000000000E+00 0.  1.
          3   -1    0    0  501    0  0.00000000000E+00 -0.00000000000E+00 -0.44679857827E+03  0.44679857827E+03  0.00000000000E+00 0. -1.
         23    2    1    2    0    0 -0.28126449921E+02  0.12284068997E+03 -0.21533381684E+03  0.26578104430E+03  0.91596826011E+02 0.  0.
          5    1    1    2  502    0 -0.13149138052E+02  0.13400870140E+02 -0.67377728435E+02  0.70069350225E+02  0.41800000000E+01 0.  1.
         -5    1    1    2    0  502  0.41275587973E+02 -0.13624156011E+03 -0.10064431355E+03  0.17439090319E+03  0.41800000000E+01 0.  1.
        -11    1    3    3    0    0  0.29778648998E+02  0.20948129357E+02 -0.71584532122E+02  0.80311501660E+02  0.00000000000E+00 0.  1.
         11    1    3    3    0    0 -0.57905098919E+02  0.10189256062E+03 -0.14374928472E+03  0.18546954264E+03  0.00000000000E+00 0. -1.
</event>
<event>
 7    1  0.4687179E-006  0.1049934E+03  0.7561462E-02  0.1270133E+00
          2   -1    0    0  501    0  0.00000000000E+00  0.00000000000E+00  0.26815050649E+03  0.26815050649E+03  0.00000000000E+00 0. -1.
         -2   -1    0    0    0  501 -0.00000000000E+00 -0.00000000000E+00 -0.57429488689E+02  0.57429488689E+02  0.00000000000E+00 0.  1.
         23    2    1    2    0    0  0.16413176787E+02 -0.36381175902E+02  0.15158007990E+03  0.18157696689E+03  0.91655288720E+02 0.  0.
          5    1    1    2  502    0 -0.72284292212E+01 -0.38631808482E+02 -0.10772649259E+02  0.40965707460E+02  0.41800000000E+01 0. -1.
         -5    1    1    2    0  502 -0.91847475658E+01  0.75012984385E+02  0.69913587158E+02  0.10303732083E+03  0.41800000000E+01 0. -1.
        -11    1    3    3    0    0 -0.32010608056E+02  0.32841117543E+01  0.81442590814E+02  0.87569172753E+02  0.00000000000E+00 0. -1.
         11    1    3    3    0    0  0.48423784843E+02 -0.39665287657E+02  0.70137489090E+02  0.94007794141E+02  0.00000000000E+00 0.  1.
</event>
<event>
 7    1  0.4687179E-006  0.1445919E+03  0.7561462E-02  0.1207280E+00
         -1   -1    0    0    0  501 -0.00000000000E+00  0.00000000000E+00  0.58566382128E+02  0.58566382128E+02  0.00000000000E+00 0.  1.
          1   -1    0    0  501    0  0.00000000000E+00 -0.00000000000E+00 -0.38413993042E+03  0.38413993042E+03  0.00000000000E+00 0. -1.
         23    2    1    2    0    0  0.10273650884E+03 -0.10705133848E+02 -0.14592856719E+03  0.20065357203E+03  0.91089621277E+02 0.  0.
          5    1    1    2  502    0 -0.10166779791E+03 -0.39303962545E+02 -0.10042507878E+03  0.14826938811E+03  0.41800000000E+01 0.  1.
         -5    1    1    2    0  502 -0.10687109309E+01  0.50009096393E+02 -0.79219902325E+02  0.93783352411E+02  0.41800000000E+01 0.  1.
        -11    1    3    3    0    0  0.39513292654E+02  0.34282672515E+02 -0.93071375544E+02  0.10676555098E+03  0.00000000000E+00 0. -1.
         11    1    3    3    0    0  0.63223216187E+02 -0.44987806363E+02 -0.52857191650E+02  0.93888021044E+02  0.00000000000E+00 0.  1.
</event>
<event>
 7    1  0.4687179E-006  0.2443871E+03  0.7561462E-02  0.1116904E+00
         -1   -1    0    0    0  501 -0.00000000000E+00  0.00000000000E+00  0.96787553898E+03  0.96787553898E+03  0.00000000000E+00 0.  1.
          1   -1    0    0  501    0  0.00000000000E+00 -0.00000000000E+00 -0.82454270497E+02  0.82454270497E+02  0.00000000000E+00 0. -1.
         23    2    1    2    0    0  0.14917020250E+03 -0.17342354710E+03  0.20029863520E+03  0.31727593324E+03  0.90647661573E+02 0.  0.
          5    1    1    2  502    0 -0.48225597112E+02  0.13628743950E+03  0.29795611216E+03  0.33120279521E+03  0.41800000000E+01 0.  1.
         -5    1    1    2    0  502 -0.10094460538E+03  0.37136107598E+02  0.38716652112E+03  0.40185108103E+03  0.41800000000E+01 0.  1.
        -11    1    3    3    0    0  0.11106840748E+03 -0.16256861313E+03  0.19533992617E+03  0.27734893523E+03  0.00000000000E+00 0. -1.
         11    1    3    3    0    0  0.38101795020E+02 -0.10854933971E+02  0.49587090298E+01  0.39926998015E+02  0.00000000000E+00 0.  1.
</event>
<event>
 7    1  0.4687179E-006  0.1852906E+03  0.7561462E-02  0.1162779E+00
         -1   -1    0    0    0  501 -0.00000000000E+00  0.00000000000E+00  0.11420029574E+03  0.11420029574E+03  0.00000000000E+00 0.  1.
          1   -1    0    0  501    0  0.00000000000E+00 -0.00000000000E+00 -0.32834660982E+03  0.32834660982E+03  0.00000000000E+00 0. -1.
         23    2    1    2    0    0 -0.56065978152E+02  0.14855016158E+03 -0.96394435709E+02  0.20861470442E+03  0.94961377695E+02 0.  0.
          5    1    1    2  502    0 -0.15016310438E+02 -0.96675955822E+02 -0.15800467129E+02  0.99191013579E+02  0.41800000000E+01 0.  1.
         -5    1    1    2    0  502  0.71082288590E+02 -0.51874205754E+02 -0.10195141124E+03  0.13474118757E+03  0.41800000000E+01 0.  1.
        -11    1    3    3    0    0 -0.27940090033E+02 -0.50610728050E+01 -0.20244623808E+02  0.34872738380E+02  0.00000000000E+00 0.  1.
         11    1    3    3    0    0 -0.28125888120E+02  0.15361123438E+03 -0.76149811901E+02  0.17374196604E+03  0.00000000000E+00 0. -1.
</event>
<event>
 7    1  0.4687179E-006  0.1045947E+03  0.7561462E-02  0.1270920E+00
         -1   -1    0    0    0  501 -0.00000000000E+00  0.00000000000E+00  0.40121652858E+03  0.40121652858E+03  0.00000000000E+00 0. -1.
          1   -1    0    0  501    0  0.00000000000E+00 -0.00000000000E+00 -0.30742461801E+02  0.30742461801E+02  0.00000000000E+00 0.  1.
         23    2    1    2    0    0  0.10696185668E+01  0.67029475162E+01  0.11062080325E+03  0.14348393112E+03  0.91129593373E+02 0.  0.
          5    1    1    2  502    0 -0.16802538271E+02 -0.63540067582E+02  0.12698398860E+03  0.14304569634E+03  0.41800000000E+01 0. -1.
         -5    1    1    2    0  502  0.15732919704E+02  0.56837120066E+02  0.13286927493E+03  0.14542936292E+03  0.41800000000E+01 0. -1.
        -11    1    3    3    0    0 -0.19953708335E+01 -0.38676141367E+02  0.79326763480E+02  0.88275482553E+02  0.00000000000E+00 0.  1.
         11    1    3    3    0    0  0.30649894003E+01  0.45379088883E+02  0.31294039768E+02  0.55208448565E+02  0.00000000000E+00 0. -1.
</event>
<event>
 7    1  0.4687179E-006  0.9869171E+02  0.7561462E-02  0.1283071E+00
          1   -1    0    0  501    0  0.00000000000E+00  0.00000000000E+00  0.21341948413E+03  0.21341948413E+03  0.00000000000E+00 0. -1.
         -1   -1    0    0    0  501 -0.00000000000E+00 -0.00000000000E+00 -0.11332321161E+03  0.11332321161E+03  0.00000000000E+00 0.  1.
         23    2    1    2    0    0  0.10734172024E+02 -0.34876193770E+02  0.15627914062E+03  0.18484269359E+03  0.91717393329E+02 0.  0.
          5    1    1    2  502    0  0.14859631754E+02 -0.30800675808E+02  0.18513316222E+02  0.39111450544E+02  0.41800000000E+01 0. -1.
         -5    1    1    2    0  502 -0.25593803777E+02  0.65676869579E+02 -0.74696184323E+02  0.10278855161E+03  0.41800000000E+01 0. -1.
        -11    1    3    3    0    0 -0.91928841751E+01  0.26363076525E+02  0.20734239092E+02  0.34776854287E+02  0.00000000000E+00 0.  1.
         11    1    3    3    0    0  0.19927056199E+02 -0.61239270296E+02  0.13554490153E+03  0.15006583930E+03  0.00000000000E+00 0. -1.
</event>
<event>
 7    1  0.4687179E-006  0.1031316E+03  0.7561462E-02  0.1273845E+00
          2   -1    0    0  501    0  0.00000000000E+00  0.00000000000E+00  0.60999216049E+02  0.60999216049E+02  0.00000000000E+00 0. -1.
         -2   -1    0    0    0  501 -0.00000000000E+00 -0.00000000000E+00 -0.25386758257E+03  0.25386758257E+03  0.00000000000E+00 0.  1.
         23    2    1    2    0    0 -0.17523569672E+02  0.18413853987E+01 -0.81701225739E+01  0.91100072842E+02  0.89005652488E+02 0.  0.
          5    1    1    2  502    0  0.92401387469E+01 -0.63326692316E+02 -0.92345162887E+02  0.11243109727E+03  0.41800000000E+01 0. -1.
         -5    1    1    2    0  502  0.82834309254E+01  0.61485306917E+02 -0.92353081060E+02  0.11133562851E+03  0.41800000000E+01 0. -1.
        -11    1    3    3    0    0 -0.17025990779E+02 -0.37196018999E+02 -0.25693449818E+02  0.48307158423E+02  0.00000000000E+00 0.  1.
         11    1    3    3    0    0 -0.49757889321E+00  0.39037404397E+02  0.17523327244E+02  0.42792914420E+02  0.00000000000E+00 0. -1.
</event>
<event>
 7    1  0.6796670E-006  0.2427325E+03  0.7561462E-02  0.1117986E+00
         -2   -1    0    0    0  501 -0.00000000000E+00  0.00000000000E+00  0.79084710453E+02  0.79084710453E+02  0.00000000000E+00 0.  1.
          2   -1    0    0  501    0  0.00000000000E+00 -0.00000000000E+00 -0.86961814187E+03  0.86961814187E+03  0.00000000000E+00 0. -1.
         23    2    1    2    0    0 -0.22407454621E+03  0.49158323977E+01 -0.52971449606E+03  0.58276894835E+03  0.93747704835E+02 0.  0.
          5    1    1    2  502    0  0.15168754539E+02 -0.30684576259E+02 -0.84700774322E+02  0.91451232387E+02  0.41800000000E+01 0.  1.
         -5    1    1    2    0  502  0.20890579167E+03  0.25768743861E+02 -0.17611816104E+03  0.27448267158E+03  0.41800000000E+01 0.  1.
        -11    1    3    3    0    0 -0.70488014757E+02  0.42531001060E+02 -0.22263356403E+03  0.23736712095E+03  0.00000000000E+00 0. -1.
         11    1    3    3    0    0 -0.15358653145E+03 -0.37615168662E+02 -0.30708093203E+03  0.34540182740E+03  0.00000000000E+00 0.  1.
</event>
<event>
 7    1  0.4687179E-006  0.1399305E+03  0.7561462E-02  0.1213423E+00
          1   -1    0    0  501    0  0.00000000000E+00  0.00000000000E+00  0.70068632858E+02  0.70068632858E+02  0.00000000000E+00 0. -1.
         -1   -1    0    0    0  501 -0.00000000000E+00 -0.00000000000E+00 -0.40032144458E+03  0.40032144458E+03  0.00000000000E+00 0.  1.
         23    2    1    2    0    0  0.12557772646E+03  0.24312251929E+02 -0.14029619100E+03  0.20944672906E+03  0.88453717436E+02 0.  0.
          5    1    1    2  502    0 -0.13346917499E+03 -0.91690205313E+01 -0.20003011810E+03  0.24068155757E+03  0.41800000000E+01 0. -1.
         -5    1    1    2    0  502  0.78914485303E+01 -0.15143231397E+02  0.10073497378E+02  0.20261790801E+02  0.41800000000E+01 0. -1.
        -11    1    3    3    0    0  0.84489214950E+02  0.10790682739E+02 -0.28896652146E+02  0.89943775672E+02  0.00000000000E+00 0. -1.
         11    1    3    3    0    0  0.41088511511E+02  0.13521569190E+02 -0.11139953886E+03  0.11950295339E+03  0.00000000000E+00 0.  1.
</event>
<event>
 7    1  0.4687179E-006  0.1230198E+03  0.7561462E-02  0.1238197E+00
          1   -1    0    0  501    0  0.00000000000E+00  0.00000000000E+00  0.48541595300E+03  0.48541595300E+03  0.00000000000E+00 0. -1.
         -1   -1    0    0    0  501 -0.00000000000E+00 -0.00000000000E+00 -0.60039115705E+02  0.60039115705E+02  0.00000000000E+00 0.  1.
         23    2    1    2    0    0 -0.50324876150E+02  0.93850781191E+02  0.32220037654E+03  0.35145709626E+03  0.91479208452E+02 0.  0.
          5    1    1    2  502    0  0.75835801137E+01 -0.91600135592E+02  0.11484816947E+02  0.92722537433E+02  0.41800000000E+01 0.  1.
         -5    1    1    2    0  502  0.42741296036E+02 -0.22506455996E+01  0.91691643809E+02  0.10127543501E+03  0.41800000000E+01 0.  1.
        -11    1    3    3    0    0  0.40377303983E+01  0.12893485577E+02 -0.13050156871E+01  0.13573809452E+02  0.00000000000E+00 0.  1.
         11    1    3    3    0    0 -0.54362606548E+02  0.80957295614E+02  0.32350539222E+03  0.33788328680E+03  0.00000000000E+00 0. -1.
</event>
<event>
 7    1  0.4687179E-006  0.9106469E+02  0.7561462E-02  0.1300294E+00
         -1   -1    0    0    0  501 -0.00000000000E+00  0.00000000000E+00  0.36588901072E+02  0.36588901072E+02  0.00000000000E+00 0.  1.
          1   -1    0    0  501    0  0.00000000000E+00 -0.00000000000E+00 -0.34350862734E+03  0.34350862734E+03  0.00000000000E+00 0. -1.
         23    2    1    2    0    0 -0.25722433210E+02 -0.10493056803E+02 -0.20625214202E+03  0.22710076438E+03  0.90901393168E+02 0.  0.
          5    1    1    2  502    0  0.18508558450E+02  0.53820923316E+02 -0.91645231720E+02  0.10796100879E+03  0.41800000000E+01 0. -1.
         -5    1    1    2    0  502  0.72138747591E+01 -0.43327866513E+02 -0.90223525296E+01  0.45035755248E+02  0.41800000000E+01 0.  1.
        -11    1    3    3    0    0 -0.47432381310E+02  0.12767857792E+02 -0.17765258556E+03  0.18431844765E+03  0.00000000000E+00 0. -1.
         11    1    3    3    0    0  0.21709948100E+02 -0.23260914595E+02 -0.28599556466E+02  0.42782316725E+02  0.00000000000E+00 0.  1.
</event>
<event>
 7    1  0.4687179E-006  0.1678938E+03  0.7561462E-02  0.1180062E+00
          3   -1    0    0  501    0  0.00000000000E+00  0.00000000000E+00  0.28758770968E+03  0.28758770968E+03  0.00000000000E+00 0. -1.
         -3   -1    0    0    0  501 -0.00000000000E+00 -0.00000000000E+00 -0.12386681933E+03  0.12386681933E+03  0.00000000000E+00 0.  1.
         23    2    1    2    0    0 -0.98962234427E+02  0.10025248694E+03  0.14554871832E+03  0.22219137584E+03  0.91326300216E+02 0.  0.
          5    1    1    2  502    0 -0.24654149108E+02 -0.31296941832E+02  0.25460028460E+02  0.47465893919E+02  0.41800000000E+01 0. -1.
         -5    1    1    2    0  502  0.12361638354E+03 -0.68955545113E+02 -0.72878564348E+01  0.14179725925E+03  0.41800000000E+01 0. -1.
        -11    1    3    3    0    0 -0.52907100937E+02  0.93691430462E+02  0.56042575761E+02  0.12131782956E+03  0.00000000000E+00 0.  1.
         11    1    3    3    0    0 -0.46055133490E+02  0.65610564825E+01  0.89506142555E+02  0.10087354627E+03  0.00000000000E+00 0. -1.
</event>
<event>
 7    1  0.4687179E-006  0.1027086E+03  0.7561462E-02  0.1274701E+00
         -1   -1    0    0    0  501 -0.00000000000E+00  0.00000000000E+00  0.15176688265E+04  0.15176688265E+04  0.00000000000E+00 0.  1.
          1   -1    0    0  501    0  0.00000000000E+00 -0.00000000000E+00 -0.12383268862E+02  0.12383268862E+02  0.00000000000E+00 0. -1.
         23    2    1    2    0    0 -0.47169501065E+00 -0.58243589037E+02  0.34833990132E+03  0.36490725291E+03  0.91782777343E+02 0.  0.
          5    1    1    2  502    0  0.34543050048E+02  0.55153063451E+02  0.10643004695E+04  0.10662964150E+04  0.41800000000E+01 0.  1.
         -5    1    1    2    0  502 -0.34071355038E+02  0.30905255864E+01  0.92645186832E+02  0.98848427533E+02  0.41800000000E+01 0.  1.
        -11    1    3    3    0    0  0.10776502777E+02  0.22113442417E+02  0.12219117213E+03  0.12464276912E+03  0.00000000000E+00 0.  1.
         11    1    3    3    0    0 -0.11248197788E+02 -0.80357031454E+02  0.22614872919E+03  0.24026448380E+03  0.00000000000E+00 0. -1.
</event>
<event>
 7    1  0.4687179E-006  0.1176623E+03  0.7561462E-02  0.1247004E+00
         -1   -1    0    0    0  501 -0.00000000000E+00  0.00000000000E+00  0.43374184307E+03  0.43374184307E+03  0.00000000000E+00 0. -1.
          1   -1    0    0  501    0  0.00000000000E+00 -0.00000000000E+00 -0.10142889042E+03  0.10142889042E+03  0.00000000000E+00 0.  1.
         23    2    1    2    0    0  0.62898610024E+02 -0.62227277596E+02 -0.39854986377E+02  0.13269751309E+03  0.90508236204E+02 0.  0.
          5    1    1    2  502    0  0.34368369666E+02  0.10395603848E+02  0.48227954128E+02  0.60271563546E+02  0.41800000000E+01 0.  1.
         -5    1    1    2    0  502 -0.97266979691E+02  0.51831673748E+02  0.32393998489E+03  0.34220165686E+03  0.41800000000E+01 0.  1.
        -11    1    3    3    0    0  0.41754854983E+02 -0.35530255985E+02 -0.68820720938E+02  0.87989537079E+02  0.00000000000E+00 0.  1.
         11    1    3    3    0    0  0.21143755041E+02 -0.26697021611E+02  0.28965734561E+02  0.44707976009E+02  0.00000000000E+00 0. -1.
</event>
<event>
 7    1  0.4687179E-006  0.8063568E+02  0.7561462E-02  0.1327257E+00
          2   -1    0    0  501    0  0.00000000000E+00  0.00000000000E+00  0.23031022864E+03  0.23031022864E+03  0.00000000000E+00 0. -1.
         -2   -1    0    0    0  501 -0.00000000000E+00 -0.00000000000E+00 -0.60088458058E+02  0.60088458058E+02  0.00000000000E+00 0.  1.
         23    2    1    2    0    0  0.28501475319E+02 -0.65419392135E+01  0.11654326329E+03  0.15117434065E+03  0.91739947611E+02 0.  0.
          5    1    1    2  502    0 -0.10005341523E+02  0.44094632296E+02  0.78275163462E+02  0.90492635454E+02  0.41800000000E+01 0.  1.
         -5    1    1    2    0  502 -0.18496133796E+02 -0.37552693082E+02 -0.24596656170E+02  0.48731710599E+02  0.41800000000E+01 0.  1.
        -11    1    3    3    0    0 -0.21641217651E+02  0.52816325353E+01 -0.15527240897E+01  0.22330447728E+02  0.00000000000E+00 0.  1.
         11    1    3    3    0    0  0.50142692970E+02 -0.11823571749E+02  0.11809598738E+03  0.12884389292E+03  0.00000000000E+00 0. -1.
</event>
<event>
 7    1  0.4687179E-006  0.1178559E+03  0.7561462E-02  0.1246677E+00
         -2   -1    0    0    0  501 -0.00000000000E+00  0.00000000000E+00  0.16846124530E+02  0.16846124530E+02  0.00000000000E+00 0.  1.
          2   -1    0    0  501    0  0.00000000000E+00 -0.00000000000E+00 -0.11392170785E+04  0.11392170785E+04  0.00000000000E+00 0. -1.
         23    2    1    2    0    0  0.66562182687E+02 -0.54612560518E+02 -0.54315940389E+03  0.55727537475E+03  0.90114645547E+02 0.  0.
          5    1    1    2  502    0  0.17242891826E+02  0.22207332551E+02 -0.26685948704E+02  0.38988398220E+02  0.41800000000E+01 0. -1.
         -5    1    1    2    0  502 -0.83805074514E+02  0.32405227967E+02 -0.55252560137E+03  0.55979943005E+03  0.41800000000E+01 0. -1.
        -11    1    3    3    0    0  0.79797361322E+02 -0.22967618006E+02 -0.45801542537E+03  0.46548175069E+03  0.00000000000E+00 0. -1.
         11    1    3    3    0    0 -0.13235178635E+02 -0.31644942512E+02 -0.85143978524E+02  0.91793624065E+02  0.00000000000E+00 0.  1.
</event>
<event>
 7    1  0.4687179E-006  0.5859466E+02  0.7561462E-02  0.1403826E+00
         -1   -1    0    0    0  501 -0.00000000000E+00  0.00000000000E+00  0.23520239050E+03  0.23520239050E+03  0.00000000000E+00 0.  1.
          1   -1    0    0  501    0  0.00000000000E+00 -0.00000000000E+00 -0.50060066190E+02  0.50060066190E+02  0.00000000000E+00 0. -1.
         23    2    1    2    0    0 -0.12859392284E+02 -0.14174033320E+02  0.81748685342E+02  0.12184765286E+03  0.88304789012E+02 0.  0.
          5    1    1    2  502    0  0.20344602849E+02  0.21987313732E+02 -0.22053671616E+02  0.37432361160E+02  0.41800000000E+01 0. -1.
         -5    1    1    2    0  502 -0.74852105648E+01 -0.78132804121E+01  0.12544731059E+03  0.12598244267E+03  0.41800000000E+01 0. -1.
        -11    1    3    3    0    0 -0.74546662084E+00 -0.43556138425E+02  0.11977606987E+02  0.45179154310E+02  0.00000000000E+00 0. -1.
         11    1    3    3    0    0 -0.12113925663E+02  0.29382105106E+02  0.69771078355E+02  0.76668498552E+02  0.00000000000E+00 0.  1.
</event>
<event>
 7    1  0.4687179E-006  0.1344010E+03  0.7561462E-02  0.1221068E+00
          1   -1    0    0  501    0  0.00000000000E+00  0.00000000000E+00  0.16415100619E+03  0.16415100619E+03  0.00000000000E+00 0. -1.
         -1   -1    0    0    0  501 -0.00000000000E+00 -0.00000000000E+00 -0.16252351369E+03  0.16252351369E+03  0.00000000000E+00 0.  1.
         23    2    1    2    0    0 -0.49360530600E+02 -0.93341858538E+02  0.61198040677E+02  0.15247487144E+03  0.91401431621E+02 0.  0.
          5    1    1    2  502    0  0.80438047324E+02  0.10250945839E+03 -0.41225670881E+02  0.13673147720E+03  0.41800000000E+01 0.  1.
         -5    1    1    2    0  502 -0.31077516723E+02 -0.91675998524E+01 -0.18344877301E+02  0.37468171238E+02  0.41800000000E+01 0.  1.
        -11    1    3    3    0    0 -0.18455528176E+02 -0.41316989427E+02 -0.21421224983E+02  0.50065647058E+02  0.00000000000E+00 0.  1.
         11    1    3    3    0    0 -0.30905002424E+02 -0.52024869111E+02  0.82619265660E+02  0.10240922438E+03  0.00000000000E+00 0. -1.
</event>
<event>
 7    1  0.4687179E-006  0.9664953E+02  0.7561462E-02  0.1287504E+00
          1   -1    0    0  501    0  0.00000000000E+00  0.00000000000E+00  0.59125030336E+02  0.59125030336E+02  0.00000000000E+00 0. -1.
         -1   -1    0    0    0  501 -0.00000000000E+00 -0.00000000000E+00 -0.20903486003E+03  0.20903486003E+03  0.00000000000E+00 0.  1.
         23    2    1    2    0    0  0.35873659535E+01 -0.26827579364E+02 -0.75777341131E+02  0.12025505491E+03  0.89367133750E+02 0.  0.
          5    1    1    2  502    0 -0.22641658273E+02 -0.35639754125E+02  0.76997811082E+01  0.43123030883E+02  0.41800000000E+01 0. -1.
         -5    1    1    2    0  502  0.19054292319E+02  0.62467333489E+02 -0.81832269671E+02  0.10478180457E+03  0.41800000000E+01 0. -1.
        -11    1    3    3    0    0  0.20850064115E+02  0.23973933484E+02 -0.53366298297E+02  0.62108263977E+02  0.00000000000E+00 0.  1.
         11    1    3    3    0    0 -0.17262698161E+02 -0.50801512848E+02 -0.22411042834E+02  0.58146790938E+02  0.00000000000E+00 0. -1.
</event>
<event>
 7    1  0.4687179E-006  0.1567490E+03  0.7561462E-02  0.1192417E+00
         -2   -1    0    0    0  501 -0.00000000000E+00  0.00000000000E+00  0.38784771469E+02  0.38784771469E+02  0.00000000000E+00 0. -1.
          2   -1    0    0  501    0  0.00000000000E+00 -0.00000000000E+00 -0.76020492059E+03  0.76020492059E+03  0.00000000000E+00 0.  1.
         23    2    1    2    0    0  0.18402843161E+02 -0.12160260243E+03 -0.45391749440E+03  0.47909828634E+03  0.91477968357E+02 0.  0.
          5    1    1    2  502    0  0.51410762628E+02  0.61823928660E+02 -0.15404440738E+03  0.17381719281E+03  0.41800000000E+01 0.  1.
         -5    1    1    2    0  502 -0.69813605789E+02  0.59778673766E+02 -0.11345824733E+03  0.14607421291E+03  0.41800000000E+01 0.  1.
        -11    1    3    3    0    0  0.35482034650E+02 -0.11839801766E+03 -0.43940542640E+03  0.45645831587E+03  0.00000000000E+00 0.  1.
         11    1    3    3    0    0 -0.17079191490E+02 -0.32045847642E+01 -0.14512067999E+02  0.22639970474E+02  0.00000000000E+00 0. -1.
</event>
<event>
 7    1  0.4687179E-006  0.1008244E+03  0.7561462E-02  0.1278572E+00
         -1   -1    0    0    0  501 -0.00000000000E+00  0.00000000000E+00  0.14616252273E+03  0.14616252273E+03  0.00000000000E+00 0.  1.
          1   -1    0    0  501    0  0.00000000000E+00 -0.00000000000E+00 -0.86274193418E+02  0.86274193418E+02  0.00000000000E+00 0. -1.
         23    2    1    2    0    0 -0.11157510656E+02  0.22025592619E+02  0.77835354992E+01  0.94704634073E+02  0.91097571404E+02 0.  0.
          5    1    1    2  502    0  0.10153086656E+02  0.49011932141E+02  0.12147086972E+01  0.50241442834E+02  0.41800000000E+01 0.  1.
         -5    1    1    2    0  502  0.10044240005E+01 -0.71037524761E+02  0.50890085116E+02  0.87490639241E+02  0.41800000000E+01 0.  1.
        -11    1    3    3    0    0 -0.17768620292E+02 -0.26156473947E+02  0.27808920077E+02  0.42109631110E+02  0.00000000000E+00 0.  1.
         11    1    3    3    0    0  0.66111096353E+01  0.48182066566E+02 -0.20025384578E+02  0.52595002963E+02  0.00000000000E+00 0. -1.
</event>
<event>
 7    1  0.4687179E-006  0.1715701E+03  0.7561462E-02  0.1176220E+00
         -1   -1    0    0    0  501 -0.00000000000E+00  0.00000000000E+00  0.53273820331E+02  0.53273820331E+02  0.00000000000E+00 0.  1.
          1   -1    0    0  501    0  0.00000000000E+00 -0.00000000000E+00 -0.64933788475E+03  0.64933788475E+03  0.00000000000E+00 0. -1.
         23    2    1    2    0    0  0.11556461746E+03 -0.94400465701E+02 -0.32100438324E+03  0.36560380854E+03  0.91409529173E+02 0.  0.
          5    1    1    2  502    0 -0.92566047271E+02  0.12443657620E+03 -0.20282062454E+03  0.25535585512E+03  0.41800000000E+01 0. -1.
         -5    1    1    2    0  502 -0.22998570192E+02 -0.30036110501E+02 -0.72239056637E+02  0.81652041424E+02  0.41800000000E+01 0. -1.
        -11    1    3    3    0    0  0.49933279242E+02 -0.31572419344E+02 -0.22822282465E+03  0.23574521783E+03  0.00000000000E+00 0. -1.
         11    1    3    3    0    0  0.65631338221E+02 -0.62828046357E+02 -0.92781558590E+02  0.12985859071E+03  0.00000000000E+00 0.  1.
</event>
<event>
 7    1  0.4687179E-006  0.8882815E+02  0.7561462E-02  0.1305715E+00
          2   -1    0    0  501    0  0.00000000000E+00  0.00000000000E+00  0.29188810276E+03  0.29188810276E+03  0.00000000000E+00 0. -1.
         -2   -1    0    0    0  501 -0.00000000000E+00 -0.00000000000E+00 -0.49487936888E+02  0.49487936888E+02  0.00000000000E+00 0.  1.
         23    2    1    2    0    0 -0.15675040277E+02 -0.21530060836E+02  0.16878203225E+03  0.19380659582E+03  0.91456939410E+02 0.  0.
          5    1    1    2  502    0 -0.53637116931E+02  0.12862341738E+02  0.17965215649E+02  0.58160136872E+02  0.41800000000E+01 0. -1.
         -5    1    1    2    0  502  0.69312157208E+02  0.86677190985E+01  0.55652917973E+02  0.89409306955E+02  0.41800000000E+01 0. -1.
        -11    1    3    3    0    0 -0.16825851064E+01  0.14039823213E+02 -0.56562948598E+01  0.15229622452E+02  0.00000000000E+00 0.  1.
         11    1    3    3    0    0 -0.13992455170E+02 -0.35569884049E+02  0.17443832711E+03  0.17857697337E+03  0.00000000000E+00 0. -1.
</event>
<event>
 7    1  0.4687179E-006  0.1372817E+03  0.7561462E-02  0.1217034E+00
          2   -1    0    0  501    0  0.00000000000E+00  0.00000000000E+00  0.61211972574E+03  0.61211972574E+03  0.00000000000E+00 0. -1.
         -2   -1    0    0    0  501 -0.00000000000E+00 -0.00000000000E+00 -0.33673561536E+02  0.33673561536E+02  0.00000000000E+00 0.  1.
         23    2    1    2    0    0  0.70913986823E+02  0.51972354932E+02  0.34319382883E+03  0.36521578834E+03  0.88716676575E+02 0.  0.
          5    1    1    2  502    0 -0.84701720730E+02  0.10820140502E+02  0.10617675007E+03  0.13631739284E+03  0.41800000000E+01 0.  1.
         -5    1    1    2    0  502  0.13787733908E+02 -0.62792495434E+02  0.12907558531E+03  0.14426010610E+03  0.41800000000E+01 0.  1.
        -11    1    3    3    0    0 -0.21078542168E+02  0.12806844842E+02  0.77640452910E+02  0.81463857893E+02  0.00000000000E+00 0. -1.
         11    1    3    3    0    0  0.91992528990E+02  0.39165510090E+02  0.26555337592E+03  0.28375193045E+03  0.00000000000E+00 0.  1.
</event>
<event>
 7    1  0.4687179E-006  0.7247604E+02  0.7561462E-02  0.1351870E+00
          1   -1    0    0  501    0  0.00000000000E+00  0.00000000000E+00  0.67282226649E+02  0.67282226649E+02  0.00000000000E+00 0. -1.
         -1   -1    0    0    0  501 -0.00000000000E+00 -0.00000000000E+00 -0.21236382726E+03  0.21236382726E+03  0.00000000000E+00 0.  1.
         23    2    1    2    0    0 -0.20858030956E+02 -0.35456392584E+02  0.62235508275E+00  0.83254484067E+02  0.72378923458E+02 0.  0.
          5    1    1    2  502    0 -0.12978909145E+02  0.29116067632E+02 -0.15673669939E+03  0.16000019629E+03  0.41800000000E+01 0.  1.
         -5    1    1    2    0  502  0.33836940100E+02  0.63403249520E+01  0.11032743694E+02  0.36391373555E+02  0.41800000000E+01 0.  1.
        -11    1    3    3    0    0 -0.15312795347E+02 -0.55371553306E+02 -0.12465935145E+02  0.58786819576E+02  0.00000000000E+00 0.  1.
         11    1    3    3    0    0 -0.55452356086E+01  0.19915160722E+02  0.13088290228E+02  0.24467664491E+02  0.00000000000E+00 0. -1.
</event>
<event>
 7    1  0.4687179E-006  0.7113154E+02  0.7561462E-02  0.1356287E+00
         -1   -1    0    0    0  501 -0.00000000000E+00  0.00000000000E+00  0.52192123639E+02  0.52192123639E+02  0.00000000000E+00 0.  1.
          1   -1    0    0  501    0  0.00000000000E+00 -0.00000000000E+00 -0.29366752441E+03  0.29366752441E+03  0.00000000000E+00 0. -1.
         23    2    1    2    0    0  0.18779844105E+02 -0.33862775432E+02 -0.17105084971E+03  0.19717734037E+03  0.90117369366E+02 0.  0.
          5    1    1    2  502    0  0.20077585772E+02  0.76005943098E+01  0.30373670359E+02  0.37428742102E+02  0.41800000000E+01 0. -1.
         -5    1    1    2    0  502 -0.38857429876E+02  0.26262181122E+02 -0.10079822142E+03  0.11125356558E+03  0.41800000000E+01 0. -1.
        -11    1    3    3    0    0  0.40568164078E+02 -0.11688188107E+02 -0.15785813951E+03  0.16340618680E+03  0.00000000000E+00 0. -1.
         11    1    3    3    0    0 -0.21788319973E+02 -0.22174587325E+02 -0.13192710209E+02  0.33771153563E+02  0.00000000000E+00 0.  1.
</event>
<event>
 7    1  0.4687179E-006  0.8553853E+02  0.7561462E-02  0.1314030E+00
          1   -1    0    0  501    0  0.00000000000E+00  0.00000000000E+00  0.34275866718E+02  0.34275866718E+02  0.00000000000E+00 0. -1.
         -1   -1    0    0    0  501 -0.00000000000E+00 -0.00000000000E+00 -0.52827848542E+03  0.52827848542E+03  0.00000000000E+00 0.  1.
         23    2    1    2    0    0  0.64599313526E+02  0.17537445577E+02 -0.12874737499E+03  0.17071272056E+03  0.89923929454E+02 0.  0.
          5    1    1    2  502    0 -0.45213147280E+02 -0.28538036999E+02 -0.42866130418E+02  0.68655850295E+02  0.41800000000E+01 0. -1.
         -5    1    1    2    0  502 -0.19386166246E+02  0.11000591422E+02 -0.32238911329E+03  0.32318578128E+03  0.41800000000E+01 0. -1.
        -11    1    3    3    0    0 -0.12367818607E+02  0.12581808533E+02 -0.74143362025E+02  0.76213535382E+02  0.00000000000E+00 0.  1.
         11    1    3    3    0    0  0.76967132133E+02  0.49556370438E+01 -0.54604012967E+02  0.94499185178E+02  0.00000000000E+00 0. -1.
</event>
<event>
 7    1  0.4687179E-006  0.8032825E+02  0.7561462E-02  0.1328122E+00
         -4   -1    0    0    0  501 -0.00000000000E+00  0.00000000000E+00  0.34899663348E+02  0.34899663348E+02  0.00000000000E+00 0.  1.
          4   -1    0    0  501    0  0.00000000000E+00 -0.00000000000E+00 -0.40938406730E+03  0.40938406730E+03  0.00000000000E+00 0. -1.
         23    2    1    2    0    0 -0.33514640078E+02  0.30137283998E+02 -0.20271819685E+03  0.22706940754E+03  0.91838780038E+02 0.  0.
          5    1    1    2  502    0 -0.91552103006E+01 -0.27737464263E+02  0.94474028706E+01  0.30982424379E+02  0.41800000000E+01 0.  1.
         -5    1    1    2    0  502  0.42669850378E+02 -0.23998197351E+01 -0.18121360997E+03  0.18623189873E+03  0.41800000000E+01 0.  1.
        -11    1    3    3    0    0  0.15888484677E+02 -0.14586264535E+02 -0.11230259960E+02  0.24317109145E+02  0.00000000000E+00 0.  1.
         11    1    3    3    0    0 -0.49403124754E+02  0.44723548533E+02 -0.19148793689E+03  0.20275229839E+03  0.00000000000E+00 0. -1.
</event>
<event>
 7    1  0.4687179E-006  0.1053975E+03  0.7561462E-02  0.1269338E+00
         -1   -1    0    0    0  501 -0.00000000000E+00  0.00000000000E+00  0.53226738837E+02  0.53226738837E+02  0.00000000000E+00 0.  1.
          1   -1    0    0  501    0  0.00000000000E+00 -0.00000000000E+00 -0.21542112094E+03  0.21542112094E+03  0.00000000000E+00 0. -1.
         23    2    1    2    0    0 -0.50738389325E+01 -0.19485633768E+02 -0.73508946679E+02  0.11398840924E+03  0.84760594824E+02 0.  0.
          5    1    1    2  502    0  0.57521716766E+02  0.39679320699E+02 -0.43436767625E+02  0.82385809291E+02  0.41800000000E+01 0.  1.
         -5    1    1    2    0  502 -0.52447877833E+02 -0.20193686931E+02 -0.45248667802E+02  0.72273641246E+02  0.41800000000E+01 0.  1.
        -11    1    3    3    0    0 -0.42887979589E+02 -0.18222518608E+02 -0.26366999444E+02  0.53541177026E+02  0.00000000000E+00 0.  1.
         11    1    3    3    0    0  0.37814140657E+02 -0.12631151596E+01 -0.47141947235E+02  0.60447232217E+02  0.00000000000E+00 0. -1.
</event>
<event>
 7    1  0.4687179E-006  0.9736243E+02  0.7561462E-02  0.1285942E+00
          4   -1    0    0  501    0  0.00000000000E+00  0.00000000000E+00  0.17235591182E+03  0.17235591182E+03  0.00000000000E+00 0. -1.
         -4   -1    0    0    0  501 -0.00000000000E+00 -0.00000000000E+00 -0.70600332811E+02  0.70600332811E+02  0.00000000000E+00 0.  1.
         23    2    1    2    0    0  0.14370721932E+01  0.13472247456E+02  0.62240774290E+02  0.11108078822E+03  0.91002532381E+02 0.  0.
          5    1    1    2  502    0 -0.54929913911E+02 -0.30216652107E+02 -0.57699423055E+00  0.62834280684E+02  0.41800000000E+01 0. -1.
         -5    1    1    2    0  502  0.53492841717E+02  0.16744404651E+02  0.40091798946E+02  0.69041175720E+02  0.41800000000E+01 0. -1.
        -11    1    3    3    0    0 -0.30083994077E+02 -0.14632977573E+02 -0.27579113371E+01  0.33567496291E+02  0.00000000000E+00 0. -1.
         11    1    3    3    0    0  0.31521066271E+02  0.28105225029E+02  0.64998685627E+02  0.77513291931E+02  0.00000000000E+00 0.  1.
</event>
<event>
 7    1  0.4687179E-006  0.6771758E+02  0.7561462E-02  0.1368031E+00
          1   -1    0    0  501    0  0.00000000000E+00  0.00000000000E+00  0.44574904026E+03  0.44574904026E+03  0.00000000000E+00 0. -1.
         -1   -1    0    0    0  501 -0.00000000000E+00 -0.00000000000E+00 -0.37752797933E+02  0.37752797933E+02  0.00000000000E+00 0.  1.
         23    2    1    2    0    0 -0.35834148872E+02 -0.33223863853E+02  0.27897658025E+03  0.29726769033E+03  0.90289733807E+02 0.  0.
          5    1    1    2  502    0  0.32922573359E+02  0.39516487171E+02 -0.51140838984E+01  0.51856290352E+02  0.41800000000E+01 0. -1.
         -5    1    1    2    0  502  0.29115755133E+01 -0.62926233183E+01  0.13413374598E+03  0.13437785751E+03  0.41800000000E+01 0. -1.
        -11    1    3    3    0    0  0.22321731869E+01  0.14510605237E+02  0.34815852614E+01  0.15088462394E+02  0.00000000000E+00 0.  1.
         11    1    3    3    0    0 -0.38066322059E+02 -0.47734469090E+02  0.27549499498E+03  0.28217922793E+03  0.00000000000E+00 0. -1.
</event>
<event>
 7    1  0.4687179E-006  0.1811951E+03  0.7561462E-02  0.1166651E+00
          1   -1    0    0  501    0  0.00000000000E+00  0.00000000000E+00  0.18045369687E+03  0.18045369687E+03  0.00000000000E+00 0. -1.
         -1   -1    0    0    0  501 -0.00000000000E+00 -0.00000000000E+00 -0.25312966728E+03  0.25312966728E+03  0.00000000000E+00 0.  1.
         23    2    1    2    0    0 -0.60357067239E+02 -0.15288987043E+03  0.48276535240E+02  0.19421736996E+03  0.91495764360E+02 0.  0.
          5    1    1    2  502    0  0.41002396854E+02  0.24899847052E+01 -0.66334431822E+02  0.78135304547E+02  0.41800000000E+01 0.  1.
         -5    1    1    2    0  502  0.19354670385E+02  0.15039988572E+03 -0.54618073829E+02  0.16123068963E+03  0.41800000000E+01 0.  1.
        -11    1    3    3    0    0 -0.20710996878E+02 -0.10597179626E+03 -0.11399253298E+02  0.10857674692E+03  0.00000000000E+00 0.  1.
         11    1    3    3    0    0 -0.39646070361E+02 -0.46918074162E+02  0.59675788538E+02  0.85640623047E+02  0.00000000000E+00 0. -1.
</event>
<event>
 7    1  0.4687179E-006  0.1292303E+03  0.7561462E-02  0.1228602E+00
         -2   -1    0    0    0  501 -0.00000000000E+00  0.00000000000E+00  0.28597132492E+02  0.28597132492E+02  0.00000000000E+00 0.  1.
          2   -1    0    0  501    0  0.00000000000E+00 -0.00000000000E+00 -0.11696659930E+04  0.11696659930E+04  0.00000000000E+00 0. -1.
         23    2    1    2    0    0  0.10555836350E+03  0.53969711095E+02 -0.63584907657E+03  0.65280607703E+03  0.88297385064E+02 0.  0.
          5    1    1    2  502    0 -0.67697617210E+02 -0.33573076786E+02 -0.49539974279E+03  0.50114718039E+03  0.41800000000E+01 0. -1.
         -5    1    1    2    0  502 -0.37860746292E+02 -0.20396634309E+02 -0.98200411584E+01  0.44309868080E+02  0.41800000000E+01 0.  1.
        -11    1    3    3    0    0  0.72854243080E+02 -0.40530281307E+01 -0.43827181027E+03  0.44430434102E+03  0.00000000000E+00 0. -1.
         11    1    3    3    0    0  0.32704120421E+02  0.58022739226E+02 -0.19757726630E+03  0.20850173600E+03  0.00000000000E+00 0.  1.
</event>
<event>
 7    1  0.4687179E-006  0.3236360E+03  0.7561462E-02  0.1073988E+00
          1   -1    0    0  501    0  0.00000000000E+00  0.00000000000E+00  0.79481885017E+03  0.79481885017E+03  0.00000000000E+00 0. -1.
         -1   -1    0    0    0  501 -0.00000000000E+00 -0.00000000000E+00 -0.15304698910E+03  0.15304698910E+03  0.00000000000E+00 0.  1.
         23    2    1    2    0    0  0.69639514665E+02 -0.31407005130E+03  0.20449591479E+03  0.39079469942E+03  0.86094476021E+02 0.  0.
          5    1    1    2  502    0 -0.32808526935E+02  0.12351845832E+03  0.27789149819E+03  0.30589927452E+03  0.41800000000E+01 0.  1.
         -5    1    1    2    0  502 -0.36830987730E+02  0.19055159298E+03  0.15938444809E+03  0.25117186534E+03  0.41800000000E+01 0.  1.
        -11    1    3    3    0    0  0.76667302972E+02 -0.27087962376E+03  0.20287871206E+03  0.34700636553E+03  0.00000000000E+00 0. -1.
         11    1    3    3    0    0 -0.70277883074E+01 -0.43190427545E+02  0.16172027280E+01  0.43788333888E+02  0.00000000000E+00 0.  1.
</event>
<event>
 7    1  0.4687179E-006  0.8304438E+02  0.7561462E-02  0.1320627E+00
          2   -1    0    0  501    0  0.00000000000E+00  0.00000000000E+00  0.20908883122E+03  0.20908883122E+03  0.00000000000E+00 0. -1.
         -2   -1    0    0    0  501 -0.00000000000E+00 -0.00000000000E+00 -0.77812112770E+02  0.77812112770E+02  0.00000000000E+00 0.  1.
         23    2    1    2    0    0 -0.34111962746E+01 -0.46955216245E+02  0.11263039424E+03  0.15194480559E+03  0.90472037923E+02 0.  0.
          5    1    1    2  502    0  0.24686561119E+02  0.33807552802E+02 -0.47894612109E+02  0.63747495601E+02  0.41800000000E+01 0. -1.
         -5    1    1    2    0  502 -0.21275364844E+02  0.13147663443E+02  0.66540936318E+02  0.71208642799E+02  0.41800000000E+01 0. -1.
        -11    1    3    3    0    0  0.40431112938E+02 -0.34325870385E+02  0.41081511512E+02  0.67086741307E+02  0.00000000000E+00 0.  1.
         11    1    3    3    0    0 -0.43842309213E+02 -0.12629345860E+02  0.71548882728E+02  0.84858064281E+02  0.00000000000E+00 0. -1.
</event>
<event>
 7    1  0.4687179E-006  0.1205123E+03  0.7561462E-02  0.1242254E+00
          1   -1    0    0  501    0  0.00000000000E+00  0.00000000000E+00  0.67205486082E+03  0.67205486082E+03  0.00000000000E+00 0. -1.
         -1   -1    0    0    0  501 -0.00000000000E+00 -0.00000000000E+00 -0.33589714485E+02  0.33589714485E+02  0.00000000000E+00 0.  1.
         23    2    1    2    0    0 -0.22539030021E+02 -0.90192521080E+02  0.39420048321E+03  0.41589439054E+03  0.94506213491E+02 0.  0.
          5    1    1    2  502    0  0.11287312027E+02 -0.11313271189E+02  0.14936159353E+03  0.15027225805E+03  0.41800000000E+01 0.  1.
         -5    1    1    2    0  502  0.11251717994E+02  0.10150579227E+03  0.94903069599E+02  0.13947792672E+03  0.41800000000E+01 0.  1.
        -11    1    3    3    0    0  0.25309879729E+02 -0.61490915963E+02  0.13176778465E+03  0.14759563621E+03  0.00000000000E+00 0.  1.
         11    1    3    3    0    0 -0.47848909750E+02 -0.28701605117E+02  0.26243269856E+03  0.26829875433E+03  0.00000000000E+00 0. -1.
</event>
<event>
 7    1  0.4687179E-006  0.1546512E+03  0.7561462E-02  0.1194871E+00
          2   -1    0    0  501    0  0.00000000000E+00  0.00000000000E+00  0.27846750524E+02  0.27846750524E+02  0.00000000000E+00 0. -1.
         -2   -1    0    0    0  501 -0.00000000000E+00 -0.00000000000E+00 -0.11692174882E+04  0.11692174882E+04  0.00000000000E+00 0.  1.
         23    2    1    2    0    0  0.85109597602E+02 -0.11172704854E+03 -0.64367946595E+03  0.66502029841E+03  0.90565807173E+02 0.  0.
          5    1    1    2  502    0 -0.80199294415E+02  0.91844275309E+02 -0.49632160274E+03  0.51109676528E+03  0.41800000000E+01 0.  1.
         -5    1    1    2    0  502 -0.49103031872E+01  0.19882773226E+02 -0.13696689750E+01  0.20947175028E+02  0.41800000000E+01 0.  1.
        -11    1    3    3    0    0  0.41982990723E+02 -0.11570602876E+03 -0.50194189407E+03  0.51681343019E+03  0.00000000000E+00 0.  1.
         11    1    3    3    0    0  0.43126606879E+02  0.39789802231E+01 -0.14173757189E+03  0.14820686822E+03  0.00000000000E+00 0. -1.
</event>
<event>
 7    1  0.4687179E-006  0.1029613E+03  0.7561462E-02  0.1274189E+00
         -2   -1    0    0    0  501 -0.00000000000E+00  0.00000000000E+00  0.20160105373E+02  0.20160105373E+02  0.00000000000E+00 0.  1.
          2   -1    0    0  501    0  0.00000000000E+00 -0.00000000000E+00 -0.58708752750E+03  0.58708752750E+03  0.00000000000E+00 0. -1.
         23    2    1    2    0    0  0.13703933563E+02 -0.62213959516E+00 -0.26749550167E+03  0.28244901353E+03  0.89640487405E+02 0.  0.
          5    1    1    2  502    0  0.33054820171E+02  0.48235850922E+02 -0.15196104736E+03  0.16287710326E+03  0.41800000000E+01 0. -1.
         -5    1    1    2    0  502 -0.46758753734E+02 -0.47613711327E+02 -0.14747087310E+03  0.16192151608E+03  0.41800000000E+01 0. -1.
        -11    1    3    3    0    0 -0.27378004650E+02  0.20535333001E+02 -0.53417201202E+02  0.63440148363E+02  0.00000000000E+00 0.  1.
         11    1    3    3    0    0  0.41081938213E+02 -0.21157472596E+02 -0.21407830046E+03  0.21900886517E+03  0.00000000000E+00 0. -1.
</event>
<event>
 7    1  0.4687179E-006  0.1736070E+03  0.7561462E-02  0.1174138E+00
         -1   -1    0    0    0  501 -0.00000000000E+00  0.00000000000E+00  0.16671026417E+04  0.16671026417E+04  0.00000000000E+00 0.  1.
          1   -1    0    0  501    0  0.00000000000E+00 -0.00000000000E+00 -0.30006271687E+02  0.30006271687E+02  0.00000000000E+00 0. -1.
         23    2    1    2    0    0 -0.10463942626E+03  0.12510030555E+03  0.32665345474E+03  0.37064558502E+03  0.63844923270E+02 0.  0.
          5    1    1    2  502    0  0.10279347272E+03 -0.66546093054E+02  0.11318151833E+04  0.11384278467E+04  0.41800000000E+01 0.  1.
         -5    1    1    2    0  502  0.18459535376E+01 -0.58554212493E+02  0.17862773203E+03  0.18803548175E+03  0.41800000000E+01 0.  1.
        -11    1    3    3    0    0 -0.19098432414E+02  0.44500166711E+02  0.47834664033E+02  0.68067393377E+02  0.00000000000E+00 0. -1.
         11    1    3    3    0    0 -0.85540993846E+02  0.80600138837E+02  0.27881879071E+03  0.30257819165E+03  0.00000000000E+00 0.  1.
</event>
<event>
 7    1  0.4687179E-006  0.9317741E+02  0.7561462E-02  0.1295335E+00
          1   -1    0    0  501    0  0.00000000000E+00  0.00000000000E+00  0.64058837806E+03  0.64058837806E+03  0.00000000000E+00 0. -1.
         -1   -1    0    0    0  501 -0.00000000000E+00 -0.00000000000E+00 -0.20878106757E+02  0.20878106757E+02  0.00000000000E+00 0.  1.
         23    2    1    2    0    0  0.72492328665E+01  0.18055797219E+02  0.36160989558E+03  0.37399181231E+03  0.93432306547E+02 0.  0.
          5    1    1    2  502    0  0.22220397322E+02 -0.49789214593E+02  0.22825571275E+03  0.23471441104E+03  0.41800000000E+01 0.  1.
         -5    1    1    2    0  502 -0.29469630189E+02  0.31733417373E+02  0.29844662975E+02  0.52760261464E+02  0.41800000000E+01 0.  1.
        -11    1    3    3    0    0 -0.29307713201E+02  0.36830289990E+02  0.11980053039E+03  0.12871510943E+03  0.00000000000E+00 0.  1.
         11    1    3    3    0    0  0.36556946067E+02 -0.18774492770E+02  0.24180936519E+03  0.24527670289E+03  0.00000000000E+00 0. -1.
</event>
<event>
 7    1  0.4687179E-006  0.8226792E+02  0.7561462E-02  0.1322736E+00
         -2   -1    0    0    0  501 -0.00000000000E+00  0.00000000000E+00  0.55768722867E+02  0.55768722867E+02  0.00000000000E+00 0.  1.
          2   -1    0    0  501    0  0.00000000000E+00 -0.00000000000E+00 -0.38309614138E+03  0.38309614138E+03  0.00000000000E+00 0. -1.
         23    2    1    2    0    0  0.19608648696E+02  0.52673333642E+02 -0.27036587904E+03  0.29030752187E+03  0.89564331763E+02 0.  0.
          5    1    1    2  502    0  0.37517786286E+01 -0.47063857119E+02 -0.93384753719E+02  0.10472472066E+03  0.41800000000E+01 0. -1.
         -5    1    1    2    0  502 -0.23360427325E+02 -0.56094765224E+01  0.36423214240E+02  0.43832621725E+02  0.41800000000E+01 0. -1.
        -11    1    3    3    0    0  0.46862670774E+02  0.22153793662E+02 -0.78103189856E+02  0.93739046034E+02  0.00000000000E+00 0.  1.
         11    1    3    3    0    0 -0.27254022078E+02  0.30519539980E+02 -0.19226268918E+03  0.19656847583E+03  0.00000000000E+00 0. -1.
</event>
<event>
 7    1  0.4687179E-006  0.1913926E+03  0.7561462E-02  0.1157211E+00
         -1   -1    0    0    0  501 -0.00000000000E+00  0.00000000000E+00  0.72588964528E+02  0.72588964528E+02  0.00000000000E+00 0.  1.
          1   -1    0    0  501    0  0.00000000000E+00 -0.00000000000E+00 -0.58330190818E+03  0.58330190818E+03  0.00000000000E+00 0. -1.
         23    2    1    2    0    0 -0.84768046248E+02  0.14703545820E+03 -0.31032251441E+03  0.36502641908E+03  0.90217382150E+02 0.  0.
          5    1    1    2  502    0  0.10970970023E+03 -0.14420050786E+03 -0.19209553245E+03  0.26409878981E+03  0.41800000000E+01 0.  1.
         -5    1    1    2    0  502 -0.24941653984E+02 -0.28349503443E+01 -0.82948967932E+01  0.26765663820E+02  0.41800000000E+01 0.  1.
        -11    1    3    3    0    0 -0.40136110944E+02  0.11315953329E+03 -0.13355558532E+03  0.17959143005E+03  0.00000000000E+00 0.  1.
         11    1    3    3    0    0 -0.44631935304E+02  0.33875924913E+02 -0.17676692908E+03  0.18543498903E+03  0.00000000000E+00 0. -1.
</event>
<event>
 7    1  0.6963797E-006  0.1411435E+03  0.7561462E-02  0.1211799E+00
         -4   -1    0    0    0  501 -0.00000000000E+00  0.00000000000E+00  0.14258872316E+04  0.14258872316E+04  0.00000000000E+00 0.  1.
          4   -1    0    0  501    0  0.00000000000E+00 -0.00000000000E+00 -0.20249479880E+02  0.20249479880E+02  0.00000000000E+00 0. -1.
         23    2    1    2    0    0  0.11202307963E+03 -0.31886129834E+02  0.42818894420E+03  0.45385655467E+03  0.95258094870E+02 0.  0.
          5    1    1    2  502    0 -0.12309153144E+03  0.22461414725E+02  0.96382827276E+03  0.97192512676E+03  0.41800000000E+01 0. -1.
         -5    1    1    2    0  502  0.11068451816E+02  0.94247151090E+01  0.13620534724E+02  0.20355030009E+02  0.41800000000E+01 0. -1.
        -11    1    3    3    0    0  0.76383416631E+02  0.20056653054E+02  0.31030972391E+03  0.32020121864E+03  0.00000000000E+00 0. -1.
         11    1    3    3    0    0  0.35639662995E+02 -0.51942782888E+02  0.11787922030E+03  0.13365533603E+03  0.00000000000E+00 0.  1.
</event>
<event>
 7    1  0.4687179E-006  0.1882854E+03  0.7561462E-02  0.1160017E+00
          1   -1    0    0  501    0  0.00000000000E+00  0.00000000000E+00  0.94826000392E+02  0.94826000392E+02  0.00000000000E+00 0. -1.
         -1   -1    0    0    0  501 -0.00000000000E+00 -0.00000000000E+00 -0.50065418201E+03  0.50065418201E+03  0.00000000000E+00 0.  1.
         23    2    1    2    0    0 -0.87621594858E+02 -0.15390786320E+03 -0.10678952648E+03  0.22610668139E+03  0.91405985392E+02 0.  0.
          5    1    1    2  502    0  0.37541768950E+02  0.90016008887E+02 -0.26285422274E+03  0.28039629292E+03  0.41800000000E+01 0. -1.
         -5    1    1    2    0  502  0.50079825908E+02  0.63891854313E+02 -0.36184432397E+02  0.88977208084E+02  0.41800000000E+01 0. -1.
        -11    1    3    3    0    0 -0.50216168400E+02 -0.12995439145E+02 -0.15687326866E+02  0.54190748579E+02  0.00000000000E+00 0.  1.
         11    1    3    3    0    0 -0.37405426458E+02 -0.14091242405E+03 -0.91102199612E+02  0.17191593281E+03  0.00000000000E+00 0. -1.
</event>
<event>
 7    1  0.4687179E-006  0.1170819E+03  0.7561462E-02  0.1247990E+00
          3   -1    0    0  501    0  0.00000000000E+00  0.00000000000E+00  0.45577612554E+02  0.45577612554E+02  0.00000000000E+00 0.  1.
         -3   -1    0    0    0  501 -0.00000000000E+00 -0.00000000000E+00 -0.41034512003E+03  0.41034512003E+03  0.00000000000E+00 0. -1.
         23    2    1    2    0    0 -0.66222248090E+02 -0.19853137400E+02 -0.87397043808E+02  0.14389459026E+03  0.91037775864E+02 0.  0.
          5    1    1    2  502    0 -0.57783331512E+01  0.54571100092E+02 -0.65558137276E+02  0.85596354258E+02  0.41800000000E+01 0.  1.
         -5    1    1    2    0  502  0.72000581241E+02 -0.34717962692E+02 -0.21181232639E+03  0.22643178806E+03  0.41800000000E+01 0.  1.
        -11    1    3    3    0    0 -0.57446347296E+02 -0.44665252850E+02 -0.26306965117E+02  0.77376508344E+02  0.00000000000E+00 0.  1.
         11    1    3    3    0    0 -0.87759007938E+01  0.24812115450E+02 -0.61090078691E+02  0.66518081920E+02  0.00000000000E+00 0. -1.
</event>
<event>
 7    1  0.4687179E-006  0.1065031E+03  0.7561462E-02  0.1267186E+00
         -1   -1    0    0    0  501 -0.00000000000E+00  0.00000000000E+00  0.36578448895E+03  0.36578448895E+03  0.00000000000E+00 0.  1.
          1   -1    0    0  501    0  0.00000000000E+00 -0.00000000000E+00 -0.57480753563E+02  0.57480753563E+02  0.00000000000E+00 0. -1.
         23    2    1    2    0    0 -0.25593479517E+02 -0.38899490119E+02  0.17250095726E+02  0.10306830787E+03  0.90317848506E+02 0.  0.
          5    1    1    2  502    0  0.46584375897E+02 -0.24715641024E+02  0.20122516978E+03  0.20806251066E+03  0.41800000000E+01 0. -1.
         -5    1    1    2    0  502 -0.20990896380E+02  0.63615131143E+02  0.89828469873E+02  0.11213442398E+03  0.41800000000E+01 0. -1.
        -11    1    3    3    0    0 -0.50552817898E+02 -0.44566131885E+02 -0.70695810438E+01  0.67762131643E+02  0.00000000000E+00 0. -1.
         11    1    3    3    0    0  0.24959338381E+02  0.56666417662E+01  0.24319676770E+02  0.35306176224E+02  0.00000000000E+00 0.  1.
</event>
<event>
 7    1  0.4687179E-006  0.1337981E+03  0.7561462E-02  0.1221926E+00
         -1   -1    0    0    0  501 -0.00000000000E+00  0.00000000000E+00  0.14685128545E+04  0.14685128545E+04  0.00000000000E+00 0.  1.
          1   -1    0    0  501    0  0.00000000000E+00 -0.00000000000E+00 -0.20376974013E+02  0.20376974013E+02  0.00000000000E+00 0. -1.
         23    2    1    2    0    0  0.45846878569E+02 -0.58502129756E+02  0.22232500042E+03  0.25447367744E+03  0.99015207091E+02 0.  0.
          5    1    1    2  502    0  0.43461837801E+02  0.21011540720E+02  0.43018226387E+03  0.43290260883E+03  0.41800000000E+01 0. -1.
         -5    1    1    2    0  502 -0.89308716370E+02  0.37490589035E+02  0.79562861618E+03  0.80151354223E+03  0.41800000000E+01 0. -1.
        -11    1    3    3    0    0 -0.26578897225E+02  0.35560623490E+01  0.67467805957E+02  0.72601571593E+02  0.00000000000E+00 0.  1.
         11    1    3    3    0    0  0.72425775794E+02 -0.62058192105E+02  0.15485719446E+03  0.18187210584E+03  0.00000000000E+00 0. -1.
</event>
<event>
 7    1  0.4687179E-006  0.1052995E+03  0.7561462E-02  0.1269531E+00
          2   -1    0    0  501    0  0.00000000000E+00  0.00000000000E+00  0.23741128569E+03  0.23741128569E+03  0.00000000000E+00 0. -1.
         -2   -1    0    0    0  501 -0.00000000000E+00 -0.00000000000E+00 -0.14215432475E+03  0.14215432475E+03  0.00000000000E+00 0.  1.
         23    2    1    2    0    0 -0.36733355940E+02 -0.56780760012E+02  0.18177400417E+03  0.21311924140E+03  0.88343807461E+02 0.  0.
          5    1    1    2  502    0 -0.25943843168E+02  0.72752719078E+01 -0.81915858791E+02  0.86334772259E+02  0.41800000000E+01 0. -1.
         -5    1    1    2    0  502  0.62677199108E+02  0.49505488104E+02 -0.46011844436E+01  0.80111596780E+02  0.41800000000E+01 0. -1.
        -11    1    3    3    0    0  0.49575933056E+01 -0.61225157109E+02  0.66847745906E+02  0.90783912271E+02  0.00000000000E+00 0.  1.
         11    1    3    3    0    0 -0.41690949245E+02  0.44443970975E+01  0.11492625827E+03  0.12233532913E+03  0.00000000000E+00 0. -1.
</event>
<event>
 7    1  0.4687179E-006  0.1240079E+03  0.7561462E-02  0.1236628E+00
         -1   -1    0    0    0  501 -0.00000000000E+00  0.00000000000E+00  0.28471791712E+02  0.28471791712E+02  0.00000000000E+00 0.  1.
          1   -1    0    0  501    0  0.00000000000E+00 -0.00000000000E+00 -0.64078049061E+03  0.64078049061E+03  0.00000000000E+00 0. -1.
         23    2    1    2    0    0 -0.42982827626E+02  0.53351636827E+02 -0.37756472779E+03  0.39457510244E+03  0.91872015160E+02 0.  0.
          5    1    1    2  502    0 -0.10084968480E+02  0.36537780869E+02 -0.60496557634E+02  0.71512389875E+02  0.41800000000E+01 0.  1.
         -5    1    1    2    0  502  0.53067796106E+02 -0.89889417696E+02 -0.17424741347E+03  0.20316479000E+03  0.41800000000E+01 0.  1.
        -11    1    3    3    0    0  0.17247168441E+02  0.40228512635E+02 -0.85232007919E+02  0.95813846713E+02  0.00000000000E+00 0.  1.
         11    1    3    3    0    0 -0.60229996067E+02  0.13123124193E+02 -0.29233271987E+03  0.29876125573E+03  0.00000000000E+00 0. -1.
</event>
<event>
 7    1  0.4687179E-006  0.6049158E+02  0.7561462E-02  0.1395780E+00
          2   -1    0    0  501    0  0.00000000000E+00  0.00000000000E+00  0.11093389707E+03  0.11093389707E+03  0.00000000000E+00 0. -1.
         -2   -1    0    0    0  501 -0.00000000000E+00 -0.00000000000E+00 -0.28823417639E+03  0.28823417639E+03  0.00000000000E+00 0.  1.
         23    2    1    2    0    0  0.96376002798E+01  0.43978076299E+01  0.73570559640E+02  0.11864200756E+03  0.92472020967E+02 0.  0.
          5    1    1    2  502    0 -0.22123009948E+02  0.49597866727E+01  0.54557430968E+01  0.23691023315E+02  0.41800000000E+01 0. -1.
         -5    1    1    2    0  502  0.12485409668E+02 -0.93575943026E+01 -0.25632658206E+03  0.25683504258E+03  0.41800000000E+01 0. -1.
        -11    1    3    3    0    0 -0.32089699555E+01  0.41957426286E+02  0.92913874050E+01  0.43093537667E+02  0.00000000000E+00 0.  1.
         11    1    3    3    0    0  0.12846570235E+02 -0.37559618656E+02  0.64279172235E+02  0.75548469896E+02  0.00000000000E+00 0. -1.
</event>
<event>
 7    1  0.4687179E-006  0.1919856E+03  0.7561462E-02  0.1156683E+00
          1   -1    0    0  501    0  0.00000000000E+00  0.00000000000E+00  0.20982185772E+03  0.20982185772E+03  0.00000000000E+00 0. -1.
         -1   -1    0    0    0  501 -0.00000000000E+00 -0.00000000000E+00 -0.30712057928E+03  0.30712057928E+03  0.00000000000E+00 0.  1.
         23    2    1    2    0    0  0.16851332169E+03  0.37858287409E+02  0.10726098107E+03  0.22143831997E+03  0.87749769114E+02 0.  0.
          5    1    1    2  502    0 -0.62088866449E+02  0.44286002513E+02 -0.95859800975E+02  0.12256774126E+03  0.41800000000E+01 0. -1.
         -5    1    1    2    0  502 -0.10642445524E+03 -0.82144289922E+02 -0.10869990166E+03  0.17293637576E+03  0.41800000000E+01 0. -1.
        -11    1    3    3    0    0  0.15814913235E+02  0.70394011685E+01  0.54159807764E+02  0.56859031178E+02  0.00000000000E+00 0. -1.
         11    1    3    3    0    0  0.15269840846E+03  0.30818886241E+02  0.53101173307E+02  0.16457928880E+03  0.00000000000E+00 0.  1.
</event>
<event>
 7    1  0.4687179E-006  0.1105078E+03  0.7561462E-02  0.1259632E+00
          1   -1    0    0  501    0  0.00000000000E+00  0.00000000000E+00  0.88614254721E+03  0.88614254721E+03  0.00000000000E+00 0. -1.
         -1   -1    0    0    0  501 -0.00000000000E+00 -0.00000000000E+00 -0.14133119073E+02  0.14133119073E+02  0.00000000000E+00 0.  1.
         23    2    1    2    0    0 -0.28962144651E+01  0.27993780456E+02  0.37748207567E+03  0.38939411217E+03  0.91340119015E+02 0.  0.
          5    1    1    2  502    0  0.47103076749E+02 -0.56867406942E+02  0.32316613897E+03  0.33152138331E+03  0.41800000000E+01 0. -1.
         -5    1    1    2    0  502 -0.44206862284E+02  0.28873626486E+02  0.17136121350E+03  0.17936017080E+03  0.41800000000E+01 0. -1.
        -11    1    3    3    0    0  0.42385785650E+02  0.23807902690E+02  0.16064188546E+03  0.16783678506E+03  0.00000000000E+00 0.  1.
         11    1    3    3    0    0 -0.45282000116E+02  0.41858777668E+01  0.21684019021E+03  0.22155732711E+03  0.00000000000E+00 0. -1.
</event>
<event>
 7    1  0.4687179E-006  0.1060665E+03  0.7561462E-02  0.1268033E+00
         -2   -1    0    0    0  501 -0.00000000000E+00  0.00000000000E+00  0.14866606638E+03  0.14866606638E+03  0.00000000000E+00 0.  1.
          2   -1    0    0  501    0  0.00000000000E+00 -0.00000000000E+00 -0.10058808130E+03  0.10058808130E+03  0.00000000000E+00 0. -1.
         23    2    1    2    0    0  0.34795408992E+02 -0.24164131406E+02 -0.75109893573E+01  0.10596344859E+03  0.96836004369E+02 0.  0.
          5    1    1    2  502    0 -0.52634103939E+02  0.52688081238E+02  0.73695894354E+02  0.10485675966E+03  0.41800000000E+01 0. -1.
         -5    1    1    2    0  502  0.17838694948E+02 -0.28523949832E+02 -0.18106919916E+02  0.38433939432E+02  0.41800000000E+01 0. -1.
        -11    1    3    3    0    0  0.79395145051E+01  0.36470312564E+02  0.72565212968E+01  0.38023370319E+02  0.00000000000E+00 0.  1.
         11    1    3    3    0    0  0.26855894487E+02 -0.60634443971E+02 -0.14767510654E+02  0.67940078269E+02  0.00000000000E+00 0. -1.
</event>
<event>
 7    1  0.4687179E-006  0.1567829E+03  0.7561462E-02  0.1192377E+00
         -2   -1    0    0    0  501 -0.00000000000E+00  0.00000000000E+00  0.62710301313E+03  0.62710301313E+03  0.00000000000E+00 0. -1.
          2   -1    0    0  501    0  0.00000000000E+00 -0.00000000000E+00 -0.50556103356E+02  0.50556103356E+02  0.00000000000E+00 0.  1.
         23    2    1    2    0    0  0.50250181272E+02 -0.12463653105E+03  0.18633883711E+03  0.24641728430E+03  0.89106510410E+02 0.  0.
          5    1    1    2  502    0 -0.25962141481E+01  0.10535343382E+03  0.13732339972E+03  0.17315101748E+03  0.41800000000E+01 0. -1.
         -5    1    1    2    0  502 -0.47653967124E+02  0.19283097226E+02  0.25288467294E+03  0.25809081470E+03  0.41800000000E+01 0. -1.
        -11    1    3    3    0    0  0.69968908819E+00 -0.10207127150E+03  0.91602964847E+02  0.13715005359E+03  0.00000000000E+00 0. -1.
         11    1    3    3    0    0  0.49550492184E+02 -0.22565259546E+02  0.94735872263E+02  0.10926723071E+03  0.00000000000E+00 0.  1.
</event>
<event>
 7    1  0.4687179E-006  0.9532576E+02  0.7561462E-02  0.1290444E+00
          2   -1    0    0  501    0  0.00000000000E+00  0.00000000000E+00  0.58552468847E+02  0.58552468847E+02  0.00000000000E+00 0. -1.
         -2   -1    0    0    0  501 -0.00000000000E+00 -0.00000000000E+00 -0.21987839583E+03  0.21987839583E+03  0.00000000000E+00 0.  1.
         23    2    1    2    0    0 -0.11716037905E+02 -0.96955255933E+01 -0.16013449843E+02  0.86091338426E+02  0.83210691713E+02 0.  0.
          5    1    1    2  502    0 -0.24606215134E+01  0.56949154389E+02 -0.12749475654E+03  0.13971988473E+03  0.41800000000E+01 0.  1.
         -5    1    1    2    0  502  0.14176659418E+02 -0.47253628796E+02 -0.17817720601E+02  0.52619641523E+02  0.41800000000E+01 0.  1.
        -11    1    3    3    0    0 -0.25186266683E+02 -0.42006572902E+02 -0.42557767186E+01  0.49163114547E+02  0.00000000000E+00 0.  1.
         11    1    3    3    0    0  0.13470228778E+02  0.32311047309E+02 -0.11757673125E+02  0.36928223879E+02  0.00000000000E+00 0. -1.
</event>
<event>
 7    1  0.4687179E-006  0.1645414E+03  0.7561462E-02  0.1183663E+00
          2   -1    0    0  501    0  0.00000000000E+00  0.00000000000E+00  0.28531570054E+03  0.28531570054E+03  0.00000000000E+00 0. -1.
         -2   -1    0    0    0  501 -0.00000000000E+00 -0.00000000000E+00 -0.13993426715E+03  0.13993426715E+03  0.00000000000E+00 0.  1.
         23    2    1    2    0    0 -0.11949515685E+03 -0.51702429170E+02  0.18031627996E+03  0.24134424519E+03  0.93706190705E+02 0.  0.
          5    1    1    2  502    0  0.10035221135E+03 -0.22713076278E+02 -0.27570101452E+02  0.10660221879E+03  0.41800000000E+01 0. -1.
         -5    1    1    2    0  502  0.19142945499E+02  0.74415505448E+02 -0.73647451194E+01  0.77303503699E+02  0.41800000000E+01 0. -1.
        -11    1    3    3    0    0 -0.63990110822E+02  0.11527112336E+02  0.36072674138E+02  0.74356213064E+02  0.00000000000E+00 0.  1.
         11    1    3    3    0    0 -0.55505046029E+02 -0.63229541506E+02  0.14424360582E+03  0.16698803213E+03  0.00000000000E+00 0. -1.
</event>
<event>
 7    1  0.4687179E-006  0.9510540E+02  0.7561462E-02  0.1290939E+00
         -2   -1    0    0    0  501 -0.00000000000E+00  0.00000000000E+00  0.39561723459E+03  0.39561723459E+03  0.00000000000E+00 0. -1.
          2   -1    0    0  501    0  0.00000000000E+00 -0.00000000000E+00 -0.31270883359E+02  0.31270883359E+02  0.00000000000E+00 0.  1.
         23    2    1    2    0    0 -0.14587207037E+02  0.17222135164E+02  0.13647127318E+03  0.16595957147E+03  0.91699413355E+02 0.  0.
          5    1    1    2  502    0 -0.45588109975E+02 -0.11784786464E+01  0.33395251962E+02  0.56677860198E+02  0.41800000000E+01 0.  1.
         -5    1    1    2    0  502  0.60175317012E+02 -0.16043656518E+02  0.19447982609E+03  0.20425068629E+03  0.41800000000E+01 0.  1.
        -11    1    3    3    0    0  0.23013413215E+02  0.33812245082E+02  0.10927321005E+03  0.11667698805E+03  0.00000000000E+00 0. -1.
         11    1    3    3    0    0 -0.37600620252E+02 -0.16590109918E+02  0.27198063128E+02  0.49282583418E+02  0.00000000000E+00 0.  1.
</event>
<event>
 7    1  0.4687179E-006  0.2221222E+03  0.7561462E-02  0.1132311E+00
         -2   -1    0    0    0  501 -0.00000000000E+00  0.00000000000E+00  0.26201986565E+03  0.26201986565E+03  0.00000000000E+00 0.  1.
          2   -1    0    0  501    0  0.00000000000E+00 -0.00000000000E+00 -0.29316842871E+03  0.29316842871E+03  0.00000000000E+00 0. -1.
         23    2    1    2    0    0  0.17455256864E+03  0.12203740656E+03 -0.15407440153E+03  0.27928778715E+03  0.94345212003E+02 0.  0.
          5    1    1    2  502    0 -0.16453348028E+03 -0.13555762335E+03  0.76817478448E+02  0.22663965402E+03  0.41800000000E+01 0. -1.
         -5    1    1    2    0  502 -0.10019088365E+02  0.13520216789E+02  0.46108360019E+02  0.49260853193E+02  0.41800000000E+01 0. -1.
        -11    1    3    3    0    0  0.80167509733E+02  0.66572114684E+02 -0.13102769049E+03  0.16741245995E+03  0.00000000000E+00 0. -1.
         11    1    3    3    0    0  0.94385058909E+02  0.55465291874E+02 -0.23046711037E+02  0.11187532721E+03  0.00000000000E+00 0.  1.
</event>
<event>
 7    1  0.4687179E-006  0.1562196E+03  0.7561462E-02  0.1193032E+00
          3   -1    0    0  501    0  0.00000000000E+00  0.00000000000E+00  0.15636747121E+03  0.15636747121E+03  0.00000000000E+00 0. -1.
         -3   -1    0    0    0  501 -0.00000000000E+00 -0.00000000000E+00 -0.32788577126E+03  0.32788577126E+03  0.00000000000E+00 0.  1.
         23    2    1    2    0    0  0.40676696702E+02  0.14381552236E+03  0.56843795359E+02  0.18402956618E+03  0.91094270038E+02 0.  0.
          5    1    1    2  502    0 -0.15490471381E+02 -0.92856738448E+01  0.13057284981E+02  0.22674733371E+02  0.41800000000E+01 0. -1.
         -5    1    1    2    0  502 -0.25186225320E+02 -0.13452984851E+03 -0.24141938038E+03  0.27754894291E+03  0.41800000000E+01 0. -1.
        -11    1    3    3    0    0  0.28353454110E+02  0.14164808777E+03  0.74383795760E+02  0.16248399368E+03  0.00000000000E+00 0. -1.
         11    1    3    3    0    0  0.12323242591E+02  0.21674345862E+01 -0.17540000401E+02  0.21545572509E+02  0.00000000000E+00 0.  1.
</event>
<event>
 7    1  0.4687179E-006  0.1346656E+03  0.7561462E-02  0.1220693E+00
          1   -1    0    0  501    0  0.00000000000E+00  0.00000000000E+00  0.98200895479E+03  0.98200895479E+03  0.00000000000E+00 0. -1.
         -1   -1    0    0    0  501 -0.00000000000E+00 -0.00000000000E+00 -0.20135900665E+02  0.20135900665E+02  0.00000000000E+00 0.  1.
         23    2    1    2    0    0  0.12148223396E+02  0.22960182310E+02  0.45328975437E+03  0.46312765210E+03  0.91328371390E+02 0.  0.
          5    1    1    2  502    0 -0.92121422061E+02 -0.30641815222E+02  0.25058778898E+03  0.26876939860E+03  0.41800000000E+01 0. -1.
         -5    1    1    2    0  502  0.79973198665E+02  0.76816329117E+01  0.25799551078E+03  0.27024780475E+03  0.41800000000E+01 0.  1.
        -11    1    3    3    0    0  0.27030138260E+02  0.52264692438E+02  0.34424152992E+03  0.34923410110E+03  0.00000000000E+00 0. -1.
         11    1    3    3    0    0 -0.14881914864E+02 -0.29304510128E+02  0.10904822445E+03  0.11389355100E+03  0.00000000000E+00 0.  1.
</event>
<event>
 7    1  0.4687179E-006  0.1200810E+03  0.7561462E-02  0.1242964E+00
          2   -1    0    0  501    0  0.00000000000E+00  0.00000000000E+00  0.67154223275E+03  0.67154223275E+03  0.00000000000E+00 0. -1.
         -2   -1    0    0    0  501 -0.00000000000E+00 -0.00000000000E+00 -0.22180245414E+02  0.22180245414E+02  0.00000000000E+00 0.  1.
         23    2    1    2    0    0 -0.69233666702E+02 -0.10364187318E+02  0.28383109226E+03  0.30108879021E+03  0.72067008210E+02 0.  0.
          5    1    1    2  502    0  0.71363185120E+02  0.57868957879E+02  0.27954048987E+03  0.29428197082E+03  0.41800000000E+01 0. -1.
         -5    1    1    2    0  502 -0.21295184181E+01 -0.47504770561E+02  0.85990405204E+02  0.98351717127E+02  0.41800000000E+01 0. -1.
        -11    1    3    3    0    0  0.10379764015E+02 -0.17682854229E+02  0.60223354620E+02  0.63618199254E+02  0.00000000000E+00 0. -1.
         11    1    3    3    0    0 -0.79613430717E+02  0.73186669116E+01  0.22360773764E+03  0.23747059096E+03  0.00000000000E+00 0.  1.
</event>
<event>
 7    1  0.4687179E-006  0.9184503E+02  0.7561462E-02  0.1298444E+00
          2   -1    0    0  501    0  0.00000000000E+00  0.00000000000E+00  0.61687166596E+02  0.61687166596E+02  0.00000000000E+00 0.  1.
         -2   -1    0    0    0  501 -0.00000000000E+00 -0.00000000000E+00 -0.19217103209E+03  0.19217103209E+03  0.00000000000E+00 0. -1.
         23    2    1    2    0    0  0.16203388913E+02  0.19276209037E+01 -0.50014355031E+02  0.10421954756E+03  0.89966731908E+02 0.  0.
          5    1    1    2  502    0 -0.55150408726E+02  0.88724711135E+01  0.37382872899E+01  0.56140319898E+02  0.41800000000E+01 0. -1.
         -5    1    1    2    0  502  0.38947019813E+02 -0.10800092017E+02 -0.84207797755E+02  0.93498331229E+02  0.41800000000E+01 0. -1.
        -11    1    3    3    0    0 -0.17626626654E+02  0.35341014436E+02 -0.38804768783E+02  0.55366915652E+02  0.00000000000E+00 0.  1.
         11    1    3    3    0    0  0.33830015567E+02 -0.33413393532E+02 -0.11209586248E+02  0.48852631909E+02  0.00000000000E+00 0. -1.
</event>
<event>
 7    1  0.4687179E-006  0.9245832E+02  0.7561462E-02  0.1297005E+00
          2   -1    0    0  501    0  0.00000000000E+00  0.00000000000E+00  0.28880852653E+03  0.28880852653E+03  0.00000000000E+00 0. -1.
         -2   -1    0    0    0  501 -0.00000000000E+00 -0.00000000000E+00 -0.13640763943E+03  0.13640763943E+03  0.00000000000E+00 0.  1.
         23    2    1    2    0    0 -0.88667245570E+01 -0.42201708707E+02  0.24397411519E+03  0.26430418347E+03  0.92052862516E+02 0.  0.
          5    1    1    2  502    0  0.55248265141E+02 -0.16184018451E+01 -0.84989855702E+01  0.56077581807E+02  0.41800000000E+01 0.  1.
         -5    1    1    2    0  502 -0.46381540584E+02  0.43820110553E+02 -0.83074242521E+02  0.10483440068E+03  0.41800000000E+01 0.  1.
        -11    1    3    3    0    0  0.20558032368E+02 -0.14768625351E+02  0.10524516283E+02  0.27413690605E+02  0.00000000000E+00 0.  1.
         11    1    3    3    0    0 -0.29424756925E+02 -0.27433083356E+02  0.23344959890E+03  0.23689049287E+03  0.00000000000E+00 0. -1.
</event>
<event>
 7    1  0.4687179E-006  0.1074865E+03  0.7561462E-02  0.1265297E+00
          1   -1    0    0  501    0  0.00000000000E+00  0.00000000000E+00  0.78863262905E+02  0.78863262905E+02  0.00000000000E+00 0. -1.
         -1   -1    0    0    0  501 -0.00000000000E+00 -0.00000000000E+00 -0.18912292657E+03  0.18912292657E+03  0.00000000000E+00 0.  1.
         23    2    1    2    0    0 -0.73671409022E+01 -0.14855636486E+02  0.93891487085E+01  0.94091233307E+02  0.92141409645E+02 0.  0.
          5    1    1    2  502    0 -0.52082329307E+02 -0.15462996904E+02 -0.30462320340E+02  0.62426746350E+02  0.41800000000E+01 0. -1.
         -5    1    1    2    0  502  0.59449470209E+02  0.30318633390E+02 -0.89186492034E+02  0.11146820982E+03  0.41800000000E+01 0. -1.
        -11    1    3    3    0    0  0.24511192327E+02 -0.44037797287E+02  0.54646611395E+01  0.50695055582E+02  0.00000000000E+00 0. -1.
         11    1    3    3    0    0 -0.31878333229E+02  0.29182160801E+02  0.39244875690E+01  0.43396177725E+02  0.00000000000E+00 0.  1.
</event>
<event>
 7    1  0.4687179E-006  0.1084603E+03  0.7561462E-02  0.1263448E+00
          2   -1    0    0  501    0  0.00000000000E+00  0.00000000000E+00  0.14608808490E+02  0.14608808490E+02  0.00000000000E+00 0.  1.
         -2   -1    0    0    0  501 -0.00000000000E+00 -0.00000000000E+00 -0.10743295974E+04  0.10743295974E+04  0.00000000000E+00 0. -1.
         23    2    1    2    0    0 -0.30627159895E+02 -0.13833237458E+02 -0.23353617243E+03  0.25266189062E+03  0.90385318271E+02 0.  0.
          5    1    1    2  502    0 -0.44966913414E+02  0.85483343777E+01 -0.18536507792E+03  0.19097848527E+03  0.41800000000E+01 0.  1.
         -5    1    1    2    0  502  0.75594073309E+02  0.52849030805E+01 -0.64081953859E+03  0.64529803003E+03  0.41800000000E+01 0.  1.
        -11    1    3    3    0    0  0.31233083836E+02  0.17136828581E+01 -0.97920381762E+02  0.10279515261E+03  0.00000000000E+00 0.  1.
         11    1    3    3    0    0 -0.61860243731E+02 -0.15546920316E+02 -0.13561579066E+03  0.14986673802E+03  0.00000000000E+00 0. -1.
</event>
<event>
 7    1  0.4687179E-006  0.1263938E+03  0.7561462E-02  0.1232907E+00
          2   -1    0    0  501    0  0.00000000000E+00  0.00000000000E+00  0.54607811508E+03  0.54607811508E+03  0.00000000000E+00 0. -1.
         -2   -1    0    0    0  501 -0.00000000000E+00 -0.00000000000E+00 -0.33723575404E+02  0.33723575404E+02  0.00000000000E+00 0.  1.
         23    2    1    2    0    0  0.64325813731E+02  0.24603897465E+02  0.29062321397E+03  0.31002952110E+03  0.83146192783E+02 0.  0.
          5    1    1    2  502    0  0.33871796892E+02 -0.37757537572E+02  0.10443061083E+03  0.11617295359E+03  0.41800000000E+01 0. -1.
         -5    1    1    2    0  502 -0.98197610623E+02  0.13153640107E+02  0.11730071488E+03  0.15359921579E+03  0.41800000000E+01 0.  1.
        -11    1    3    3    0    0 -0.17568837180E+02  0.14745665897E+01  0.96141791201E+02  0.97744986582E+02  0.00000000000E+00 0.  1.
         11    1    3    3    0    0  0.81894650911E+02  0.23129330876E+02  0.19448142276E+03  0.21228453452E+03  0.00000000000E+00 0. -1.
</event>
<event>
 7    1  0.4687179E-006  0.1042171E+03  0.7561462E-02  0.1271670E+00
         -2   -1    0    0    0  501 -0.00000000000E+00  0.00000000000E+00  0.82168515869E+02  0.82168515869E+02  0.00000000000E+00 0.  1.
          2   -1    0    0  501    0  0.00000000000E+00 -0.00000000000E+00 -0.19162061279E+03  0.19162061279E+03  0.00000000000E+00 0. -1.
         23    2    1    2    0    0 -0.41920503655E+02  0.38558805157E+02 -0.77503629724E+02  0.13267687357E+03  0.91390536044E+02 0.  0.
          5    1    1    2  502    0  0.79814017009E+02 -0.11148496174E+02 -0.44975598100E+02  0.92384214574E+02  0.41800000000E+01 0. -1.
         -5    1    1    2    0  502 -0.37893513354E+02 -0.27410308983E+02  0.13027130903E+02  0.48728040515E+02  0.41800000000E+01 0. -1.
        -11    1    3    3    0    0 -0.31985568135E+01 -0.14639010191E+02  0.13641098234E+02  0.20263537354E+02  0.00000000000E+00 0.  1.
         11    1    3    3    0    0 -0.38721946841E+02  0.53197815347E+02 -0.91144727958E+02  0.11241333622E+03  0.00000000000E+00 0. -1.
</event>
<event>
 7    1  0.4687179E-006  0.1362518E+03  0.7561462E-02  0.1218463E+00
         -2   -1    0    0    0  501 -0.00000000000E+00  0.00000000000E+00  0.50061318541E+02  0.50061318541E+02  0.00000000000E+00 0.  1.
          2   -1    0    0  501    0  0.00000000000E+00 -0.00000000000E+00 -0.43008118466E+03  0.43008118466E+03  0.00000000000E+00 0. -1.
         23    2    1    2    0    0 -0.87988839273E+02  0.20770471032E+02 -0.23432628113E+03  0.26789950706E+03  0.93208859823E+02 0.  0.
          5    1    1    2  502    0  0.62103644810E+02 -0.72583669378E+02 -0.81048333919E+02  0.12534574819E+03  0.41800000000E+01 0.  1.
         -5    1    1    2    0  502  0.25885194463E+02  0.51813198347E+02 -0.64645251063E+02  0.86897247944E+02  0.41800000000E+01 0.  1.
        -11    1    3    3    0    0 -0.62524779701E+02 -0.24274616712E+02 -0.18347726459E+03  0.19535227594E+03  0.00000000000E+00 0.  1.
         11    1    3    3    0    0 -0.25464059572E+02  0.45045087744E+02 -0.50849016542E+02  0.72547231119E+02  0.00000000000E+00 0. -1.
</event>
<event>
 7    1  0.4687179E-006  0.1748865E+03  0.7561462E-02  0.1172846E+00
          2   -1    0    0  501    0  0.00000000000E+00  0.00000000000E+00  0.74485635065E+03  0.74485635065E+03  0.00000000000E+00 0. -1.
         -2   -1    0    0    0  501 -0.00000000000E+00 -0.00000000000E+00 -0.68480915736E+02  0.68480915736E+02  0.00000000000E+00 0.  1.
         23    2    1    2    0    0  0.15036040995E+03  0.72908110169E+02  0.51587935466E+03  0.55003069836E+03  0.92078310004E+02 0.  0.
          5    1    1    2  502    0 -0.12105329526E+03 -0.63070224110E+02  0.18043186973E+03  0.22628496521E+03  0.41800000000E+01 0. -1.
         -5    1    1    2    0  502 -0.29307114686E+02 -0.98378860588E+01 -0.19935789473E+02  0.37021602819E+02  0.41800000000E+01 0. -1.
        -11    1    3    3    0    0  0.11285995823E+03  0.86428268788E+02  0.32025637824E+03  0.35038744787E+03  0.00000000000E+00 0.  1.
         11    1    3    3    0    0  0.37500451721E+02 -0.13520158619E+02  0.19562297641E+03  0.19964325050E+03  0.00000000000E+00 0. -1.
</event>
<event>
 7    1  0.4687179E-006  0.1078583E+03  0.7561462E-02  0.1264588E+00
         -2   -1    0    0    0  501 -0.00000000000E+00  0.00000000000E+00  0.10931221270E+03  0.10931221270E+03  0.00000000000E+00 0.  1.
          2   -1    0    0  501    0  0.00000000000E+00 -0.00000000000E+00 -0.12078064173E+03  0.12078064173E+03  0.00000000000E+00 0. -1.
         23    2    1    2    0    0 -0.12885313767E+01  0.31345418851E+02 -0.29758132197E+02  0.99863078036E+02  0.90016067049E+02 0.  0.
          5    1    1    2  502    0 -0.12361612140E+02 -0.74776591472E+02 -0.98550349806E+01  0.76543727381E+02  0.41800000000E+01 0.  1.
         -5    1    1    2    0  502  0.13650143517E+02  0.43431172621E+02  0.28144738149E+02  0.53686049014E+02  0.41800000000E+01 0.  1.
        -11    1    3    3    0    0  0.38344044079E+02 -0.69641637395E+01 -0.45000780002E+01  0.39230294352E+02  0.00000000000E+00 0. -1.
         11    1    3    3    0    0 -0.39632575455E+02  0.38309582591E+02 -0.25258054197E+02  0.60632783684E+02  0.00000000000E+00 0.  1.
</event>
<event>
 7    1  0.4687179E-006  0.1645610E+03  0.7561462E-02  0.1183642E+00
          1   -1    0    0  501    0  0.00000000000E+00  0.00000000000E+00  0.32900063158E+03  0.32900063158E+03  0.00000000000E+00 0. -1.
         -1   -1    0    0    0  501 -0.00000000000E+00 -0.00000000000E+00 -0.95348528726E+02  0.95348528726E+02  0.00000000000E+00 0.  1.
         23    2    1    2    0    0  0.28135231638E+02 -0.13520603540E+03  0.12518879156E+03  0.20874874074E+03  0.93976273392E+02 0.  0.
          5    1    1    2  502    0  0.33156398975E+02  0.35287127188E+00  0.26758987736E+01  0.33527662391E+02  0.41800000000E+01 0. -1.
         -5    1    1    2    0  502 -0.61291630613E+02  0.13485316413E+03  0.10578741252E+03  0.18207275718E+03  0.41800000000E+01 0. -1.
        -11    1    3    3    0    0  0.20212017755E+02 -0.10915766657E+02 -0.98968786482E+01  0.25012553456E+02  0.00000000000E+00 0.  1.
         11    1    3    3    0    0  0.79232138833E+01 -0.12429026874E+03  0.13508567020E+03  0.18373618728E+03  0.00000000000E+00 0. -1.
</event>
<event>
 7    1  0.4687179E-006  0.1289783E+03  0.7561462E-02  0.1228980E+00
          2   -1    0    0  501    0  0.00000000000E+00  0.00000000000E+00  0.11554051707E+04  0.11554051707E+04  0.00000000000E+00 0. -1.
         -2   -1    0    0    0  501 -0.00000000000E+00 -0.00000000000E+00 -0.15020877883E+02  0.15020877883E+02  0.00000000000E+00 0.  1.
         23    2    1    2    0    0 -0.58789612288E+02 -0.34491360462E+02  0.59615609318E+03  0.60786165663E+03  0.97199967584E+02 0.  0.
          5    1    1    2  502    0 -0.14972082843E+02  0.60888805052E+02  0.27817569850E+03  0.28518555623E+03  0.41800000000E+01 0. -1.
         -5    1    1    2    0  502  0.73761695131E+02 -0.26397444591E+02  0.26605250110E+03  0.27737883569E+03  0.41800000000E+01 0. -1.
        -11    1    3    3    0    0 -0.18502065445E+02  0.33130717458E+02  0.14459375853E+03  0.14949021998E+03  0.00000000000E+00 0.  1.
         11    1    3    3    0    0 -0.40287546843E+02 -0.67622077919E+02  0.45156233465E+03  0.45837143664E+03  0.00000000000E+00 0. -1.
</event>
<event>
 7    1  0.4687179E-006  0.1150276E+03  0.7561462E-02  0.1251533E+00
         -2   -1    0    0    0  501 -0.00000000000E+00  0.00000000000E+00  0.76466768633E+03  0.76466768633E+03  0.00000000000E+00 0.  1.
          2   -1    0    0  501    0  0.00000000000E+00 -0.00000000000E+00 -0.18666572764E+02  0.18666572764E+02  0.00000000000E+00 0. -1.
         23    2    1    2    0    0 -0.24763190728E+02  0.42659562189E+02  0.29891870272E+03  0.31646958774E+03  0.91474342109E+02 0.  0.
          5    1    1    2  502    0 -0.31984127314E+02 -0.60292391147E+02  0.30908890162E+03  0.31656212397E+03  0.41800000000E+01 0. -1.
         -5    1    1    2    0  502  0.56747318043E+02  0.17632828958E+02  0.13799350922E+03  0.15030254738E+03  0.41800000000E+01 0. -1.
        -11    1    3    3    0    0 -0.54551769717E+02  0.46995834324E+02  0.18168260418E+03  0.19543048044E+03  0.00000000000E+00 0. -1.
         11    1    3    3    0    0  0.29788578988E+02 -0.43362721349E+01  0.11723609855E+03  0.12103910730E+03  0.00000000000E+00 0.  1.
</event>
<event>
 7    1  0.4687179E-006  0.1417789E+03  0.7561462E-02  0.1210955E+00
         -2   -1    0    0    0  501 -0.00000000000E+00  0.00000000000E+00  0.27041352390E+02  0.27041352390E+02  0.00000000000E+00 0.  1.
          2   -1    0    0  501    0  0.00000000000E+00 -0.00000000000E+00 -0.10635354520E+04  0.10635354520E+04  0.00000000000E+00 0. -1.
         23    2    1    2    0    0  0.21246813833E+02 -0.12423257424E+03 -0.59366985233E+03  0.61347300738E+03  0.89554886021E+02 0.  0.
          5    1    1    2  502    0  0.50910977312E+01  0.55744107904E+02 -0.36786970496E+03  0.37212755484E+03  0.41800000000E+01 0. -1.
         -5    1    1    2    0  502 -0.26337911564E+02  0.68488466336E+02 -0.74954542303E+02  0.10497624216E+03  0.41800000000E+01 0. -1.
        -11    1    3    3    0    0 -0.33424040840E+02 -0.66444083079E+02 -0.25812903992E+03  0.26863094373E+03  0.00000000000E+00 0.  1.
         11    1    3    3    0    0  0.54670854673E+02 -0.57788491161E+02 -0.33554081242E+03  0.34484206364E+03  0.00000000000E+00 0. -1.
</event>
<event>
 7    1  0.4687179E-006  0.7751921E+02  0.7561462E-02  0.1336243E+00
         -1   -1    0    0    0  501 -0.00000000000E+00  0.00000000000E+00  0.44764352589E+02  0.44764352589E+02  0.00000000000E+00 0.  1.
          1   -1    0    0  501    0  0.00000000000E+00 -0.00000000000E+00 -0.33076713512E+03  0.33076713512E+03  0.00000000000E+00 0. -1.
         23    2    1    2    0    0 -0.70885279296E+02  0.10837785108E+02 -0.11592238008E+03  0.15256489592E+03  0.68526409908E+02 0.  0.
          5    1    1    2  502    0 -0.16605591072E+01  0.21557216853E+01 -0.14487864015E+03  0.14496446931E+03  0.41800000000E+01 0.  1.
         -5    1    1    2    0  502  0.72545838404E+02 -0.12993506793E+02 -0.25201762304E+02  0.78002122482E+02  0.41800000000E+01 0.  1.
        -11    1    3    3    0    0 -0.47047242083E+01  0.88485874447E+01  0.74913945780E+01  0.12512111028E+02  0.00000000000E+00 0.  1.
         11    1    3    3    0    0 -0.66180555088E+02  0.19891976629E+01 -0.12341377466E+03  0.14005278489E+03  0.00000000000E+00 0. -1.
</event>
<event>
 7    1  0.4687179E-006  0.1262973E+03  0.7561462E-02  0.1233056E+00
          2   -1    0    0  501    0  0.00000000000E+00  0.00000000000E+00  0.94183414315E+02  0.94183414315E+02  0.00000000000E+00 0. -1.
         -2   -1    0    0    0  501 -0.00000000000E+00 -0.00000000000E+00 -0.20239411864E+03  0.20239411864E+03  0.00000000000E+00 0.  1.
         23    2    1    2    0    0  0.76559016788E+02  0.22437233280E+02 -0.13238761819E+02  0.12041824799E+03  0.89222066478E+02 0.  0.
          5    1    1    2  502    0 -0.60823003622E+01  0.47618878258E+02 -0.23031122195E+02  0.53408397597E+02  0.41800000000E+01 0.  1.
         -5    1    1    2    0  502 -0.70476716426E+02 -0.70056111539E+02 -0.71940820312E+02  0.12275088737E+03  0.41800000000E+01 0.  1.
        -11    1    3    3    0    0 -0.55299140551E+01  0.22178923507E+02  0.21407384254E+02  0.31317099131E+02  0.00000000000E+00 0. -1.
         11    1    3    3    0    0  0.82088930843E+02  0.25830977314E+00 -0.34646146073E+02  0.89101148862E+02  0.00000000000E+00 0.  1.
</event>
<event>
 7    1  0.4687179E-006  0.1003975E+03  0.7561462E-02  0.1279462E+00
         -2   -1    0    0    0  501 -0.00000000000E+00  0.00000000000E+00  0.47395014590E+02  0.47395014590E+02  0.00000000000E+00 0.  1.
          2   -1    0    0  501    0  0.00000000000E+00 -0.00000000000E+00 -0.27797053699E+03  0.27797053699E+03  0.00000000000E+00 0. -1.
         23    2    1    2    0    0  0.30144984934E+02  0.44103659025E+01 -0.11754117099E+03  0.15404134876E+03  0.94787334629E+02 0.  0.
          5    1    1    2  502    0 -0.15636700169E+02  0.47809184884E+02 -0.10483178505E+03  0.11635033351E+03  0.41800000000E+01 0. -1.
         -5    1    1    2    0  502 -0.14508284766E+02 -0.52219550787E+02 -0.82025663520E+01  0.54973869301E+02  0.41800000000E+01 0. -1.
        -11    1    3    3    0    0 -0.50600074860E+00  0.45053628337E+02 -0.75935010085E+02  0.88296156313E+02  0.00000000000E+00 0. -1.
         11    1    3    3    0    0  0.30650985683E+02 -0.40643262434E+02 -0.41606160907E+02  0.65745192448E+02  0.00000000000E+00 0.  1.
</event>
<event>
 7    1  0.4687179E-006  0.1050567E+03  0.7561462E-02  0.1270008E+00
          2   -1    0    0  501    0  0.00000000000E+00  0.00000000000E+00  0.11536814999E+03  0.11536814999E+03  0.00000000000E+00 0. -1.
         -2   -1    0    0    0  501 -0.00000000000E+00 -0.00000000000E+00 -0.19777470398E+03  0.19777470398E+03  0.00000000000E+00 0.  1.
         23    2    1    2    0    0 -0.52688989395E+02 -0.59743581842E+02  0.32204574078E+02  0.12571736599E+03  0.91773069827E+02 0.  0.
          5    1    1    2  502    0  0.68294386045E+02  0.70335607555E+02 -0.32949853159E+02  0.10351031871E+03  0.41800000000E+01 0.  1.
         -5    1    1    2    0  502 -0.15605396650E+02 -0.10592025714E+02 -0.81661274911E+02  0.83915169269E+02  0.41800000000E+01 0.  1.
        -11    1    3    3    0    0 -0.59438409602E+02 -0.39591718717E+02 -0.15866062101E+02  0.73158462624E+02  0.00000000000E+00 0.  1.
         11    1    3    3    0    0  0.67494202064E+01 -0.20151863125E+02  0.48070636179E+02  0.52558903367E+02  0.00000000000E+00 0. -1.
</event>
<event>
 7    1  0.4687179E-006  0.1204507E+03  0.7561462E-02  0.1242355E+00
          2   -1    0    0  501    0  0.00000000000E+00  0.00000000000E+00  0.36403368164E+03  0.36403368164E+03  0.00000000000E+00 0. -1.
         -2   -1    0    0    0  501 -0.00000000000E+00 -0.00000000000E+00 -0.66347919442E+02  0.66347919442E+02  0.00000000000E+00 0.  1.
         23    2    1    2    0    0  0.62947065986E+02  0.33144237725E+02  0.25510738076E+03  0.28031240603E+03  0.91838965831E+02 0.  0.
          5    1    1    2  502    0 -0.32218324655E+02  0.36563659214E+02 -0.18544584709E+02  0.52309613272E+02  0.41800000000E+01 0.  1.
         -5    1    1    2    0  502 -0.30728741331E+02 -0.69707896938E+02  0.61122966148E+02  0.97759581782E+02  0.41800000000E+01 0.  1.
        -11    1    3    3    0    0  0.64221236058E+02  0.60546509084E+02  0.20485806967E+03  0.22306294097E+03  0.00000000000E+00 0. -1.
         11    1    3    3    0    0 -0.12741700728E+01 -0.27402271359E+02  0.50249311090E+02  0.57249465063E+02  0.00000000000E+00 0.  1.
</event>
<event>
 7    1  0.4687179E-006  0.9384269E+02  0.7561462E-02  0.1293804E+00
         -3   -1    0    0    0  501 -0.00000000000E+00  0.00000000000E+00  0.82034854817E+02  0.82034854817E+02  0.00000000000E+00 0.  1.
          3   -1    0    0  501    0  0.00000000000E+00 -0.00000000000E+00 -0.15529877051E+03  0.15529877051E+03  0.00000000000E+00 0. -1.
         23    2    1    2    0    0 -0.20855798145E+02 -0.22019017343E+02 -0.44154382539E+02  0.10536544164E+03  0.90732934232E+02 0.  0.
          5    1    1    2  502    0  0.65598312858E+02 -0.10569660851E+02 -0.36570568783E+02  0.75958773565E+02  0.41800000000E+01 0.  1.
         -5    1    1    2    0  502 -0.44742514713E+02  0.32588678194E+02  0.74610356299E+01  0.56009410119E+02  0.41800000000E+01 0.  1.
        -11    1    3    3    0    0  0.11870423184E+02 -0.29699610718E+02 -0.60160272312E+02  0.68133928318E+02  0.00000000000E+00 0. -1.
         11    1    3    3    0    0 -0.32726221329E+02  0.76805933743E+01  0.16005889773E+02  0.37231513326E+02  0.00000000000E+00 0.  1.
</event>
<event>
 7    1  0.4687179E-006  0.1053411E+03  0.7561462E-02  0.1269449E+00
          2   -1    0    0  501    0  0.00000000000E+00  0.00000000000E+00  0.10065205572E+03  0.10065205572E+03  0.00000000000E+00 0. -1.
         -2   -1    0    0    0  501 -0.00000000000E+00 -0.00000000000E+00 -0.19650322400E+03  0.19650322400E+03  0.00000000000E+00 0.  1.
         23    2    1    2    0    0  0.20168957994E+02 -0.69011157514E+02  0.67523080359E+01  0.12011066619E+03  0.95977350143E+02 0.  0.
          5    1    1    2  502    0 -0.69648103611E+02  0.31589118754E+02 -0.80346434414E+02  0.11100339041E+03  0.41800000000E+01 0. -1.
         -5    1    1    2    0  502  0.49479145617E+02  0.37422038760E+02 -0.22257041905E+02  0.66041223114E+02  0.41800000000E+01 0. -1.
        -11    1    3    3    0    0  0.99278820425E+01 -0.36605940653E+02 -0.44590243624E+02  0.58539282191E+02  0.00000000000E+00 0.  1.
         11    1    3    3    0    0  0.10241075952E+02 -0.32405216861E+02  0.51342551660E+02  0.61571383998E+02  0.00000000000E+00 0. -1.
</event>
<event>
 7    1  0.4687179E-006  0.1210880E+03  0.7561462E-02  0.1241313E+00
          1   -1    0    0  501    0  0.00000000000E+00  0.00000000000E+00  0.58309333155E+02  0.58309333155E+02  0.00000000000E+00 0. -1.
         -1   -1    0    0    0  501 -0.00000000000E+00 -0.00000000000E+00 -0.54793103305E+03  0.54793103305E+03  0.00000000000E+00 0.  1.
         23    2    1    2    0    0 -0.79291374029E+02 -0.10333559909E+02 -0.43171399263E+02  0.13576361330E+03  0.10086666707E+03 0.  0.
          5    1    1    2  502    0  0.11566735569E+02  0.60907377510E+02 -0.15507403828E+03  0.16705965328E+03  0.41800000000E+01 0. -1.
         -5    1    1    2    0  502  0.67724638460E+02 -0.50573817601E+02 -0.29137626235E+03  0.30341709962E+03  0.41800000000E+01 0. -1.
        -11    1    3    3    0    0 -0.29004369719E+02  0.21315222988E+02  0.26129161149E+02  0.44478368407E+02  0.00000000000E+00 0. -1.
         11    1    3    3    0    0 -0.50287004311E+02 -0.31648782897E+02 -0.69300560412E+02  0.91285244891E+02  0.00000000000E+00 0.  1.
</event>
<event>
 7    1  0.4687179E-006  0.1044058E+03  0.7561462E-02  0.1271295E+00
          2   -1    0    0  501    0  0.00000000000E+00  0.00000000000E+00  0.93357612615E+03  0.93357612615E+03  0.00000000000E+00 0.  1.
         -2   -1    0    0    0  501 -0.00000000000E+00 -0.00000000000E+00 -0.13659335393E+02  0.13659335393E+02  0.00000000000E+00 0. -1.
         23    2    1    2    0    0 -0.30597061950E+02 -0.17680107674E+02  0.35058219768E+03  0.36325069310E+03  0.88286025475E+02 0.  0.
          5    1    1    2  502    0 -0.46064613016E+01  0.64469182721E+02  0.20610468256E+03  0.21604191163E+03  0.41800000000E+01 0.  1.
         -5    1    1    2    0  502  0.35203523252E+02 -0.46789075047E+02  0.36322991051E+03  0.36794285682E+03  0.41800000000E+01 0.  1.
        -11    1    3    3    0    0  0.25777183982E+02  0.14263235399E+01  0.44604723218E+02  0.51537160828E+02  0.00000000000E+00 0. -1.
         11    1    3    3    0    0 -0.56374245932E+02 -0.19106431214E+02  0.30597747447E+03  0.31171353227E+03  0.00000000000E+00 0.  1.
</event>
<event>
 7    1  0.4687179E-006  0.1141544E+03  0.7561462E-02  0.1253064E+00
          1   -1    0    0  501    0  0.00000000000E+00  0.00000000000E+00  0.16873970659E+03  0.16873970659E+03  0.00000000000E+00 0. -1.
         -1   -1    0    0    0  501 -0.00000000000E+00 -0.00000000000E+00 -0.20390290319E+03  0.20390290319E+03  0.00000000000E+00 0.  1.
         23    2    1    2    0    0 -0.65364672295E+02  0.68239897827E+02  0.10049312036E+03  0.16532758199E+03  0.91132420624E+02 0.  0.
          5    1    1    2  502    0  0.57331564053E+02 -0.66665926686E+02 -0.18691254456E+02  0.89989384990E+02  0.41800000000E+01 0. -1.
         -5    1    1    2    0  502  0.80331082423E+01 -0.15739711411E+01 -0.11696506250E+03  0.11732564280E+03  0.41800000000E+01 0. -1.
        -11    1    3    3    0    0 -0.56580884235E+02 -0.54833017236E+01  0.39201396065E+02  0.69052244801E+02  0.00000000000E+00 0.  1.
         11    1    3    3    0    0 -0.87837880604E+01  0.73723199551E+02  0.61291724292E+02  0.96275337192E+02  0.00000000000E+00 0. -1.
</event>
<event>
 7    1  0.4687179E-006  0.2891158E+03  0.7561462E-02  0.1090812E+00
          1   -1    0    0  501    0  0.00000000000E+00  0.00000000000E+00  0.76089530244E+03  0.76089530244E+03  0.00000000000E+00 0. -1.
         -1   -1    0    0    0  501 -0.00000000000E+00 -0.00000000000E+00 -0.13988347036E+03  0.13988347036E+03  0.00000000000E+00 0.  1.
         23    2    1    2    0    0  0.18224608347E+03  0.57457368359E+02  0.28844713592E+03  0.36124731995E+03  0.10384070411E+03 0.  0.
          5    1    1    2  502    0  0.95114495326E+02 -0.47037803688E+02 -0.19314296557E+00  0.10619242864E+03  0.41800000000E+01 0. -1.
         -5    1    1    2    0  502 -0.27736057880E+03 -0.10419564671E+02  0.33275783913E+03  0.43333902421E+03  0.41800000000E+01 0.  1.
        -11    1    3    3    0    0  0.13381634688E+03  0.24947171438E+02  0.26588921819E+03  0.29870763700E+03  0.00000000000E+00 0. -1.
         11    1    3    3    0    0  0.48429736597E+02  0.32510196921E+02  0.22557917728E+02  0.62539682945E+02  0.00000000000E+00 0.  1.
</event>
<event>
 7    1  0.4687179E-006  0.7089834E+02  0.7561462E-02  0.1357065E+00
         -1   -1    0    0    0  501 -0.00000000000E+00  0.00000000000E+00  0.86982978998E+02  0.86982978998E+02  0.00000000000E+00 0.  1.
          1   -1    0    0  501    0  0.00000000000E+00 -0.00000000000E+00 -0.16905626234E+03  0.16905626234E+03  0.00000000000E+00 0. -1.
         23    2    1    2    0    0  0.33770478435E+02  0.41336502505E+01 -0.79541877104E+02  0.12638147920E+03  0.92129451288E+02 0.  0.
          5    1    1    2  502    0  0.19056894925E+02 -0.20929517043E+02 -0.49306041688E+02  0.57006737100E+02  0.41800000000E+01 0. -1.
         -5    1    1    2    0  502 -0.52827373360E+02  0.16795866793E+02  0.46774635448E+02  0.72651025036E+02  0.41800000000E+01 0. -1.
        -11    1    3    3    0    0 -0.17168511939E+01 -0.16469615828E+02 -0.83528112518E+02  0.85153634123E+02  0.00000000000E+00 0. -1.
         11    1    3    3    0    0  0.35487329629E+02  0.20603266079E+02  0.39862354138E+01  0.41227845082E+02  0.00000000000E+00 0.  1.
</event>
<event>
 7    1  0.4687179E-006  0.1737929E+03  0.7561462E-02  0.1173949E+00
         -2   -1    0    0    0  501 -0.00000000000E+00  0.00000000000E+00  0.97154227302E+02  0.97154227302E+02  0.00000000000E+00 0.  1.
          2   -1    0    0  501    0  0.00000000000E+00 -0.00000000000E+00 -0.61541435475E+03  0.61541435475E+03  0.00000000000E+00 0. -1.
         23    2    1    2    0    0 -0.12026892996E+03  0.79208316903E+02 -0.49032845318E+03  0.51978046863E+03  0.94927185754E+02 0.  0.
          5    1    1    2  502    0  0.29174147947E+02  0.33335329751E+02 -0.16612692729E+02  0.47495569033E+02  0.41800000000E+01 0.  1.
         -5    1    1    2    0  502  0.91094782013E+02 -0.11254364665E+03 -0.11318981545E+02  0.14529254439E+03  0.41800000000E+01 0.  1.
        -11    1    3    3    0    0 -0.84398693220E+02  0.16499696322E+02 -0.16001874829E+03  0.18166281733E+03  0.00000000000E+00 0.  1.
         11    1    3    3    0    0 -0.35870236740E+02  0.62708620581E+02 -0.33030970488E+03  0.33811765130E+03  0.00000000000E+00 0. -1.
</event>
<event>
 7    1  0.4687179E-006  0.1974464E+03  0.7561462E-02  0.1151912E+00
         -1   -1    0    0    0  501 -0.00000000000E+00  0.00000000000E+00  0.17352009360E+03  0.17352009360E+03  0.00000000000E+00 0.  1.
          1   -1    0    0  501    0  0.00000000000E+00 -0.00000000000E+00 -0.28439739367E+03  0.28439739367E+03  0.00000000000E+00 0. -1.
         23    2    1    2    0    0  0.18693660407E+03  0.41101117173E+02 -0.84729792429E+02  0.22777443805E+03  0.89819046593E+02 0.  0.
          5    1    1    2  502    0 -0.16516178894E+03 -0.32072745427E+02 -0.68329476220E+02  0.18164103954E+03  0.41800000000E+01 0. -1.
         -5    1    1    2    0  502 -0.21774815133E+02 -0.90283717452E+01  0.42181968577E+02  0.48502009684E+02  0.41800000000E+01 0. -1.
        -11    1    3    3    0    0  0.13734738488E+03 -0.13832147472E+01 -0.25677953013E+02  0.13973394250E+03  0.00000000000E+00 0.  1.
         11    1    3    3    0    0  0.49589219195E+02  0.42484331920E+02 -0.59051839416E+02  0.88040495555E+02  0.00000000000E+00 0. -1.
</event>
<event>
 7    1  0.4687179E-006  0.9021716E+02  0.7561462E-02  0.1302327E+00
          1   -1    0    0  501    0  0.00000000000E+00  0.00000000000E+00  0.40328345112E+03  0.40328345112E+03  0.00000000000E+00 0. -1.
         -1   -1    0    0    0  501 -0.00000000000E+00 -0.00000000000E+00 -0.32813733135E+02  0.32813733135E+02  0.00000000000E+00 0.  1.
         23    2    1    2    0    0 -0.23384961349E+02 -0.21013927029E+02  0.20715138879E+03  0.22799897480E+03  0.89907692033E+02 0.  0.
          5    1    1    2  502    0  0.36660033125E+02 -0.28277300962E+02  0.11521644654E+02  0.47893470055E+02  0.41800000000E+01 0. -1.
         -5    1    1    2    0  502 -0.13275071776E+02  0.49291227991E+02  0.15179668454E+03  0.16020473940E+03  0.41800000000E+01 0. -1.
        -11    1    3    3    0    0  0.17928428059E+02 -0.34824342965E+02  0.42994974240E+02  0.58161251753E+02  0.00000000000E+00 0.  1.
         11    1    3    3    0    0 -0.41313389408E+02  0.13810415936E+02  0.16415641455E+03  0.16983772305E+03  0.00000000000E+00 0. -1.
</event>
<event>
 7    1  0.4687179E-006  0.1564676E+03  0.7561462E-02  0.1192744E+00
          3   -1    0    0  501    0  0.00000000000E+00  0.00000000000E+00  0.25586832676E+03  0.25586832676E+03  0.00000000000E+00 0. -1.
         -3   -1    0    0    0  501 -0.00000000000E+00 -0.00000000000E+00 -0.10572559889E+03  0.10572559889E+03  0.00000000000E+00 0.  1.
         23    2    1    2    0    0  0.58497095399E+02  0.95786841194E+02  0.12545580330E+03  0.19172897892E+03  0.91781336121E+02 0.  0.
          5    1    1    2  502    0 -0.18057223032E+02  0.30334725264E+02  0.53243671763E+01  0.35945516359E+02  0.41800000000E+01 0. -1.
         -5    1    1    2    0  502 -0.40439872367E+02 -0.12612156646E+03  0.19362557395E+02  0.13391943037E+03  0.41800000000E+01 0. -1.
        -11    1    3    3    0    0 -0.91506172430E+01  0.72881233778E+02  0.59843550545E+02  0.94745229826E+02  0.00000000000E+00 0.  1.
         11    1    3    3    0    0  0.67647712642E+02  0.22905607416E+02  0.65612252756E+02  0.96983749095E+02  0.00000000000E+00 0. -1.
</event>
<event>
 7    1  0.4687179E-006  0.1332931E+03  0.7561462E-02  0.1222650E+00
          1   -1    0    0  501    0  0.00000000000E+00  0.00000000000E+00  0.11572941223E+03  0.11572941223E+03  0.00000000000E+00 0. -1.
         -1   -1    0    0    0  501 -0.00000000000E+00 -0.00000000000E+00 -0.20854275991E+03  0.20854275991E+03  0.00000000000E+00 0.  1.
         23    2    1    2    0    0  0.10690215813E+03  0.14374194395E+02 -0.15110847495E+02  0.14173670127E+03  0.90698764592E+02 0.  0.
          5    1    1    2  502    0 -0.17389550863E+02  0.32313713788E+02 -0.72491868974E+02  0.81357950105E+02  0.41800000000E+01 0. -1.
         -5    1    1    2    0  502 -0.89512607267E+02 -0.46687908183E+02 -0.52106312164E+01  0.10117752076E+03  0.41800000000E+01 0. -1.
        -11    1    3    3    0    0  0.95553745665E+02  0.37658893548E+02 -0.35608605302E+02  0.10870456911E+03  0.00000000000E+00 0.  1.
         11    1    3    3    0    0  0.11348412465E+02 -0.23284699153E+02  0.20497757807E+02  0.33032132163E+02  0.00000000000E+00 0. -1.
</event>
<event>
 7    1  0.4687179E-006  0.2257051E+03  0.7561462E-02  0.1129700E+00
          2   -1    0    0  501    0  0.00000000000E+00  0.00000000000E+00  0.67750616983E+02  0.67750616983E+02  0.00000000000E+00 0. -1.
         -2   -1    0    0    0  501 -0.00000000000E+00 -0.00000000000E+00 -0.92733833381E+03  0.92733833381E+03  0.00000000000E+00 0.  1.
         23    2    1    2    0    0 -0.67291810094E+02  0.19851698908E+03 -0.25220173139E+03  0.34048722467E+03  0.91589596536E+02 0.  0.
          5    1    1    2  502    0  0.20830017047E+02 -0.18724398129E+03 -0.40639542074E+03  0.44796083371E+03  0.41800000000E+01 0.  1.
         -5    1    1    2    0  502  0.46461793047E+02 -0.11273007790E+02 -0.20099056470E+03  0.20664089241E+03  0.41800000000E+01 0.  1.
        -11    1    3    3    0    0 -0.55934990898E+02  0.90711593853E+02 -0.18333725283E+03  0.21206099297E+03  0.00000000000E+00 0.  1.
         11    1    3    3    0    0 -0.11356819196E+02  0.10780539523E+03 -0.68864478559E+02  0.12842623170E+03  0.00000000000E+00 0. -1.
</event>
<event>
 7    1  0.4687179E-006  0.1498350E+03  0.7561462E-02  0.1200676E+00
         -2   -1    0    0    0  501 -0.00000000000E+00  0.00000000000E+00  0.10596678778E+03  0.10596678778E+03  0.00000000000E+00 0.  1.
          2   -1    0    0  501    0  0.00000000000E+00 -0.00000000000E+00 -0.22089827386E+03  0.22089827386E+03  0.00000000000E+00 0. -1.
         23    2    1    2    0    0  0.23737892751E+02 -0.10669714560E+03 -0.51276372290E+02  0.14897290978E+03  0.87269084234E+02 0.  0.
          5    1    1    2  502    0 -0.39968342999E+02 -0.10439651552E+02 -0.39118062727E+02  0.57045157534E+02  0.41800000000E+01 0.  1.
         -5    1    1    2    0  502  0.16230450248E+02  0.11713679715E+03 -0.24537051060E+02  0.12084699432E+03  0.41800000000E+01 0.  1.
        -11    1    3    3    0    0 -0.27090916180E+02 -0.75422499032E+02 -0.31359259240E+02  0.86057389223E+02  0.00000000000E+00 0.  1.
         11    1    3    3    0    0  0.50828808931E+02 -0.31274646567E+02 -0.19917113050E+02  0.62915520561E+02  0.00000000000E+00 0. -1.
</event>
<event>
 7    1  0.4687179E-006  0.1079202E+03  0.7561462E-02  0.1264470E+00
          1   -1    0    0  501    0  0.00000000000E+00  0.00000000000E+00  0.18958966805E+03  0.18958966805E+03  0.00000000000E+00 0. -1.
         -1   -1    0    0    0  501 -0.00000000000E+00 -0.00000000000E+00 -0.33619168824E+03  0.33619168824E+03  0.00000000000E+00 0.  1.
         23    2    1    2    0    0  0.40738474517E+02  0.31677190716E+02  0.15107490339E+03  0.20403739555E+03  0.12706126329E+03 0.  0.
          5    1    1    2  502    0 -0.33947223012E+01 -0.60616300404E+02 -0.89478234820E+02  0.10821130681E+03  0.41800000000E+01 0. -1.
         -5    1    1    2    0  502 -0.37343752216E+02  0.28939109688E+02 -0.20819868875E+03  0.21353265394E+03  0.41800000000E+01 0.  1.
        -11    1    3    3    0    0 -0.28991270279E+02  0.23557404137E+02 -0.10243355551E+00  0.37355796534E+02  0.00000000000E+00 0.  1.
         11    1    3    3    0    0  0.69729744796E+02  0.81197865797E+01  0.15117733695E+03  0.16668159901E+03  0.00000000000E+00 0. -1.
</event>
<event>
 7    1  0.4687179E-006  0.1066153E+03  0.7561462E-02  0.1266969E+00
          2   -1    0    0  501    0  0.00000000000E+00  0.00000000000E+00  0.60579387214E+03  0.60579387214E+03  0.00000000000E+00 0.  1.
         -2   -1    0    0    0  501 -0.00000000000E+00 -0.00000000000E+00 -0.38813886158E+02  0.38813886158E+02  0.00000000000E+00 0. -1.
         23    2    1    2    0    0 -0.39493114120E+02  0.92747453841E+02  0.18970465631E+03  0.23455103163E+03  0.94151651912E+02 0.  0.
          5    1    1    2  502    0  0.47021700285E+02 -0.68638418229E+02  0.37523927656E+03  0.38437515506E+03  0.41800000000E+01 0. -1.
         -5    1    1    2    0  502 -0.75285861656E+01 -0.24109035613E+02  0.20360531145E+01  0.25681571605E+02  0.41800000000E+01 0. -1.
        -11    1    3    3    0    0 -0.36131731196E+02  0.51332703088E+02  0.18169749758E+03  0.19223560813E+03  0.00000000000E+00 0.  1.
         11    1    3    3    0    0 -0.33613829238E+01  0.41414750754E+02  0.80071587235E+01  0.42315423500E+02  0.00000000000E+00 0. -1.
</event>
<event>
 7    1  0.4687179E-006  0.1045603E+03  0.7561462E-02  0.1270988E+00
          3   -1    0    0  501    0  0.00000000000E+00  0.00000000000E+00  0.15130913017E+03  0.15130913017E+03  0.00000000000E+00 0. -1.
         -3   -1    0    0    0  501 -0.00000000000E+00 -0.00000000000E+00 -0.98783299849E+02  0.98783299849E+02  0.00000000000E+00 0.  1.
         23    2    1    2    0    0 -0.15076068304E+02  0.36676172585E+02  0.63334583753E+02  0.11842002418E+03  0.91867312778E+02 0.  0.
          5    1    1    2  502    0 -0.26100479590E+02 -0.71818962603E+02 -0.12317949176E+01  0.76538801551E+02  0.41800000000E+01 0.  1.
         -5    1    1    2    0  502  0.41176547893E+02  0.35142790017E+02 -0.95769585189E+01  0.55133604282E+02  0.41800000000E+01 0.  1.
        -11    1    3    3    0    0 -0.19602334234E+02  0.55539627738E+02  0.75752074661E+01  0.59382535520E+02  0.00000000000E+00 0.  1.
         11    1    3    3    0    0  0.45262659298E+01 -0.18863455153E+02  0.55759376287E+02  0.59037488661E+02  0.00000000000E+00 0. -1.
</event>
<event>
 7    1  0.4687179E-006  0.1180176E+03  0.7561462E-02  0.1246404E+00
          1   -1    0    0  501    0  0.00000000000E+00  0.00000000000E+00  0.48641106414E+03  0.48641106414E+03  0.00000000000E+00 0. -1.
         -1   -1    0    0    0  501 -0.00000000000E+00 -0.00000000000E+00 -0.84821467314E+02  0.84821467314E+02  0.00000000000E+00 0.  1.
         23    2    1    2    0    0  0.87090523659E+02 -0.35084086773E+02  0.39313169704E+03  0.41459913253E+03  0.92326903008E+02 0.  0.
          5    1    1    2  502    0 -0.85796449060E+02  0.63877945489E+01  0.54699286593E+02  0.10203587087E+03  0.41800000000E+01 0. -1.
         -5    1    1    2    0  502 -0.12940745988E+01  0.28696292224E+02 -0.46241386804E+02  0.54597528058E+02  0.41800000000E+01 0. -1.
        -11    1    3    3    0    0  0.81835453074E+02  0.35204899204E+01  0.33317140970E+03  0.34309273305E+03  0.00000000000E+00 0. -1.
         11    1    3    3    0    0  0.52550705852E+01 -0.38604576694E+02  0.59960287339E+02  0.71506399478E+02  0.00000000000E+00 0.  1.
</event>
<event>
 7    1  0.4687179E-006  0.1189903E+03  0.7561462E-02  0.1244772E+00
          1   -1    0    0  501    0  0.00000000000E+00  0.00000000000E+00  0.10893492292E+03  0.10893492292E+03  0.00000000000E+00 0. -1.
         -1   -1    0    0    0  501 -0.00000000000E+00 -0.00000000000E+00 -0.17919967816E+03  0.17919967816E+03  0.00000000000E+00 0.  1.
         23    2    1    2    0    0 -0.22942724555E+02 -0.81150484493E+02 -0.62158023209E+02  0.13706117379E+03  0.88376330358E+02 0.  0.
          5    1    1    2  502    0  0.81911371229E+01 -0.17940566906E+02 -0.40881954889E+02  0.45582510943E+02  0.41800000000E+01 0.  1.
         -5    1    1    2    0  502  0.14751587432E+02  0.99091051399E+02  0.32775222864E+02  0.10549091635E+03  0.41800000000E+01 0.  1.
        -11    1    3    3    0    0 -0.46060990478E+02 -0.82398001725E+02 -0.63664194196E+02  0.11386033179E+03  0.00000000000E+00 0.  1.
         11    1    3    3    0    0  0.23118265923E+02  0.12475172320E+01  0.15061709870E+01  0.23200842001E+02  0.00000000000E+00 0. -1.
</event>
<event>
 7    1  0.4687179E-006  0.1063203E+03  0.7561462E-02  0.1267540E+00
          1   -1    0    0  501    0  0.00000000000E+00  0.00000000000E+00  0.14094586004E+03  0.14094586004E+03  0.00000000000E+00 0. -1.
         -1   -1    0    0    0  501 -0.00000000000E+00 -0.00000000000E+00 -0.12671161372E+03  0.12671161372E+03  0.00000000000E+00 0.  1.
         23    2    1    2    0    0  0.41584345712E+01 -0.51481094970E+02  0.69060037823E+01  0.10370705168E+03  0.89665288501E+02 0.  0.
          5    1    1    2  502    0  0.99176205586E+01 -0.42631224848E+02  0.43699934187E+02  0.61991428258E+02  0.41800000000E+01 0. -1.
         -5    1    1    2    0  502 -0.14076055130E+02  0.94112319818E+02 -0.36371691644E+02  0.10195899383E+03  0.41800000000E+01 0.  1.
        -11    1    3    3    0    0  0.20064247502E+02 -0.55841439237E+00 -0.31933271836E+02  0.37717631217E+02  0.00000000000E+00 0.  1.
         11    1    3    3    0    0 -0.15905812930E+02 -0.50922680578E+02  0.38839275618E+02  0.65989420461E+02  0.00000000000E+00 0. -1.
</event>
<event>
 7    1  0.4687179E-006  0.8063634E+02  0.7561462E-02  0.1327255E+00
         -2   -1    0    0    0  501 -0.00000000000E+00  0.00000000000E+00  0.22186610512E+03  0.22186610512E+03  0.00000000000E+00 0.  1.
          2   -1    0    0  501    0  0.00000000000E+00 -0.00000000000E+00 -0.69247630689E+02  0.69247630689E+02  0.00000000000E+00 0. -1.
         23    2    1    2    0    0  0.24760415353E+02  0.48472723741E+02  0.36327867485E+02  0.11186350829E+03  0.90725120094E+02 0.  0.
          5    1    1    2  502    0 -0.42808375189E+02 -0.48046307679E+02  0.13702569671E+03  0.15144146931E+03  0.41800000000E+01 0. -1.
         -5    1    1    2    0  502  0.18047959836E+02 -0.42641606211E+00 -0.20735089771E+02  0.27808758201E+02  0.41800000000E+01 0. -1.
        -11    1    3    3    0    0 -0.16167000470E+02  0.28381036775E+02  0.53881099494E+02  0.63008158482E+02  0.00000000000E+00 0.  1.
         11    1    3    3    0    0  0.40927415823E+02  0.20091686966E+02 -0.17553232009E+02  0.48855349810E+02  0.00000000000E+00 0. -1.
</event>
<event>
 7    1  0.4687179E-006  0.1675916E+03  0.7561462E-02  0.1180383E+00
         -2   -1    0    0    0  501 -0.00000000000E+00  0.00000000000E+00  0.91537101078E+03  0.91537101078E+03  0.00000000000E+00 0.  1.
          2   -1    0    0  501    0  0.00000000000E+00 -0.00000000000E+00 -0.49465716842E+02  0.49465716842E+02  0.00000000000E+00 0. -1.
         23    2    1    2    0    0  0.13248285810E+03  0.36661589737E+02  0.14382022885E+03  0.21921545403E+03  0.92061811873E+02 0.  0.
          5    1    1    2  502    0 -0.14570980756E+03 -0.48903241047E+02  0.70057807832E+03  0.71725169308E+03  0.41800000000E+01 0.  1.
         -5    1    1    2    0  502  0.13226949460E+02  0.12241651309E+02  0.21506986771E+02  0.28369580518E+02  0.41800000000E+01 0.  1.
        -11    1    3    3    0    0 -0.10421489421E+02  0.15187596820E+02  0.30262089572E+02  0.35426890975E+02  0.00000000000E+00 0.  1.
         11    1    3    3    0    0  0.14290434752E+03  0.21473992917E+02  0.11355813928E+03  0.18378856305E+03  0.00000000000E+00 0. -1.
</event>
<event>
 7    1  0.4687179E-006  0.1566792E+03  0.7561462E-02  0.1192498E+00
         -2   -1    0    0    0  501 -0.00000000000E+00  0.00000000000E+00  0.24317084106E+02  0.24317084106E+02  0.00000000000E+00 0.  1.
          2   -1    0    0  501    0  0.00000000000E+00 -0.00000000000E+00 -0.10429887693E+04  0.10429887693E+04  0.00000000000E+00 0. -1.
         23    2    1    2    0    0  0.27544745784E+02 -0.11226379037E+03 -0.39409440293E+03  0.41992238499E+03  0.87535931720E+02 0.  0.
          5    1    1    2  502    0  0.46339809416E+02  0.18708375486E+02 -0.21630366122E+03  0.22204082396E+03  0.41800000000E+01 0. -1.
         -5    1    1    2    0  502 -0.73884555200E+02  0.93555414886E+02 -0.40827362106E+03  0.42534264447E+03  0.41800000000E+01 0. -1.
        -11    1    3    3    0    0  0.54312503485E+02 -0.41761517930E+02 -0.21320982627E+03  0.22394709740E+03  0.00000000000E+00 0. -1.
         11    1    3    3    0    0 -0.26767757701E+02 -0.70502272442E+02 -0.18088457666E+03  0.19597528759E+03  0.00000000000E+00 0.  1.
</event>
<event>
 7    1  0.4687179E-006  0.1118547E+03  0.7561462E-02  0.1257173E+00
          2   -1    0    0  501    0  0.00000000000E+00  0.00000000000E+00  0.86420484031E+02  0.86420484031E+02  0.00000000000E+00 0. -1.
         -2   -1    0    0    0  501 -0.00000000000E+00 -0.00000000000E+00 -0.16189362546E+03  0.16189362546E+03  0.00000000000E+00 0.  1.
         23    2    1    2    0    0 -0.30615617959E+02  0.51431968749E+01  0.44360197709E+01  0.96664571353E+02  0.91436275877E+02 0.  0.
          5    1    1    2  502    0  0.50071903193E+02  0.49568350361E+02 -0.46581833159E+02  0.84566875474E+02  0.41800000000E+01 0.  1.
         -5    1    1    2    0  502 -0.19456285234E+02 -0.54711547236E+02 -0.33327328041E+02  0.67082662666E+02  0.41800000000E+01 0.  1.
        -11    1    3    3    0    0  0.21905194494E+02 -0.25884023694E+02  0.10152643407E+02  0.35396276592E+02  0.00000000000E+00 0. -1.
         11    1    3    3    0    0 -0.52520812454E+02  0.31027220569E+02 -0.57166236363E+01  0.61268294760E+02  0.00000000000E+00 0.  1.
</event>
<event>
 7    1  0.4687179E-006  0.1080826E+03  0.7561462E-02  0.1264162E+00
          1   -1    0    0  501    0  0.00000000000E+00  0.00000000000E+00  0.96000896354E+02  0.96000896354E+02  0.00000000000E+00 0. -1.
         -1   -1    0    0    0  501 -0.00000000000E+00 -0.00000000000E+00 -0.29582772586E+03  0.29582772586E+03  0.00000000000E+00 0.  1.
         23    2    1    2    0    0  0.53267163378E+00 -0.17408805659E+02  0.53771974364E+02  0.10851893512E+03  0.92636838239E+02 0.  0.
          5    1    1    2  502    0  0.27543068283E+02 -0.45747077955E+02 -0.78643589233E+02  0.95150944710E+02  0.41800000000E+01 0.  1.
         -5    1    1    2    0  502 -0.28075739917E+02  0.63155883614E+02 -0.17495521463E+03  0.18815874238E+03  0.41800000000E+01 0.  1.
        -11    1    3    3    0    0  0.12165551052E+02  0.36363995814E+02  0.29530854819E+02  0.48398473223E+02  0.00000000000E+00 0. -1.
         11    1    3    3    0    0 -0.11632879418E+02 -0.53772801473E+02  0.24241119545E+02  0.60120461896E+02  0.00000000000E+00 0.  1.
</event>
<event>
 7    1  0.4687179E-006  0.2092855E+03  0.7561462E-02  0.1142133E+00
         -2   -1    0    0    0  501 -0.00000000000E+00  0.00000000000E+00  0.95110712970E+02  0.95110712970E+02  0.00000000000E+00 0.  1.
          2   -1    0    0  501    0  0.00000000000E+00 -0.00000000000E+00 -0.58536198885E+03  0.58536198885E+03  0.00000000000E+00 0. -1.
         23    2    1    2    0    0  0.15421241351E+03  0.11738549572E+03 -0.35038169607E+03  0.41071011855E+03  0.91403749651E+02 0.  0.
          5    1    1    2  502    0 -0.14650862952E+03 -0.73173799780E+02 -0.15158584860E+03  0.22319257469E+03  0.41800000000E+01 0.  1.
         -5    1    1    2    0  502 -0.77037839862E+01 -0.44211695941E+02  0.11716268787E+02  0.46570008589E+02  0.41800000000E+01 0.  1.
        -11    1    3    3    0    0 -0.11659237430E+01  0.32702695880E+02 -0.28503771611E+02  0.43396897263E+02  0.00000000000E+00 0.  1.
         11    1    3    3    0    0  0.15537833725E+03  0.84682799841E+02 -0.32187792446E+03  0.36731322128E+03  0.00000000000E+00 0. -1.
</event>
<event>
 7    1  0.4687179E-006  0.8410681E+02  0.7561462E-02  0.1317785E+00
          3   -1    0    0  501    0  0.00000000000E+00  0.00000000000E+00  0.22545185756E+03  0.22545185756E+03  0.00000000000E+00 0. -1.
         -3   -1    0    0    0  501 -0.00000000000E+00 -0.00000000000E+00 -0.57940624650E+02  0.57940624650E+02  0.00000000000E+00 0.  1.
         23    2    1    2    0    0  0.34358942357E+02  0.21867990226E+02  0.64529384833E+02  0.11632411098E+03  0.87798128517E+02 0.  0.
          5    1    1    2  502    0 -0.74387551822E+02 -0.38404466876E+02  0.46776684516E+02  0.95989278341E+02  0.41800000000E+01 0.  1.
         -5    1    1    2    0  502  0.40028609465E+02  0.16536476650E+02  0.56205163563E+02  0.71079092895E+02  0.41800000000E+01 0.  1.
        -11    1    3    3    0    0  0.99941008483E+01  0.83183870913E+01 -0.21922217407E+02  0.25488452908E+02  0.00000000000E+00 0.  1.
         11    1    3    3    0    0  0.24364841509E+02  0.13549603135E+02  0.86451602240E+02  0.90835658069E+02  0.00000000000E+00 0. -1.
</event>
<event>
 7    1  0.4687179E-006  0.1140626E+03  0.7561462E-02  0.1253226E+00
         -1   -1    0    0    0  501 -0.00000000000E+00  0.00000000000E+00  0.33784362922E+02  0.33784362922E+02  0.00000000000E+00 0.  1.
          1   -1    0    0  501    0  0.00000000000E+00 -0.00000000000E+00 -0.65725747169E+03  0.65725747169E+03  0.00000000000E+00 0. -1.
         23    2    1    2    0    0  0.25639692578E+02  0.38668083645E+02 -0.49249997135E+03  0.50408240196E+03  0.96903207694E+02 0.  0.
          5    1    1    2  502    0 -0.13799709111E+02 -0.78088279320E+02 -0.12045051797E+03  0.14427061730E+03  0.41800000000E+01 0.  1.
         -5    1    1    2    0  502 -0.11839983466E+02  0.39420195675E+02 -0.10522619452E+02  0.42688815346E+02  0.41800000000E+01 0.  1.
        -11    1    3    3    0    0  0.34284409120E+02 -0.25417827763E+02 -0.20612838610E+03  0.21050035209E+03  0.00000000000E+00 0.  1.
         11    1    3    3    0    0 -0.86447165422E+01  0.64085911408E+02 -0.28637158525E+03  0.29358204987E+03  0.00000000000E+00 0. -1.
</event>
<event>
 7    1  0.4687179E-006  0.1088846E+03  0.7561462E-02  0.1262649E+00
          1   -1    0    0  501    0  0.00000000000E+00  0.00000000000E+00  0.16384625535E+03  0.16384625535E+03  0.00000000000E+00 0. -1.
         -1   -1    0    0    0  501 -0.00000000000E+00 -0.00000000000E+00 -0.98784462941E+02  0.98784462941E+02  0.00000000000E+00 0.  1.
         23    2    1    2    0    0 -0.15967413453E+02 -0.59521237747E+02  0.52893671185E+02  0.12265366886E+03  0.91915428509E+02 0.  0.
          5    1    1    2  502    0  0.69808630700E+01  0.85662842531E+02 -0.28483153821E+02  0.90640043531E+02  0.41800000000E+01 0. -1.
         -5    1    1    2    0  502  0.89865503826E+01 -0.26141604784E+02  0.40651275050E+02  0.49337005904E+02  0.41800000000E+01 0. -1.
        -11    1    3    3    0    0  0.33533613472E+02 -0.35178884198E+02  0.36992037873E+01  0.48741576037E+02  0.00000000000E+00 0.  1.
         11    1    3    3    0    0 -0.49501026925E+02 -0.24342353549E+02  0.49194467398E+02  0.73912092823E+02  0.00000000000E+00 0. -1.
</event>
<event>
 7    1  0.4687179E-006  0.1130852E+03  0.7561462E-02  0.1254961E+00
          1   -1    0    0  501    0  0.00000000000E+00  0.00000000000E+00  0.60965706164E+02  0.60965706164E+02  0.00000000000E+00 0. -1.
         -1   -1    0    0    0  501 -0.00000000000E+00 -0.00000000000E+00 -0.24248645998E+03  0.24248645998E+03  0.00000000000E+00 0.  1.
         23    2    1    2    0    0  0.48016551377E+01 -0.45865755610E+02 -0.45085331529E+02  0.11269507079E+03  0.92416277960E+02 0.  0.
          5    1    1    2  502    0 -0.47272873264E+02  0.67667501167E+02 -0.67032514700E+02  0.10641637885E+03  0.41800000000E+01 0. -1.
         -5    1    1    2    0  502  0.42471218126E+02 -0.21801745556E+02 -0.69402907590E+02  0.84340716504E+02  0.41800000000E+01 0. -1.
        -11    1    3    3    0    0 -0.39509379253E+02 -0.23354391713E+02 -0.43089915720E+02  0.62953629744E+02  0.00000000000E+00 0.  1.
         11    1    3    3    0    0  0.44311034391E+02 -0.22511363898E+02 -0.19954158097E+01  0.49741441048E+02  0.00000000000E+00 0. -1.
</event>
<event>
 7    1  0.4687179E-006  0.1312274E+03  0.7561462E-02  0.1225646E+00
         -1   -1    0    0    0  501 -0.00000000000E+00  0.00000000000E+00  0.16396894184E+03  0.16396894184E+03  0.00000000000E+00 0.  1.
          1   -1    0    0  501    0  0.00000000000E+00 -0.00000000000E+00 -0.14922883822E+03  0.14922883822E+03  0.00000000000E+00 0. -1.
         23    2    1    2    0    0  0.40188947996E+02 -0.81657056483E+02 -0.67754157284E+02  0.14531192638E+03  0.90784931050E+02 0.  0.
          5    1    1    2  502    0  0.21928686562E+02 -0.17544422183E+02  0.22896920064E+02  0.36474859733E+02  0.41800000000E+01 0. -1.
         -5    1    1    2    0  502 -0.62117634559E+02  0.99201478666E+02  0.59597340837E+02  0.13141099394E+03  0.41800000000E+01 0.  1.
        -11    1    3    3    0    0 -0.50646451310E+01  0.11945305119E+02  0.92487764164E+01  0.15933637685E+02  0.00000000000E+00 0.  1.
         11    1    3    3    0    0  0.45253593127E+02 -0.93602361602E+02 -0.77002933700E+02  0.12937828870E+03  0.00000000000E+00 0. -1.
</event>
<event>
 7    1  0.4687179E-006  0.1787802E+03  0.7561462E-02  0.1168989E+00
          3   -1    0    0  501    0  0.00000000000E+00  0.00000000000E+00  0.11034178013E+03  0.11034178013E+03  0.00000000000E+00 0. -1.
         -3   -1    0    0    0  501 -0.00000000000E+00 -0.00000000000E+00 -0.36815030584E+03  0.36815030584E+03  0.00000000000E+00 0.  1.
         23    2    1    2    0    0  0.97831120177E+02 -0.13516722021E+03 -0.84025438618E+02  0.20703496631E+03  0.89230585830E+02 0.  0.
          5    1    1    2  502    0 -0.43851982021E+02  0.36481555028E+02  0.78920475728E+01  0.57737829880E+02  0.41800000000E+01 0. -1.
         -5    1    1    2    0  502 -0.53979138156E+02  0.98685665178E+02 -0.18167513466E+03  0.21371928978E+03  0.41800000000E+01 0. -1.
        -11    1    3    3    0    0 -0.90395602715E+01 -0.50926808159E+02 -0.34731021166E+02  0.62301663464E+02  0.00000000000E+00 0.  1.
         11    1    3    3    0    0  0.10687068045E+03 -0.84240412047E+02 -0.49294417452E+02  0.14473330285E+03  0.00000000000E+00 0. -1.
</event>
<event>
 7    1  0.4687179E-006  0.9050900E+02  0.7561462E-02  0.1301624E+00
         -2   -1    0    0    0  501 -0.00000000000E+00  0.00000000000E+00  0.79647978955E+03  0.79647978955E+03  0.00000000000E+00 0.  1.
          2   -1    0    0  501    0  0.00000000000E+00 -0.00000000000E+00 -0.21080818865E+02  0.21080818865E+02  0.00000000000E+00 0. -1.
         23    2    1    2    0    0 -0.39387974722E+02  0.57050133857E+02  0.31404071142E+03  0.33454395594E+03  0.92151829595E+02 0.  0.
          5    1    1    2  502    0 -0.55460576147E+01 -0.41759443775E+02  0.37697732422E+02  0.56685106767E+02  0.41800000000E+01 0. -1.
         -5    1    1    2    0  502  0.44934032337E+02 -0.15290690083E+02  0.42366052685E+03  0.42633154572E+03  0.41800000000E+01 0. -1.
        -11    1    3    3    0    0 -0.47014925954E+02  0.16577628832E+02  0.26872136436E+03  0.27330640809E+03  0.00000000000E+00 0.  1.
         11    1    3    3    0    0  0.76269512323E+01  0.40472505025E+02  0.45319347065E+02  0.61237547849E+02  0.00000000000E+00 0. -1.
</event>
<event>
 7    1  0.4687179E-006  0.1345684E+03  0.7561462E-02  0.1220830E+00
          1   -1    0    0  501    0  0.00000000000E+00  0.00000000000E+00  0.85822089765E+02  0.85822089765E+02  0.00000000000E+00 0. -1.
         -1   -1    0    0    0  501 -0.00000000000E+00 -0.00000000000E+00 -0.25346672728E+03  0.25346672728E+03  0.00000000000E+00 0.  1.
         23    2    1    2    0    0 -0.87338578551E+02  0.15726566982E+02 -0.25378053530E+02  0.13008910156E+03  0.91672114252E+02 0.  0.
          5    1    1    2  502    0  0.87623126354E+00  0.39801669836E+02 -0.92891407954E+01  0.41093810236E+02  0.41800000000E+01 0. -1.
         -5    1    1    2    0  502  0.86462347288E+02 -0.55528236818E+02 -0.13297744319E+03  0.16810590525E+03  0.41800000000E+01 0. -1.
        -11    1    3    3    0    0 -0.19337895600E+02 -0.35973491375E+02 -0.17063630298E+02  0.44263006754E+02  0.00000000000E+00 0.  1.
         11    1    3    3    0    0 -0.68000682952E+02  0.51700058358E+02 -0.83144232326E+01  0.85826094807E+02  0.00000000000E+00 0. -1.
</event>
<event>
 7    1  0.4687179E-006  0.9269438E+02  0.7561462E-02  0.1296455E+00
          1   -1    0    0  501    0  0.00000000000E+00  0.00000000000E+00  0.48283920707E+03  0.48283920707E+03  0.00000000000E+00 0. -1.
         -1   -1    0    0    0  501 -0.00000000000E+00 -0.00000000000E+00 -0.28436771545E+02  0.28436771545E+02  0.00000000000E+00 0.  1.
         23    2    1    2    0    0 -0.30728028794E+02  0.28945799108E+02  0.18362005198E+03  0.21002106897E+03  0.92792536765E+02 0.  0.
          5    1    1    2  502    0 -0.18531860873E+02 -0.29323316932E+02  0.10737210590E+02  0.36551974975E+02  0.41800000000E+01 0. -1.
         -5    1    1    2    0  502  0.49259889667E+02  0.37751782444E+00  0.26004517295E+03  0.26470293468E+03  0.41800000000E+01 0. -1.
        -11    1    3    3    0    0  0.78936069764E+01 -0.29732834222E+02  0.43508830212E+02  0.53285727624E+02  0.00000000000E+00 0.  1.
         11    1    3    3    0    0 -0.38621635770E+02  0.58678633330E+02  0.14011122177E+03  0.15673534134E+03  0.00000000000E+00 0. -1.
</event>
<event>
 7    1  0.4687179E-006  0.1220459E+03  0.7561462E-02  0.1239760E+00
         -2   -1    0    0    0  501 -0.00000000000E+00  0.00000000000E+00  0.15903888452E+03  0.15903888452E+03  0.00000000000E+00 0.  1.
          2   -1    0    0  501    0  0.00000000000E+00 -0.00000000000E+00 -0.14418395050E+03  0.14418395050E+03  0.00000000000E+00 0. -1.
         23    2    1    2    0    0  0.38518216331E+02  0.97185754562E+02  0.24558869632E+01  0.13972963771E+03  0.92680183396E+02 0.  0.
          5    1    1    2  502    0 -0.57719935203E+02 -0.98094557782E+02  0.47383957744E+02  0.12335657679E+03  0.41800000000E+01 0.  1.
         -5    1    1    2    0  502  0.19201718872E+02  0.90880321948E+00 -0.34984910686E+02  0.40136620518E+02  0.41800000000E+01 0.  1.
        -11    1    3    3    0    0  0.47729779564E+00  0.49609173722E+02  0.43742389686E+02  0.66141474023E+02  0.00000000000E+00 0.  1.
         11    1    3    3    0    0  0.38040918535E+02  0.47576580841E+02 -0.41286502723E+02  0.73588163685E+02  0.00000000000E+00 0. -1.
</event>
<event>
 7    1  0.4687179E-006  0.1050162E+03  0.7561462E-02  0.1270088E+00
          4   -1    0    0  501    0  0.00000000000E+00  0.00000000000E+00  0.40300217681E+03  0.40300217681E+03  0.00000000000E+00 0.  1.
         -4   -1    0    0    0  501 -0.00000000000E+00 -0.00000000000E+00 -0.33191220965E+02  0.33191220965E+02  0.00000000000E+00 0. -1.
         23    2    1    2    0    0 -0.21830911992E+02 -0.37957728487E+02  0.16450053831E+03  0.19181905407E+03  0.88412355056E+02 0.  0.
          5    1    1    2  502    0  0.65163327826E+02  0.29684293140E+02  0.63485026514E+02  0.95787460266E+02  0.41800000000E+01 0. -1.
         -5    1    1    2    0  502 -0.43332415834E+02  0.82734353468E+01  0.14182539102E+03  0.14858688345E+03  0.41800000000E+01 0. -1.
        -11    1    3    3    0    0 -0.28382968737E+02  0.20598694685E+02  0.35014123561E+02  0.49556916629E+02  0.00000000000E+00 0. -1.
         11    1    3    3    0    0  0.65520567446E+01 -0.58556423172E+02  0.12948641475E+03  0.14226213744E+03  0.00000000000E+00 0.  1.
</event>
<event>
 7    1  0.4687179E-006  0.1428557E+03  0.7561462E-02  0.1209537E+00
          2   -1    0    0  501    0  0.00000000000E+00  0.00000000000E+00  0.47143357259E+03  0.47143357259E+03  0.00000000000E+00 0. -1.
         -2   -1    0    0    0  501 -0.00000000000E+00 -0.00000000000E+00 -0.51707076816E+02  0.51707076816E+02  0.00000000000E+00 0.  1.
         23    2    1    2    0    0  0.69970737365E+02  0.85196505813E+02  0.22635929830E+03  0.26781230037E+03  0.91271833599E+02 0.  0.
          5    1    1    2  502    0 -0.18255597980E+02  0.19053623223E+02  0.10716797535E+03  0.11044797307E+03  0.41800000000E+01 0. -1.
         -5    1    1    2    0  502 -0.51715139385E+02 -0.10425012904E+03  0.86199222121E+02  0.14488037597E+03  0.41800000000E+01 0. -1.
        -11    1    3    3    0    0 -0.11650398727E+02  0.53878859449E+02  0.76027101166E+02  0.93908377676E+02  0.00000000000E+00 0.  1.
         11    1    3    3    0    0  0.81621136092E+02  0.31317646363E+02  0.15033219714E+03  0.17390392269E+03  0.00000000000E+00 0. -1.
</event>
<event>
 7    1  0.4687179E-006  0.1022976E+03  0.7561462E-02  0.1275537E+00
         -2   -1    0    0    0  501 -0.00000000000E+00  0.00000000000E+00  0.34793089905E+03  0.34793089905E+03  0.00000000000E+00 0. -1.
          2   -1    0    0  501    0  0.00000000000E+00 -0.00000000000E+00 -0.36394590954E+02  0.36394590954E+02  0.00000000000E+00 0.  1.
         23    2    1    2    0    0 -0.27991933572E+02  0.29488004904E+01  0.15517979630E+03  0.18212241121E+03  0.91079963319E+02 0.  0.
          5    1    1    2  502    0  0.23879963969E+02  0.55461227871E+02  0.11638348575E+03  0.13118227255E+03  0.41800000000E+01 0. -1.
         -5    1    1    2    0  502  0.41119696034E+01 -0.58410028361E+02  0.39973026044E+02  0.71020806235E+02  0.41800000000E+01 0. -1.
        -11    1    3    3    0    0  0.14230971835E+02  0.31382867584E+02  0.25674814559E+02  0.42972096060E+02  0.00000000000E+00 0.  1.
         11    1    3    3    0    0 -0.42222905407E+02 -0.28434067094E+02  0.12950498174E+03  0.13915031515E+03  0.00000000000E+00 0. -1.
</event>
<event>
 7    1  0.4687179E-006  0.9361523E+02  0.7561462E-02  0.1294326E+00
          2   -1    0    0  501    0  0.00000000000E+00  0.00000000000E+00  0.43122497379E+03  0.43122497379E+03  0.00000000000E+00 0. -1.
         -2   -1    0    0    0  501 -0.00000000000E+00 -0.00000000000E+00 -0.28733647616E+02  0.28733647616E+02  0.00000000000E+00 0.  1.
         23    2    1    2    0    0  0.12725379415E+02  0.21344319465E+02  0.19849142802E+03  0.21936985950E+03  0.90037619932E+02 0.  0.
          5    1    1    2  502    0  0.25647767990E+02 -0.62367842284E+02  0.13918537112E+03  0.15471779370E+03  0.41800000000E+01 0.  1.
         -5    1    1    2    0  502 -0.38373147405E+02  0.41023522819E+02  0.64814527024E+02  0.85870968200E+02  0.41800000000E+01 0.  1.
        -11    1    3    3    0    0 -0.97219314785E+01 -0.16607387050E+02  0.36314073946E+01  0.19583369883E+02  0.00000000000E+00 0.  1.
         11    1    3    3    0    0  0.22447310894E+02  0.37951706514E+02  0.19486002063E+03  0.19978648962E+03  0.00000000000E+00 0. -1.
</event>
<event>
 7    1  0.4687179E-006  0.1695902E+03  0.7561462E-02  0.1178276E+00
         -2   -1    0    0    0  501 -0.00000000000E+00  0.00000000000E+00  0.39178945893E+02  0.39178945893E+02  0.00000000000E+00 0.  1.
          2   -1    0    0  501    0  0.00000000000E+00 -0.00000000000E+00 -0.74614310706E+03  0.74614310706E+03  0.00000000000E+00 0. -1.
         23    2    1    2    0    0 -0.10697232723E+03  0.74859950056E+02 -0.37205648428E+03  0.40471983992E+03  0.91241604621E+02 0.  0.
          5    1    1    2  502    0  0.26249170723E+02 -0.93428977863E+02 -0.16335541801E+03  0.19005382885E+03  0.41800000000E+01 0. -1.
         -5    1    1    2    0  502  0.80723156502E+02  0.18569027807E+02 -0.17155225888E+03  0.19054838419E+03  0.41800000000E+01 0. -1.
        -11    1    3    3    0    0 -0.25164593487E+02 -0.21220185931E+02 -0.69444541320E+02  0.76851137763E+02  0.00000000000E+00 0.  1.
         11    1    3    3    0    0 -0.81807733738E+02  0.96080135987E+02 -0.30261194296E+03  0.32786870215E+03  0.00000000000E+00 0. -1.
</event>
<event>
 7    1  0.4687179E-006  0.1900566E+03  0.7561462E-02  0.1158410E+00
         -1   -1    0    0    0  501 -0.00000000000E+00  0.00000000000E+00  0.15391414892E+03  0.15391414892E+03  0.00000000000E+00 0.  1.
          1   -1    0    0  501    0  0.00000000000E+00 -0.00000000000E+00 -0.30145373140E+03  0.30145373140E+03  0.00000000000E+00 0. -1.
         23    2    1    2    0    0 -0.55248262932E+02  0.15932842968E+03 -0.15286874309E+03  0.24533046298E+03  0.91543784014E+02 0.  0.
          5    1    1    2  502    0  0.21033901927E+02 -0.16057507600E+03  0.33590359978E+02  0.16544656160E+03  0.41800000000E+01 0. -1.
         -5    1    1    2    0  502  0.34214361006E+02  0.12466463185E+01 -0.28261199361E+02  0.44590855737E+02  0.41800000000E+01 0. -1.
        -11    1    3    3    0    0 -0.58186145038E+02  0.57680790114E+02 -0.33489691406E+02  0.88511357763E+02  0.00000000000E+00 0. -1.
         11    1    3    3    0    0  0.29378821056E+01  0.10164763957E+03 -0.11937905169E+03  0.15681910522E+03  0.00000000000E+00 0.  1.
</event>
<event>
 7    1  0.4687179E-006  0.1526314E+03  0.7561462E-02  0.1197276E+00
         -2   -1    0    0    0  501 -0.00000000000E+00  0.00000000000E+00  0.32048893017E+02  0.32048893017E+02  0.00000000000E+00 0. -1.
          2   -1    0    0  501    0  0.00000000000E+00 -0.00000000000E+00 -0.82700472380E+03  0.82700472380E+03  0.00000000000E+00 0.  1.
         23    2    1    2    0    0  0.87324465247E+02 -0.86190298262E+02 -0.30620484887E+03  0.33984465782E+03  0.81723021440E+02 0.  0.
          5    1    1    2  502    0 -0.38135370816E+02 -0.26758747063E+02 -0.84496149015E+02  0.96578510291E+02  0.41800000000E+01 0.  1.
         -5    1    1    2    0  502 -0.49189094432E+02  0.11294904533E+03 -0.40425483290E+03  0.42263044870E+03  0.41800000000E+01 0.  1.
        -11    1    3    3    0    0  0.50141047467E+02 -0.84184164078E+02 -0.14930384348E+03  0.17858537399E+03  0.00000000000E+00 0. -1.
         11    1    3    3    0    0  0.37183417780E+02 -0.20061341840E+01 -0.15690100538E+03  0.16125928383E+03  0.00000000000E+00 0.  1.
</event>
<event>
 7    1  0.4687179E-006  0.7970983E+02  0.7561462E-02  0.1329877E+00
          2   -1    0    0  501    0  0.00000000000E+00  0.00000000000E+00  0.43996060851E+03  0.43996060851E+03  0.00000000000E+00 0.  1.
         -2   -1    0    0    0  501 -0.00000000000E+00 -0.00000000000E+00 -0.57484875890E+02  0.57484875890E+02  0.00000000000E+00 0. -1.
         23    2    1    2    0    0  0.50359362232E+02 -0.61626166129E+01  0.34008289094E+03  0.35596121699E+03  0.92075903913E+02 0.  0.
          5    1    1    2  502    0 -0.52781199221E+02  0.54780875512E+01  0.84079900144E+02  0.99512644637E+02  0.41800000000E+01 0. -1.
         -5    1    1    2    0  502  0.24218369888E+01  0.68452906172E+00 -0.41687058468E+02  0.41971622772E+02  0.41800000000E+01 0. -1.
        -11    1    3    3    0    0  0.75550064412E+02 -0.84296709967E+01  0.29073654471E+03  0.30051058220E+03  0.00000000000E+00 0. -1.
         11    1    3    3    0    0 -0.25190702180E+02  0.22670543838E+01  0.49346346234E+02  0.55450634789E+02  0.00000000000E+00 0.  1.
</event>
<event>
 7    1  0.4687179E-006  0.8202119E+02  0.7561462E-02  0.1323412E+00
         -2   -1    0    0    0  501 -0.00000000000E+00  0.00000000000E+00  0.11774627982E+03  0.11774627982E+03  0.00000000000E+00 0.  1.
          2   -1    0    0  501    0  0.00000000000E+00 -0.00000000000E+00 -0.12718562867E+03  0.12718562867E+03  0.00000000000E+00 0. -1.
         23    2    1    2    0    0 -0.28836208069E+02 -0.44665321410E+02 -0.12496309469E+02  0.10897946682E+03  0.94307203364E+02 0.  0.
          5    1    1    2  502    0  0.12761330816E+02  0.39013879267E+02  0.61988554394E+02  0.74464673608E+02  0.41800000000E+01 0. -1.
         -5    1    1    2    0  502  0.16074877253E+02  0.56514421428E+01 -0.58931593768E+02  0.61487768060E+02  0.41800000000E+01 0. -1.
        -11    1    3    3    0    0  0.33219945528E+02 -0.16393407279E+02 -0.16746927030E+02  0.40654251291E+02  0.00000000000E+00 0.  1.
         11    1    3    3    0    0 -0.62056153597E+02 -0.28271914131E+02  0.42506175610E+01  0.68325215532E+02  0.00000000000E+00 0. -1.
</event>
<event>
 7    1  0.4687179E-006  0.1299952E+03  0.7561462E-02  0.1227463E+00
          2   -1    0    0  501    0  0.00000000000E+00  0.00000000000E+00  0.78057944583E+02  0.78057944583E+02  0.00000000000E+00 0. -1.
         -2   -1    0    0    0  501 -0.00000000000E+00 -0.00000000000E+00 -0.29907838184E+03  0.29907838184E+03  0.00000000000E+00 0.  1.
         23    2    1    2    0    0 -0.88831085487E+02  0.55806634392E+02 -0.81630382535E+02  0.16246878526E+03  0.93419722976E+02 0.  0.
          5    1    1    2  502    0  0.63865545134E+02 -0.77327469151E+02 -0.14938039183E+03  0.17997310689E+03  0.41800000000E+01 0. -1.
         -5    1    1    2    0  502  0.24965540353E+02  0.21520834759E+02  0.99903371062E+01  0.34694434270E+02  0.41800000000E+01 0. -1.
        -11    1    3    3    0    0 -0.10105052098E+03  0.47864355610E+02 -0.91822748526E+02  0.14468455853E+03  0.00000000000E+00 0.  1.
         11    1    3    3    0    0  0.12219435496E+02  0.79422787825E+01  0.10192365991E+02  0.17784226736E+02  0.00000000000E+00 0. -1.
</event>
<event>
 7    1  0.4687179E-006  0.1021053E+03  0.7561462E-02  0.1275930E+00
          1   -1    0    0  501    0  0.00000000000E+00  0.00000000000E+00  0.50382214613E+03  0.50382214613E+03  0.00000000000E+00 0. -1.
         -1   -1    0    0    0  501 -0.00000000000E+00 -0.00000000000E+00 -0.25410995557E+02  0.25410995557E+02  0.00000000000E+00 0.  1.
         23    2    1    2    0    0 -0.40911278092E+02 -0.24078600258E+02  0.22240803459E+03  0.24490411448E+03  0.90880029557E+02 0.  0.
          5    1    1    2  502    0 -0.24119829393E+02 -0.12345865058E+02  0.16192334103E+03  0.16422797364E+03  0.41800000000E+01 0. -1.
         -5    1    1    2    0  502  0.65031107485E+02  0.36424465316E+02  0.94079774952E+02  0.12010105357E+03  0.41800000000E+01 0.  1.
        -11    1    3    3    0    0 -0.48759517864E+02  0.23352966684E+02  0.10699976738E+03  0.11988245015E+03  0.00000000000E+00 0. -1.
         11    1    3    3    0    0  0.78482397718E+01 -0.47431566942E+02  0.11540826721E+03  0.12502166432E+03  0.00000000000E+00 0.  1.
</event>
<event>
 7    1  0.4687179E-006  0.1498909E+03  0.7561462E-02  0.1200607E+00
         -2   -1    0    0    0  501 -0.00000000000E+00  0.00000000000E+00  0.23717490376E+02  0.23717490376E+02  0.00000000000E+00 0.  1.
          2   -1    0    0  501    0  0.00000000000E+00 -0.00000000000E+00 -0.10138206485E+04  0.10138206485E+04  0.00000000000E+00 0. -1.
         23    2    1    2    0    0 -0.17487355194E+02 -0.10903654478E+03 -0.48859371164E+03  0.50899850569E+03  0.90337633605E+02 0.  0.
          5    1    1    2  502    0 -0.13298776515E+02  0.12351292908E+03 -0.44857199262E+03  0.46547460303E+03  0.41800000000E+01 0.  1.
         -5    1    1    2    0  502  0.30786131710E+02 -0.14476384295E+02 -0.52937453898E+02  0.63065030192E+02  0.41800000000E+01 0.  1.
        -11    1    3    3    0    0  0.22950881809E+02 -0.96023877385E+02 -0.30619731467E+03  0.32172056744E+03  0.00000000000E+00 0.  1.
         11    1    3    3    0    0 -0.40438237004E+02 -0.13012667395E+02 -0.18239639697E+03  0.18727793824E+03  0.00000000000E+00 0. -1.
</event>
<event>
 7    1  0.4687179E-006  0.1793158E+03  0.7561462E-02  0.1168467E+00
         -1   -1    0    0    0  501 -0.00000000000E+00  0.00000000000E+00  0.88210851475E+03  0.88210851475E+03  0.00000000000E+00 0.  1.
          1   -1    0    0  501    0  0.00000000000E+00 -0.00000000000E+00 -0.83569410154E+02  0.83569410154E+02  0.00000000000E+00 0. -1.
         23    2    1    2    0    0 -0.11481181329E+03  0.11293658543E+03  0.53234104291E+02  0.19296951596E+03  0.92015973774E+02 0.  0.
          5    1    1    2  502    0 -0.96661609227E+01  0.49407244116E+01  0.21609052805E+03  0.21640340602E+03  0.41800000000E+01 0. -1.
         -5    1    1    2    0  502  0.12447797421E+03 -0.11787730984E+03  0.52921447226E+03  0.55630500293E+03  0.41800000000E+01 0. -1.
        -11    1    3    3    0    0 -0.81319749495E+02  0.11623722536E+03  0.15965960084E+02  0.14275470605E+03  0.00000000000E+00 0. -1.
         11    1    3    3    0    0 -0.33492063796E+02 -0.33006399358E+01  0.37268144207E+02  0.50214809906E+02  0.00000000000E+00 0.  1.
</event>
<event>
 7    1  0.4687179E-006  0.8061567E+02  0.7561462E-02  0.1327313E+00
         -3   -1    0    0    0  501 -0.00000000000E+00  0.00000000000E+00  0.49752182772E+02  0.49752182772E+02  0.00000000000E+00 0.  1.
          3   -1    0    0  501    0  0.00000000000E+00 -0.00000000000E+00 -0.28383850162E+03  0.28383850162E+03  0.00000000000E+00 0. -1.
         23    2    1    2    0    0  0.36022344435E+02 -0.23765244948E+02 -0.13162036489E+03  0.16623106067E+03  0.91904564144E+02 0.  0.
          5    1    1    2  502    0 -0.54031981057E+02  0.12802277810E+02  0.67100283270E+01  0.56087879031E+02  0.41800000000E+01 0. -1.
         -5    1    1    2    0  502  0.18009636622E+02  0.10962967137E+02 -0.10917598228E+03  0.11127174469E+03  0.41800000000E+01 0. -1.
        -11    1    3    3    0    0  0.49920734904E+02  0.68893042870E+01 -0.12077811990E+03  0.13086976936E+03  0.00000000000E+00 0. -1.
         11    1    3    3    0    0 -0.13898390469E+02 -0.30654549235E+02 -0.10842244998E+02  0.35361291309E+02  0.00000000000E+00 0.  1.
</event>
<event>
 7    1  0.4687179E-006  0.1056101E+03  0.7561462E-02  0.1268922E+00
          2   -1    0    0  501    0  0.00000000000E+00  0.00000000000E+00  0.73373509094E+03  0.73373509094E+03  0.00000000000E+00 0. -1.
         -2   -1    0    0    0  501 -0.00000000000E+00 -0.00000000000E+00 -0.29137195780E+02  0.29137195780E+02  0.00000000000E+00 0.  1.
         23    2    1    2    0    0  0.69104376118E+02  0.15540188987E+02  0.49909656931E+03  0.51208125926E+03  0.90071739801E+02 0.  0.
          5    1    1    2  502    0 -0.66472295104E+02 -0.37119799781E+02  0.44520001283E+02  0.88294668392E+02  0.41800000000E+01 0. -1.
         -5    1    1    2    0  502 -0.26320810147E+01  0.21579610795E+02  0.16098132457E+03  0.16249635907E+03  0.41800000000E+01 0. -1.
        -11    1    3    3    0    0  0.60279371292E+02  0.49341758415E+02  0.38303643195E+03  0.39087737199E+03  0.00000000000E+00 0.  1.
         11    1    3    3    0    0  0.88250048268E+01 -0.33801569428E+02  0.11606013736E+03  0.12120388727E+03  0.00000000000E+00 0. -1.
</event>
<event>
 7    1  0.4687179E-006  0.9766890E+02  0.7561462E-02  0.1285276E+00
         -3   -1    0    0    0  501 -0.00000000000E+00  0.00000000000E+00  0.13364819724E+03  0.13364819724E+03  0.00000000000E+00 0.  1.
          3   -1    0    0  501    0  0.00000000000E+00 -0.00000000000E+00 -0.94652374255E+02  0.94652374255E+02  0.00000000000E+00 0. -1.
         23    2    1    2    0    0  0.86874815444E+01 -0.12337448536E+02  0.51900168377E+01  0.97848228567E+02  0.96538358112E+02 0.  0.
          5    1    1    2  502    0 -0.39812918794E+02 -0.26409924436E+02  0.57799295993E+02  0.75105150482E+02  0.41800000000E+01 0. -1.
         -5    1    1    2    0  502  0.31125437249E+02  0.38747372972E+02 -0.23993489849E+02  0.55347192443E+02  0.41800000000E+01 0. -1.
        -11    1    3    3    0    0 -0.37535036710E+02  0.18591783806E+02  0.53851151430E+01  0.42231894002E+02  0.00000000000E+00 0.  1.
         11    1    3    3    0    0  0.46222518254E+02 -0.30929232343E+02 -0.19509830530E+00  0.55616334565E+02  0.00000000000E+00 0. -1.
</event>
<event>
 7    1  0.4687179E-006  0.7893060E+02  0.7561462E-02  0.1332114E+00
         -1   -1    0    0    0  501 -0.00000000000E+00  0.00000000000E+00  0.97324691702E+03  0.97324691702E+03  0.00000000000E+00 0.  1.
          1   -1    0    0  501    0  0.00000000000E+00 -0.00000000000E+00 -0.15167709596E+02  0.15167709596E+02  0.00000000000E+00 0. -1.
         23    2    1    2    0    0  0.48543747845E+02 -0.22274738290E+02  0.36242189746E+03  0.37742614570E+03  0.90819624981E+02 0.  0.
          5    1    1    2  502    0 -0.11450938198E+02  0.89331667200E+01  0.11450604355E+01  0.15156154415E+02  0.41800000000E+01 0.  1.
         -5    1    1    2    0  502 -0.37092809647E+02  0.13341571570E+02  0.59451224953E+03  0.59583232650E+03  0.41800000000E+01 0.  1.
        -11    1    3    3    0    0 -0.14815288758E+02 -0.35425534960E+02  0.17450943263E+03  0.17868408822E+03  0.00000000000E+00 0.  1.
         11    1    3    3    0    0  0.63359036603E+02  0.13150796670E+02  0.18791246483E+03  0.19874205748E+03  0.00000000000E+00 0. -1.
</event>
<event>
 7    1  0.4687179E-006  0.8317569E+02  0.7561462E-02  0.1320273E+00
          2   -1    0    0  501    0  0.00000000000E+00  0.00000000000E+00  0.45931843036E+03  0.45931843036E+03  0.00000000000E+00 0. -1.
         -2   -1    0    0    0  501 -0.00000000000E+00 -0.00000000000E+00 -0.36590627522E+02  0.36590627522E+02  0.00000000000E+00 0.  1.
         23    2    1    2    0    0 -0.21323983992E+02 -0.37357662704E+02  0.32298743360E+03  0.33829943617E+03  0.90968780350E+02 0.  0.
          5    1    1    2  502    0  0.38416953522E+02  0.31800789272E+02  0.12011299559E+03  0.13012208355E+03  0.41800000000E+01 0. -1.
         -5    1    1    2    0  502 -0.17092969530E+02  0.55568734327E+01 -0.20372626352E+02  0.27487538162E+02  0.41800000000E+01 0.  1.
        -11    1    3    3    0    0 -0.11865597918E+02  0.28733678834E+02  0.68931932783E+02  0.75617643910E+02  0.00000000000E+00 0.  1.
         11    1    3    3    0    0 -0.94583860734E+01 -0.66091341538E+02  0.25405550081E+03  0.26268179226E+03  0.00000000000E+00 0. -1.
</event>
<event>
 7    1  0.4687179E-006  0.1263573E+03  0.7561462E-02  0.1232963E+00
         -2   -1    0    0    0  501 -0.00000000000E+00  0.00000000000E+00  0.21079360789E+03  0.21079360789E+03  0.00000000000E+00 0. -1.
          2   -1    0    0  501    0  0.00000000000E+00 -0.00000000000E+00 -0.82029277147E+02  0.82029277147E+02  0.00000000000E+00 0.  1.
         23    2    1    2    0    0  0.39886070714E+02  0.60836985868E+02  0.72909740511E+02  0.13769894560E+03  0.91395469642E+02 0.  0.
          5    1    1    2  502    0 -0.80303754603E+02 -0.32050078874E+02  0.59737428735E+02  0.10517572605E+03  0.41800000000E+01 0.  1.
         -5    1    1    2    0  502  0.40417683889E+02 -0.28786906994E+02 -0.38828385054E+01  0.49948213382E+02  0.41800000000E+01 0.  1.
        -11    1    3    3    0    0  0.12294009637E+02 -0.24095898412E+02  0.11943311486E+02  0.29570216139E+02  0.00000000000E+00 0.  1.
         11    1    3    3    0    0  0.27592061077E+02  0.84932884280E+02  0.60966429025E+02  0.10812872946E+03  0.00000000000E+00 0. -1.
</event>
<event>
 7    1  0.4687179E-006  0.1471454E+03  0.7561462E-02  0.1204025E+00
         -1   -1    0    0    0  501 -0.00000000000E+00  0.00000000000E+00  0.13510945571E+03  0.13510945571E+03  0.00000000000E+00 0.  1.
          1   -1    0    0  501    0  0.00000000000E+00 -0.00000000000E+00 -0.38034692396E+03  0.38034692396E+03  0.00000000000E+00 0. -1.
         23    2    1    2    0    0  0.19023574627E+02  0.10763511685E+03 -0.30676846612E+03  0.33831253155E+03  0.91658400735E+02 0.  0.
          5    1    1    2  502    0  0.38694728179E+02 -0.99041018809E+02  0.49734247295E+02  0.11746222009E+03  0.41800000000E+01 0. -1.
         -5    1    1    2    0  502 -0.57718302806E+02 -0.85940980428E+01  0.11796750571E+02  0.59681628027E+02  0.41800000000E+01 0. -1.
        -11    1    3    3    0    0 -0.13601319180E+02  0.92347706830E+02 -0.27453212089E+03  0.28996720546E+03  0.00000000000E+00 0. -1.
         11    1    3    3    0    0  0.32624893806E+02  0.15287410022E+02 -0.32236345231E+02  0.48345326092E+02  0.00000000000E+00 0.  1.
</event>
<event>
 7    1  0.4687179E-006  0.1057029E+03  0.7561462E-02  0.1268741E+00
         -2   -1    0    0    0  501 -0.00000000000E+00  0.00000000000E+00  0.12979399226E+02  0.12979399226E+02  0.00000000000E+00 0.  1.
          2   -1    0    0  501    0  0.00000000000E+00 -0.00000000000E+00 -0.11047806838E+04  0.11047806838E+04  0.00000000000E+00 0. -1.
         23    2    1    2    0    0  0.25775227700E+02 -0.42798048812E+02 -0.43908260399E+03  0.45128776028E+03  0.91493574090E+02 0.  0.
          5    1    1    2  502    0  0.84935704741E+01  0.65535744883E+02 -0.17732433885E+03  0.18928409374E+03  0.41800000000E+01 0. -1.
         -5    1    1    2    0  502 -0.34268798174E+02 -0.22737696071E+02 -0.47539434172E+03  0.47718822899E+03  0.41800000000E+01 0. -1.
        -11    1    3    3    0    0  0.58016130433E+02 -0.41960856688E+02 -0.28395850857E+03  0.29284640936E+03  0.00000000000E+00 0. -1.
         11    1    3    3    0    0 -0.32240902733E+02 -0.83719212440E+00 -0.15512409542E+03  0.15844135092E+03  0.00000000000E+00 0.  1.
</event>
<event>
 7    1  0.4687179E-006  0.1063532E+03  0.7561462E-02  0.1267476E+00
          1   -1    0    0  501    0  0.00000000000E+00  0.00000000000E+00  0.33204064297E+03  0.33204064297E+03  0.00000000000E+00 0. -1.
         -1   -1    0    0    0  501 -0.00000000000E+00 -0.00000000000E+00 -0.41919970778E+02  0.41919970778E+02  0.00000000000E+00 0.  1.
         23    2    1    2    0    0 -0.42316098442E+02 -0.12061727013E+02  0.15227820477E+03  0.18268649966E+03  0.90827132849E+02 0.  0.
          5    1    1    2  502    0 -0.34642343681E+02 -0.27026580265E+02  0.63186129706E+02  0.77074557435E+02  0.41800000000E+01 0.  1.
         -5    1    1    2    0  502  0.76958442123E+02  0.39088307278E+02  0.74656337707E+02  0.11419955665E+03  0.41800000000E+01 0.  1.
        -11    1    3    3    0    0 -0.94780124860E+01  0.28459459738E+02  0.10767742273E+02  0.31870328566E+02  0.00000000000E+00 0.  1.
         11    1    3    3    0    0 -0.32838085957E+02 -0.40521186751E+02  0.14151046250E+03  0.15081617109E+03  0.00000000000E+00 0. -1.
</event>
<event>
 7    1  0.4687179E-006  0.1384084E+03  0.7561462E-02  0.1215487E+00
         -2   -1    0    0    0  501 -0.00000000000E+00  0.00000000000E+00  0.28583325073E+03  0.28583325073E+03  0.00000000000E+00 0.  1.
          2   -1    0    0  501    0  0.00000000000E+00 -0.00000000000E+00 -0.10335626841E+03  0.10335626841E+03  0.00000000000E+00 0. -1.
         23    2    1    2    0    0  0.95399308847E+02  0.79849045049E+02  0.35359677085E+02  0.15947495172E+03  0.93300886049E+02 0.  0.
          5    1    1    2  502    0 -0.10086553814E+03 -0.34928265612E+02  0.41260564216E+02  0.11451527009E+03  0.41800000000E+01 0. -1.
         -5    1    1    2    0  502  0.54662292972E+01 -0.44920779437E+02  0.10585674101E+03  0.11519929733E+03  0.41800000000E+01 0. -1.
        -11    1    3    3    0    0  0.38316974132E+02  0.28302608860E+02 -0.31876240692E+02  0.57317736309E+02  0.00000000000E+00 0. -1.
         11    1    3    3    0    0  0.57082334716E+02  0.51546436189E+02  0.67235917778E+02  0.10215721541E+03  0.00000000000E+00 0.  1.
</event>
<event>
 7    1  0.5475467E-006  0.2174666E+03  0.7561462E-02  0.1135786E+00
          1   -1    0    0  501    0  0.00000000000E+00  0.00000000000E+00  0.46404121870E+02  0.46404121870E+02  0.00000000000E+00 0. -1.
         -1   -1    0    0    0  501 -0.00000000000E+00 -0.00000000000E+00 -0.12105591876E+04  0.12105591876E+04  0.00000000000E+00 0.  1.
         23    2    1    2    0    0 -0.76007497226E+01 -0.20439409662E+03 -0.42981597291E+03  0.48447628893E+03  0.90226303442E+02 0.  0.
          5    1    1    2  502    0 -0.28083893256E+02  0.13692991816E+03 -0.61552277442E+03  0.63120857550E+03  0.41800000000E+01 0.  1.
         -5    1    1    2    0  502  0.35684642979E+02  0.67464178457E+02 -0.11881631844E+03  0.14127844509E+03  0.41800000000E+01 0.  1.
        -11    1    3    3    0    0 -0.34862999424E+02 -0.44885946701E+02 -0.71676933146E+02  0.91475459470E+02  0.00000000000E+00 0. -1.
         11    1    3    3    0    0  0.27262249701E+02 -0.15950814992E+03 -0.35813903976E+03  0.39300082946E+03  0.00000000000E+00 0.  1.
</event>
<event>
 7    1  0.4687179E-006  0.1136310E+03  0.7561462E-02  0.1253990E+00
         -2   -1    0    0    0  501 -0.00000000000E+00  0.00000000000E+00  0.38694675981E+02  0.38694675981E+02  0.00000000000E+00 0.  1.
          2   -1    0    0  501    0  0.00000000000E+00 -0.00000000000E+00 -0.38963831001E+03  0.38963831001E+03  0.00000000000E+00 0. -1.
         23    2    1    2    0    0  0.15945911879E+02  0.54952364588E+02 -0.17119149824E+03  0.20198928634E+03  0.90659297624E+02 0.  0.
          5    1    1    2  502    0  0.50236600742E+02 -0.42269818001E+02 -0.11669063241E+03  0.13395756664E+03  0.41800000000E+01 0.  1.
         -5    1    1    2    0  502 -0.66182512621E+02 -0.12682546588E+02 -0.63061503375E+02  0.92386133011E+02  0.41800000000E+01 0.  1.
        -11    1    3    3    0    0 -0.22438810989E+02 -0.47934784049E+01 -0.84900710065E+01  0.24465465038E+02  0.00000000000E+00 0.  1.
         11    1    3    3    0    0  0.38384722868E+02  0.59745842993E+02 -0.16270142724E+03  0.17752382130E+03  0.00000000000E+00 0. -1.
</event>
<event>
 7    1  0.4687179E-006  0.1703457E+03  0.7561462E-02  0.1177488E+00
          4   -1    0    0  501    0  0.00000000000E+00  0.00000000000E+00  0.64280596959E+02  0.64280596959E+02  0.00000000000E+00 0. -1.
         -4   -1    0    0    0  501 -0.00000000000E+00 -0.00000000000E+00 -0.49801869097E+03  0.49801869097E+03  0.00000000000E+00 0.  1.
         23    2    1    2    0    0  0.50741213792E+02  0.12564601001E+03 -0.13752748752E+03  0.21337127504E+03  0.90839972387E+02 0.  0.
          5    1    1    2  502    0  0.37170437920E+02 -0.29458572042E+02 -0.12476450079E+03  0.13354063793E+03  0.41800000000E+01 0. -1.
         -5    1    1    2    0  502 -0.87911651712E+02 -0.96187437965E+02 -0.17144610571E+03  0.21538737496E+03  0.41800000000E+01 0. -1.
        -11    1    3    3    0    0  0.76830477837E+02  0.86918895708E+02 -0.10493739024E+03  0.15642785118E+03  0.00000000000E+00 0. -1.
         11    1    3    3    0    0 -0.26089264045E+02  0.38727114298E+02 -0.32590097280E+02  0.56943423860E+02  0.00000000000E+00 0.  1.
</event>
<event>
 7    1  0.4687179E-006  0.9015836E+02  0.7561462E-02  0.1302469E+00
         -2   -1    0    0    0  501 -0.00000000000E+00  0.00000000000E+00  0.29522720396E+03  0.29522720396E+03  0.00000000000E+00 0.  1.
          2   -1    0    0  501    0  0.00000000000E+00 -0.00000000000E+00 -0.42525863238E+02  0.42525863238E+02  0.00000000000E+00 0. -1.
         23    2    1    2    0    0  0.66444406378E+01 -0.36993020891E+02  0.14104150933E+03  0.17650378972E+03  0.99238340596E+02 0.  0.
          5    1    1    2  502    0 -0.44101535907E+02  0.54469521817E+02  0.47336923652E+02  0.84676626156E+02  0.41800000000E+01 0. -1.
         -5    1    1    2    0  502  0.37457095270E+02 -0.17476500926E+02  0.64322907733E+02  0.76572651318E+02  0.41800000000E+01 0.  1.
        -11    1    3    3    0    0  0.30605336626E+02 -0.31622628110E+02  0.14508972678E+03  0.15161697153E+03  0.00000000000E+00 0.  1.
         11    1    3    3    0    0 -0.23960895989E+02 -0.53703927815E+01 -0.40482174453E+01  0.24886818191E+02  0.00000000000E+00 0. -1.
</event>
<event>
 7    1  0.4687179E-006  0.1465935E+03  0.7561462E-02  0.1204723E+00
         -1   -1    0    0    0  501 -0.00000000000E+00  0.00000000000E+00  0.32474391056E+02  0.32474391056E+02  0.00000000000E+00 0.  1.
          1   -1    0    0  501    0  0.00000000000E+00 -0.00000000000E+00 -0.66648481822E+03  0.66648481822E+03  0.00000000000E+00 0. -1.
         23    2    1    2    0    0  0.98800605318E+02 -0.39623531062E+02 -0.30866831354E+03  0.33928211337E+03  0.92220609654E+02 0.  0.
          5    1    1    2  502    0  0.11391661709E+02  0.41241185987E+02 -0.85797245930E+02  0.95964812235E+02  0.41800000000E+01 0. -1.
         -5    1    1    2    0  502 -0.11019226703E+03 -0.16176549255E+01 -0.23954486769E+03  0.26371228367E+03  0.41800000000E+01 0.  1.
        -11    1    3    3    0    0  0.50674407108E+01 -0.45704030335E+02 -0.83871041717E+02  0.95649824793E+02  0.00000000000E+00 0.  1.
         11    1    3    3    0    0  0.93733164607E+02  0.60804992734E+01 -0.22479727182E+03  0.24363228858E+03  0.00000000000E+00 0. -1.
</event>
<event>
 7    1  0.4687179E-006  0.1160430E+03  0.7561462E-02  0.1249771E+00
         -3   -1    0    0    0  501 -0.00000000000E+00  0.00000000000E+00  0.96118732383E+02  0.96118732383E+02  0.00000000000E+00 0.  1.
          3   -1    0    0  501    0  0.00000000000E+00 -0.00000000000E+00 -0.17258924028E+03  0.17258924028E+03  0.00000000000E+00 0. -1.
         23    2    1    2    0    0  0.35363111073E+02  0.60181774612E+02 -0.24691436146E+02  0.11641225002E+03  0.89831783433E+02 0.  0.
          5    1    1    2  502    0 -0.81849784050E+02 -0.47924112036E+02 -0.35710682059E+02  0.10143388426E+03  0.41800000000E+01 0.  1.
         -5    1    1    2    0  502  0.46486672977E+02 -0.12257662576E+02 -0.16068389688E+02  0.50861838381E+02  0.41800000000E+01 0.  1.
        -11    1    3    3    0    0 -0.21693093695E+00  0.52485802834E+02  0.22251739203E+02  0.57008301639E+02  0.00000000000E+00 0.  1.
         11    1    3    3    0    0  0.35580042010E+02  0.76959717777E+01 -0.46943175349E+02  0.59403948378E+02  0.00000000000E+00 0. -1.
</event>
<event>
 7    1  0.4687179E-006  0.9704064E+02  0.7561462E-02  0.1286645E+00
          2   -1    0    0  501    0  0.00000000000E+00  0.00000000000E+00  0.46904217730E+03  0.46904217730E+03  0.00000000000E+00 0. -1.
         -2   -1    0    0    0  501 -0.00000000000E+00 -0.00000000000E+00 -0.35394557670E+02  0.35394557670E+02  0.00000000000E+00 0.  1.
         23    2    1    2    0    0  0.15951304469E+02 -0.96271428039E+01  0.20853427561E+03  0.22770531206E+03  0.89532335186E+02 0.  0.
          5    1    1    2  502    0  0.40723525783E+02  0.22145965306E+02  0.21204191340E+03  0.21709006143E+03  0.41800000000E+01 0. -1.
         -5    1    1    2    0  502 -0.56674830253E+02 -0.12518822502E+02  0.13071430619E+02  0.59641361482E+02  0.41800000000E+01 0.  1.
        -11    1    3    3    0    0  0.52204426326E+02 -0.16756964720E+01  0.14505392813E+03  0.15417117809E+03  0.00000000000E+00 0.  1.
         11    1    3    3    0    0 -0.36253121857E+02 -0.79514463319E+01  0.63480347473E+02  0.73534133968E+02  0.00000000000E+00 0. -1.
</event>
<event>
 7    1  0.4687179E-006  0.1083045E+03  0.7561462E-02  0.1263742E+00
         -2   -1    0    0    0  501 -0.00000000000E+00  0.00000000000E+00  0.39541148279E+02  0.39541148279E+02  0.00000000000E+00 0.  1.
          2   -1    0    0  501    0  0.00000000000E+00 -0.00000000000E+00 -0.31165757649E+03  0.31165757649E+03  0.00000000000E+00 0. -1.
         23    2    1    2    0    0 -0.10481128364E+02 -0.84787736754E+00 -0.15182628554E+03  0.17733730666E+03  0.91031458326E+02 0.  0.
          5    1    1    2  502    0  0.76485470022E+00  0.62445675323E+02 -0.67474795508E+02  0.92034601091E+02  0.41800000000E+01 0. -1.
         -5    1    1    2    0  502  0.97162736638E+01 -0.61597797955E+02 -0.52815347159E+02  0.81826817012E+02  0.41800000000E+01 0. -1.
        -11    1    3    3    0    0  0.40498379264E+02 -0.16801241554E+01 -0.71719760988E+02  0.82381221503E+02  0.00000000000E+00 0. -1.
         11    1    3    3    0    0 -0.50979507628E+02  0.83224678786E+00 -0.80106524553E+02  0.94956085158E+02  0.00000000000E+00 0.  1.
</event>
<event>
 7    1  0.4687179E-006  0.1297737E+03  0.7561462E-02  0.1227792E+00
         -4   -1    0    0    0  501 -0.00000000000E+00  0.00000000000E+00  0.47449213571E+03  0.47449213571E+03  0.00000000000E+00 0.  1.
          4   -1    0    0  501    0  0.00000000000E+00 -0.00000000000E+00 -0.51144442966E+02  0.51144442966E+02  0.00000000000E+00 0. -1.
         23    2    1    2    0    0 -0.78776026418E+02 -0.84070167621E+01  0.63203447370E+02  0.13624409989E+03  0.91057337568E+02 0.  0.
          5    1    1    2  502    0  0.16883563160E+02 -0.52084452861E+02  0.87421306170E+02  0.10323663162E+03  0.41800000000E+01 0. -1.
         -5    1    1    2    0  502  0.61892463258E+02  0.60491469623E+02  0.27272293920E+03  0.28615584717E+03  0.41800000000E+01 0. -1.
        -11    1    3    3    0    0  0.16278444476E+02 -0.15752879137E+02  0.15450541893E+01  0.22705244947E+02  0.00000000000E+00 0. -1.
         11    1    3    3    0    0 -0.95054470894E+02  0.73458623745E+01  0.61658393181E+02  0.11353885494E+03  0.00000000000E+00 0.  1.
</event>
<event>
 7    1  0.4687179E-006  0.1243771E+03  0.7561462E-02  0.1236046E+00
         -2   -1    0    0    0  501 -0.00000000000E+00  0.00000000000E+00  0.18902506867E+03  0.18902506867E+03  0.00000000000E+00 0.  1.
          2   -1    0    0  501    0  0.00000000000E+00 -0.00000000000E+00 -0.10641874304E+03  0.10641874304E+03  0.00000000000E+00 0. -1.
         23    2    1    2    0    0  0.57503656226E+02 -0.69283888017E+02  0.36047671314E+01  0.12225118785E+03  0.82616166502E+02 0.  0.
          5    1    1    2  502    0  0.13619126980E+02  0.79118585697E+02  0.28423749624E+02  0.85267890586E+02  0.41800000000E+01 0. -1.
         -5    1    1    2    0  502 -0.71122783206E+02 -0.98346976797E+01  0.50577808881E+02  0.87924733270E+02  0.41800000000E+01 0. -1.
        -11    1    3    3    0    0  0.29176748112E+02 -0.59854446034E+02  0.38031162561E+02  0.76682505607E+02  0.00000000000E+00 0.  1.
         11    1    3    3    0    0  0.28326908114E+02 -0.94294419825E+01 -0.34426395429E+02  0.45568682246E+02  0.00000000000E+00 0. -1.
</event>
<event>
 7    1  0.4687179E-006  0.1538584E+03  0.7561462E-02  0.1195810E+00
          1   -1    0    0  501    0  0.00000000000E+00  0.00000000000E+00  0.53509072128E+02  0.53509072128E+02  0.00000000000E+00 0. -1.
         -1   -1    0    0    0  501 -0.00000000000E+00 -0.00000000000E+00 -0.59287332581E+03  0.59287332581E+03  0.00000000000E+00 0.  1.
         23    2    1    2    0    0  0.11428102508E+03  0.81785279698E+02 -0.23915768139E+03  0.29209353183E+03  0.91505464886E+02 0.  0.
          5    1    1    2  502    0 -0.11137033228E+03 -0.37131674419E+02 -0.11755401513E+03  0.16618823975E+03  0.41800000000E+01 0. -1.
         -5    1    1    2    0  502 -0.29106927938E+01 -0.44653605278E+02 -0.18265255717E+03  0.18810062636E+03  0.41800000000E+01 0. -1.
        -11    1    3    3    0    0  0.54195080356E+02  0.16672118246E+02 -0.28287455775E+02  0.63365972065E+02  0.00000000000E+00 0. -1.
         11    1    3    3    0    0  0.60085944721E+02  0.65113161451E+02 -0.21087022561E+03  0.22872755977E+03  0.00000000000E+00 0.  1.
</event>
<event>
 7    1  0.4687179E-006  0.7862759E+02  0.7561462E-02  0.1332992E+00
         -1   -1    0    0    0  501 -0.00000000000E+00  0.00000000000E+00  0.34911967286E+03  0.34911967286E+03  0.00000000000E+00 0.  1.
          1   -1    0    0  501    0  0.00000000000E+00 -0.00000000000E+00 -0.45220231895E+02  0.45220231895E+02  0.00000000000E+00 0. -1.
         23    2    1    2    0    0 -0.32184808015E+02  0.43062617033E+02  0.87362571545E+02  0.13855863578E+03  0.93145186612E+02 0.  0.
          5    1    1    2  502    0 -0.14985984994E+02  0.93823560255E+01 -0.83932524365E+01  0.20013181589E+02  0.41800000000E+01 0.  1.
         -5    1    1    2    0  502  0.47170793009E+02 -0.52444973059E+02  0.22493012186E+03  0.23576808739E+03  0.41800000000E+01 0.  1.
        -11    1    3    3    0    0 -0.18621670958E+02 -0.43400983555E+01 -0.15418833070E+02  0.24563051444E+02  0.00000000000E+00 0. -1.
         11    1    3    3    0    0 -0.13563137056E+02  0.47402715389E+02  0.10278140461E+03  0.11399558433E+03  0.00000000000E+00 0.  1.
</event>
<event>
 7    1  0.4687179E-006  0.2736386E+03  0.7561462E-02  0.1099215E+00
          2   -1    0    0  501    0  0.00000000000E+00  0.00000000000E+00  0.14874209710E+04  0.14874209710E+04  0.00000000000E+00 0. -1.
         -2   -1    0    0    0  501 -0.00000000000E+00 -0.00000000000E+00 -0.80957636688E+02  0.80957636688E+02  0.00000000000E+00 0.  1.
         23    2    1    2    0    0  0.12867647278E+03 -0.23997409276E+03  0.11123779446E+04  0.11485223114E+04  0.87026480957E+02 0.  0.
          5    1    1    2  502    0 -0.12797147201E+02  0.31712452252E+02 -0.76862881113E+01  0.35298697274E+02  0.41800000000E+01 0.  1.
         -5    1    1    2    0  502 -0.11587932558E+03  0.20826164051E+03  0.30177167787E+03  0.38455759903E+03  0.41800000000E+01 0.  1.
        -11    1    3    3    0    0  0.11209606138E+03 -0.17841845778E+03  0.96845826930E+03  0.99111557976E+03  0.00000000000E+00 0. -1.
         11    1    3    3    0    0  0.16580411399E+02 -0.61555634976E+02  0.14391967527E+03  0.15740673165E+03  0.00000000000E+00 0.  1.
</event>
<event>
 7    1  0.4687179E-006  0.9377248E+02  0.7561462E-02  0.1293965E+00
          1   -1    0    0  501    0  0.00000000000E+00  0.00000000000E+00  0.12183911829E+03  0.12183911829E+03  0.00000000000E+00 0. -1.
         -1   -1    0    0    0  501 -0.00000000000E+00 -0.00000000000E+00 -0.13947305692E+03  0.13947305692E+03  0.00000000000E+00 0.  1.
         23    2    1    2    0    0 -0.74647810362E+01 -0.25911045750E+02  0.54820407082E+02  0.11426143749E+03  0.96557204889E+02 0.  0.
          5    1    1    2  502    0  0.61396382435E+02  0.18638377755E+02 -0.65911581322E+02  0.92079931873E+02  0.41800000000E+01 0. -1.
         -5    1    1    2    0  502 -0.53931601399E+02  0.72726679953E+01 -0.65427643911E+01  0.54970805843E+02  0.41800000000E+01 0. -1.
        -11    1    3    3    0    0  0.55367345325E+01 -0.45126599580E+02 -0.90066139028E+01  0.46348511442E+02  0.00000000000E+00 0.  1.
         11    1    3    3    0    0 -0.13001515569E+02  0.19215553829E+02  0.63827020985E+02  0.67912926044E+02  0.00000000000E+00 0. -1.
</event>
<event>
 7    1  0.4687179E-006  0.1490749E+03  0.7561462E-02  0.1201614E+00
         -3   -1    0    0    0  501 -0.00000000000E+00  0.00000000000E+00  0.20328739557E+03  0.20328739557E+03  0.00000000000E+00 0.  1.
          3   -1    0    0  501    0  0.00000000000E+00 -0.00000000000E+00 -0.19688573480E+03  0.19688573480E+03  0.00000000000E+00 0. -1.
         23    2    1    2    0    0  0.84486742076E+02 -0.10591574002E+03 -0.95414897421E+02  0.18953069750E+03  0.91987657183E+02 0.  0.
          5    1    1    2  502    0 -0.83609053231E+02  0.79197477658E+02  0.10864157256E+02  0.11575066549E+03  0.41800000000E+01 0. -1.
         -5    1    1    2    0  502 -0.87768884466E+00  0.26718262363E+02  0.90952400935E+02  0.94891767384E+02  0.41800000000E+01 0. -1.
        -11    1    3    3    0    0  0.44980822471E+02 -0.10727455685E+03 -0.94696144698E+02  0.14999488244E+03  0.00000000000E+00 0. -1.
         11    1    3    3    0    0  0.39505919605E+02  0.13588168275E+01 -0.71875272273E+00  0.39535815060E+02  0.00000000000E+00 0.  1.
</event>
<event>
 7    1  0.4687179E-006  0.1621484E+03  0.7561462E-02  0.1186292E+00
          1   -1    0    0  501    0  0.00000000000E+00  0.00000000000E+00  0.49328790871E+03  0.49328790871E+03  0.00000000000E+00 0. -1.
         -1   -1    0    0    0  501 -0.00000000000E+00 -0.00000000000E+00 -0.59001581414E+02  0.59001581414E+02  0.00000000000E+00 0.  1.
         23    2    1    2    0    0 -0.11014827699E+03 -0.59456860433E+02  0.26845205707E+03  0.30978788994E+03  0.90742870995E+02 0.  0.
          5    1    1    2  502    0  0.10902450295E+03  0.90945954516E+02  0.15138242859E+03  0.20758521376E+03  0.41800000000E+01 0. -1.
         -5    1    1    2    0  502  0.11237740392E+01 -0.31489094083E+02  0.14451841646E+02  0.34916386428E+02  0.41800000000E+01 0. -1.
        -11    1    3    3    0    0 -0.11253322955E+03 -0.24162321460E+02  0.17112333947E+03  0.20622983014E+03  0.00000000000E+00 0.  1.
         11    1    3    3    0    0  0.23849525594E+01 -0.35294538973E+02  0.97328717599E+02  0.10355805980E+03  0.00000000000E+00 0. -1.
</event>
<event>
 7    1  0.4687179E-006  0.6923736E+02  0.7561462E-02  0.1362706E+00
         -2   -1    0    0    0  501 -0.00000000000E+00  0.00000000000E+00  0.54911843613E+02  0.54911843613E+02  0.00000000000E+00 0.  1.
          2   -1    0    0  501    0  0.00000000000E+00 -0.00000000000E+00 -0.26033628895E+03  0.26033628895E+03  0.00000000000E+00 0. -1.
         23    2    1    2    0    0 -0.44105054663E+02 -0.62063754847E+01 -0.11919383487E+03  0.15692114550E+03  0.91833004364E+02 0.  0.
          5    1    1    2  502    0  0.34587369853E+01 -0.17398351235E+02  0.28750029911E+02  0.34039713675E+02  0.41800000000E+01 0. -1.
         -5    1    1    2    0  502  0.40646317678E+02  0.23604726720E+02 -0.11498064037E+03  0.12428727338E+03  0.41800000000E+01 0. -1.
        -11    1    3    3    0    0 -0.19913003364E+02  0.26019761325E+02 -0.18119774941E+01  0.32815224284E+02  0.00000000000E+00 0.  1.
         11    1    3    3    0    0 -0.24192051300E+02 -0.32226136810E+02 -0.11738185738E+03  0.12410592122E+03  0.00000000000E+00 0. -1.
</event>
<event>
 7    1  0.4687179E-006  0.1814842E+03  0.7561462E-02  0.1166374E+00
          2   -1    0    0  501    0  0.00000000000E+00  0.00000000000E+00  0.28834857615E+03  0.28834857615E+03  0.00000000000E+00 0. -1.
         -2   -1    0    0    0  501 -0.00000000000E+00 -0.00000000000E+00 -0.14366639753E+03  0.14366639753E+03  0.00000000000E+00 0.  1.
         23    2    1    2    0    0 -0.84479938810E+02 -0.14118653656E+03  0.21805766690E+02  0.19164654644E+03  0.95824887864E+02 0.  0.
          5    1    1    2  502    0  0.71363359953E+02  0.14696689089E+03  0.57409422391E+02  0.17322040971E+03  0.41800000000E+01 0. -1.
         -5    1    1    2    0  502  0.13116578857E+02 -0.57803543283E+01  0.65466989548E+02  0.67148017525E+02  0.41800000000E+01 0. -1.
        -11    1    3    3    0    0  0.13298051304E+02 -0.46996172509E+02 -0.14796189768E+02  0.51033377613E+02  0.00000000000E+00 0.  1.
         11    1    3    3    0    0 -0.97777990115E+02 -0.94190364054E+02  0.36601956458E+02  0.14061316883E+03  0.00000000000E+00 0. -1.
</event>
<event>
 7    1  0.4687179E-006  0.3066015E+03  0.7561462E-02  0.1081986E+00
          2   -1    0    0  501    0  0.00000000000E+00  0.00000000000E+00  0.22220263256E+03  0.22220263256E+03  0.00000000000E+00 0. -1.
         -2   -1    0    0    0  501 -0.00000000000E+00 -0.00000000000E+00 -0.53964825835E+03  0.53964825835E+03  0.00000000000E+00 0.  1.
         23    2    1    2    0    0  0.28514041609E+03  0.71320730126E+02  0.47667338971E+01  0.30813601734E+03  0.92376295641E+02 0.  0.
          5    1    1    2  502    0 -0.11417837782E+02  0.13935632526E+02 -0.68183453452E+02  0.70647183936E+02  0.41800000000E+01 0. -1.
         -5    1    1    2    0  502 -0.27372257830E+03 -0.85256362652E+02 -0.25402890624E+03  0.38306768965E+03  0.41800000000E+01 0. -1.
        -11    1    3    3    0    0  0.27256235351E+03  0.41607650941E+02  0.68299861184E+01  0.27580442686E+03  0.00000000000E+00 0. -1.
         11    1    3    3    0    0  0.12578062580E+02  0.29713079185E+02 -0.20632522213E+01  0.32331590475E+02  0.00000000000E+00 0.  1.
</event>
<event>
 7    1  0.4687179E-006  0.1255244E+03  0.7561462E-02  0.1234252E+00
          4   -1    0    0  501    0  0.00000000000E+00  0.00000000000E+00  0.86384545458E+02  0.86384545458E+02  0.00000000000E+00 0. -1.
         -4   -1    0    0    0  501 -0.00000000000E+00 -0.00000000000E+00 -0.24626247893E+03  0.24626247893E+03  0.00000000000E+00 0.  1.
         23    2    1    2    0    0 -0.32723852171E+02 -0.88472845969E+02 -0.41764615183E+02  0.13644224104E+03  0.89296736138E+02 0.  0.
          5    1    1    2  502    0 -0.27653955044E+02  0.91852330414E+02 -0.70301773197E+02  0.11900169556E+03  0.41800000000E+01 0.  1.
         -5    1    1    2    0  502  0.60377807215E+02 -0.33794844457E+01 -0.47811545096E+02  0.77203087786E+02  0.41800000000E+01 0.  1.
        -11    1    3    3    0    0 -0.20986902268E+02 -0.51037979120E+02  0.23750938077E+02  0.60078552238E+02  0.00000000000E+00 0. -1.
         11    1    3    3    0    0 -0.11736949902E+02 -0.37434866849E+02 -0.65515553261E+02  0.76363688806E+02  0.00000000000E+00 0.  1.
</event>
<event>
 7    1  0.4687179E-006  0.9611867E+02  0.7561462E-02  0.1288676E+00
         -3   -1    0    0    0  501 -0.00000000000E+00  0.00000000000E+00  0.12470702426E+03  0.12470702426E+03  0.00000000000E+00 0.  1.
          3   -1    0    0  501    0  0.00000000000E+00 -0.00000000000E+00 -0.14505322576E+03  0.14505322576E+03  0.00000000000E+00 0. -1.
         23    2    1    2    0    0 -0.27564462136E+02 -0.12367019684E+02 -0.82996097815E+02  0.12663241055E+03  0.90745095733E+02 0.  0.
          5    1    1    2  502    0 -0.15629530003E+02  0.44625172955E+02 -0.13850616269E+02  0.49446943691E+02  0.41800000000E+01 0.  1.
         -5    1    1    2    0  502  0.43193992139E+02 -0.32258153271E+02  0.76500512582E+02  0.93680895782E+02  0.41800000000E+01 0.  1.
        -11    1    3    3    0    0  0.20574104451E+02 -0.32543802629E+02 -0.55750538505E+02  0.67753342405E+02  0.00000000000E+00 0. -1.
         11    1    3    3    0    0 -0.48138566587E+02  0.20176782945E+02 -0.27245559310E+02  0.58879068141E+02  0.00000000000E+00 0.  1.
</event>
<event>
 7    1  0.4687179E-006  0.7695656E+02  0.7561462E-02  0.1337917E+00
         -1   -1    0    0    0  501 -0.00000000000E+00  0.00000000000E+00  0.18116119299E+03  0.18116119299E+03  0.00000000000E+00 0.  1.
          1   -1    0    0  501    0  0.00000000000E+00 -0.00000000000E+00 -0.70282740819E+02  0.70282740819E+02  0.00000000000E+00 0. -1.
         23    2    1    2    0    0  0.19943264720E+02  0.20463020644E+01  0.25869102833E+02  0.98880193883E+02  0.93306811655E+02 0.  0.
          5    1    1    2  502    0 -0.29177246221E+02 -0.48379022381E+02  0.88421442854E+02  0.10501269190E+03  0.41800000000E+01 0.  1.
         -5    1    1    2    0  502  0.92339815007E+01  0.46332720317E+02 -0.34120935155E+01  0.47551048027E+02  0.41800000000E+01 0.  1.
        -11    1    3    3    0    0  0.84217917792E+01 -0.21789014374E+02  0.54856327039E+02  0.59623018544E+02  0.00000000000E+00 0.  1.
         11    1    3    3    0    0  0.11521472941E+02  0.23835316438E+02 -0.28987224206E+02  0.39257175339E+02  0.00000000000E+00 0. -1.
</event>
<event>
 7    1  0.4687179E-006  0.4291486E+02  0.7561462E-02  0.1487795E+00
         -1   -1    0    0    0  501 -0.00000000000E+00  0.00000000000E+00  0.60456447587E+02  0.60456447587E+02  0.00000000000E+00 0.  1.
          1   -1    0    0  501    0  0.00000000000E+00 -0.00000000000E+00 -0.20245109917E+03  0.20245109917E+03  0.00000000000E+00 0. -1.
         23    2    1    2    0    0 -0.26100078413E+02 -0.28468965978E+01 -0.48650607711E+02  0.10463632484E+03  0.88840080657E+02 0.  0.
          5    1    1    2  502    0 -0.43501319910E+01  0.16770086825E+02 -0.11617276819E+03  0.11753188474E+03  0.41800000000E+01 0.  1.
         -5    1    1    2    0  502  0.30450210404E+02 -0.13923190227E+02  0.22828724323E+02  0.40739337181E+02  0.41800000000E+01 0.  1.
        -11    1    3    3    0    0 -0.14932609419E+02 -0.12523160206E+02  0.23761795607E+02  0.30731666015E+02  0.00000000000E+00 0.  1.
         11    1    3    3    0    0 -0.11167468994E+02  0.96762636077E+01 -0.72412403318E+02  0.73904658821E+02  0.00000000000E+00 0. -1.
</event>
<event>
 7    1  0.4687179E-006  0.1606744E+03  0.7561462E-02  0.1187937E+00
          1   -1    0    0  501    0  0.00000000000E+00  0.00000000000E+00  0.49117162280E+02  0.49117162280E+02  0.00000000000E+00 0. -1.
         -1   -1    0    0    0  501 -0.00000000000E+00 -0.00000000000E+00 -0.83450836182E+03  0.83450836182E+03  0.00000000000E+00 0.  1.
         23    2    1    2    0    0  0.14361965811E+03 -0.69677792349E+02 -0.24249357975E+03  0.30409010389E+03  0.90476815385E+02 0.  0.
          5    1    1    2  502    0 -0.80211696686E+02  0.25349508730E+02 -0.10388788683E+03  0.13374109058E+03  0.41800000000E+01 0.  1.
         -5    1    1    2    0  502 -0.63407961426E+02  0.44328283619E+02 -0.43900973296E+03  0.44579432963E+03  0.41800000000E+01 0.  1.
        -11    1    3    3    0    0  0.77266007034E+02 -0.36305451095E+02 -0.52812099133E+02  0.10038545431E+03  0.00000000000E+00 0. -1.
         11    1    3    3    0    0  0.66353651078E+02 -0.33372341254E+02 -0.18968148062E+03  0.20370464958E+03  0.00000000000E+00 0.  1.
</event>
<event>
 7    1  0.4687179E-006  0.1062510E+03  0.7561462E-02  0.1267674E+00
         -1   -1    0    0    0  501 -0.00000000000E+00  0.00000000000E+00  0.19095302394E+02  0.19095302394E+02  0.00000000000E+00 0.  1.
          1   -1    0    0  501    0  0.00000000000E+00 -0.00000000000E+00 -0.87367353797E+03  0.87367353797E+03  0.00000000000E+00 0. -1.
         23    2    1    2    0    0 -0.25938361469E+02 -0.53502158377E+02 -0.37381197850E+03  0.38935044089E+03  0.91230976093E+02 0.  0.
          5    1    1    2  502    0  0.56590085650E+02  0.25810980571E+02 -0.84623842845E+02  0.10510619244E+03  0.41800000000E+01 0. -1.
         -5    1    1    2    0  502 -0.30651724182E+02  0.27691177806E+02 -0.39614241422E+03  0.39831220703E+03  0.41800000000E+01 0.  1.
        -11    1    3    3    0    0 -0.56166443435E+02 -0.54688422655E+02 -0.25748101476E+03  0.26915045217E+03  0.00000000000E+00 0.  1.
         11    1    3    3    0    0  0.30228081966E+02  0.11862642778E+01 -0.11633096374E+03  0.12019998871E+03  0.00000000000E+00 0. -1.
</event>
<event>
 7    1  0.4687179E-006  0.1783997E+03  0.7561462E-02  0.1169361E+00
         -2   -1    0    0    0  501 -0.00000000000E+00  0.00000000000E+00  0.10174102906E+03  0.10174102906E+03  0.00000000000E+00 0.  1.
          2   -1    0    0  501    0  0.00000000000E+00 -0.00000000000E+00 -0.38875455120E+03  0.38875455120E+03  0.00000000000E+00 0. -1.
         23    2    1    2    0    0 -0.70964896020E+02 -0.12923446587E+03 -0.22981268326E+03  0.28886530787E+03  0.94295986505E+02 0.  0.
          5    1    1    2  502    0  0.47501989190E+02  0.14715548201E+03 -0.23220826926E+02  0.15642203830E+03  0.41800000000E+01 0. -1.
         -5    1    1    2    0  502  0.23462906830E+02 -0.17921016138E+02 -0.33980011965E+02  0.45208234090E+02  0.41800000000E+01 0. -1.
        -11    1    3    3    0    0 -0.54715901777E+02 -0.14762412712E+02 -0.52920960292E+02  0.77539581986E+02  0.00000000000E+00 0.  1.
         11    1    3    3    0    0 -0.16248994243E+02 -0.11447205316E+03 -0.17689172296E+03  0.21132572589E+03  0.00000000000E+00 0. -1.
</event>
<event>
 7    1  0.4687179E-006  0.1100194E+03  0.7561462E-02  0.1260534E+00
          1   -1    0    0  501    0  0.00000000000E+00  0.00000000000E+00  0.14407328276E+03  0.14407328276E+03  0.00000000000E+00 0. -1.
         -1   -1    0    0    0  501 -0.00000000000E+00 -0.00000000000E+00 -0.13362049619E+03  0.13362049619E+03  0.00000000000E+00 0.  1.
         23    2    1    2    0    0  0.77650224870E+02 -0.77705293647E+00 -0.33145892402E+02  0.12422416179E+03  0.91119871351E+02 0.  0.
          5    1    1    2  502    0 -0.92131939500E+02  0.34935439067E+02  0.35053890626E+01  0.98684037875E+02  0.41800000000E+01 0.  1.
         -5    1    1    2    0  502  0.14481714629E+02 -0.34158386130E+02  0.40093289918E+02  0.54785579289E+02  0.41800000000E+01 0.  1.
        -11    1    3    3    0    0  0.52445191915E+02  0.14746589766E+02  0.24259146994E+02  0.59636115548E+02  0.00000000000E+00 0. -1.
         11    1    3    3    0    0  0.25205032955E+02 -0.15523642703E+02 -0.57405039396E+02  0.64588046240E+02  0.00000000000E+00 0.  1.
</event>
<event>
 7    1  0.4687179E-006  0.5978937E+02  0.7561462E-02  0.1398718E+00
          1   -1    0    0  501    0  0.00000000000E+00  0.00000000000E+00  0.20557579847E+03  0.20557579847E+03  0.00000000000E+00 0. -1.
         -1   -1    0    0    0  501 -0.00000000000E+00 -0.00000000000E+00 -0.69880352872E+02  0.69880352872E+02  0.00000000000E+00 0.  1.
         23    2    1    2    0    0 -0.19561529193E+00  0.56665564747E+01  0.11604366610E+03  0.14871061385E+03  0.92825460412E+02 0.  0.
          5    1    1    2  502    0 -0.17997935457E+02 -0.89271202257E+00  0.70227892486E+02  0.72623356426E+02  0.41800000000E+01 0. -1.
         -5    1    1    2    0  502  0.18193550749E+02 -0.47738444522E+01 -0.50576112984E+02  0.54122181075E+02  0.41800000000E+01 0. -1.
        -11    1    3    3    0    0  0.20653414662E+02 -0.32392348516E+02  0.19983470054E+02  0.43303196822E+02  0.00000000000E+00 0.  1.
         11    1    3    3    0    0 -0.20849029954E+02  0.38058904991E+02  0.96060196046E+02  0.10540741702E+03  0.00000000000E+00 0. -1.
</event>
<event>
 7    1  0.4946955E-006  0.2573504E+03  0.7561462E-02  0.1108746E+00
         -2   -1    0    0    0  501 -0.00000000000E+00  0.00000000000E+00  0.23078489692E+03  0.23078489692E+03  0.00000000000E+00 0.  1.
          2   -1    0    0  501    0  0.00000000000E+00 -0.00000000000E+00 -0.30210378946E+03  0.30210378946E+03  0.00000000000E+00 0. -1.
         23    2    1    2    0    0  0.22345313116E+03 -0.71349660939E+02 -0.88095233810E+02  0.26652148091E+03  0.90834209553E+02 0.  0.
          5    1    1    2  502    0 -0.39312998525E+02  0.69313837250E+02 -0.92832578176E+01  0.80334122034E+02  0.41800000000E+01 0.  1.
         -5    1    1    2    0  502 -0.18414013264E+03  0.20358236898E+01  0.26059599091E+02  0.18603308343E+03  0.41800000000E+01 0.  1.
        -11    1    3    3    0    0  0.12406023645E+03 -0.84991730870E+02 -0.63416533612E+02  0.16320598432E+03  0.00000000000E+00 0.  1.
         11    1    3    3    0    0  0.99392894716E+02  0.13642069931E+02 -0.24678700198E+02  0.10331549659E+03  0.00000000000E+00 0. -1.
</event>
<event>
 7    1  0.4687179E-006  0.1317546E+03  0.7561462E-02  0.1224875E+00
          1   -1    0    0  501    0  0.00000000000E+00  0.00000000000E+00  0.15458516044E+03  0.15458516044E+03  0.00000000000E+00 0. -1.
         -1   -1    0    0    0  501 -0.00000000000E+00 -0.00000000000E+00 -0.17074439134E+03  0.17074439134E+03  0.00000000000E+00 0.  1.
         23    2    1    2    0    0 -0.11990259210E+03 -0.15750075195E+02  0.48097085996E+01  0.15008307689E+03  0.88753029306E+02 0.  0.
          5    1    1    2  502    0  0.10242373171E+03  0.13282179844E+02 -0.68747579695E+02  0.12413999852E+03  0.41800000000E+01 0. -1.
         -5    1    1    2    0  502  0.17478860388E+02  0.24678953510E+01  0.47778640189E+02  0.51106476363E+02  0.41800000000E+01 0. -1.
        -11    1    3    3    0    0 -0.13151124519E+01  0.18517080384E+02 -0.16477614228E+02  0.24821836300E+02  0.00000000000E+00 0.  1.
         11    1    3    3    0    0 -0.11858747965E+03 -0.34267155579E+02  0.21287322827E+02  0.12526124059E+03  0.00000000000E+00 0. -1.
</event>
<event>
 7    1  0.4687179E-006  0.8260671E+02  0.7561462E-02  0.1321813E+00
          1   -1    0    0  501    0  0.00000000000E+00  0.00000000000E+00  0.24661700340E+02  0.24661700340E+02  0.00000000000E+00 0. -1.
         -1   -1    0    0    0  501 -0.00000000000E+00 -0.00000000000E+00 -0.56925015401E+03  0.56925015401E+03  0.00000000000E+00 0.  1.
         23    2    1    2    0    0  0.27999901657E+02  0.15260459858E+01 -0.15675423457E+03  0.18543928263E+03  0.95023755860E+02 0.  0.
          5    1    1    2  502    0  0.63770022732E+01  0.27113096327E+02 -0.34578212789E+03  0.34692728131E+03  0.41800000000E+01 0. -1.
         -5    1    1    2    0  502 -0.34376903930E+02 -0.28639142313E+02 -0.42052091208E+02  0.61545290406E+02  0.41800000000E+01 0. -1.
        -11    1    3    3    0    0 -0.63903819188E+01 -0.38679077080E+02 -0.10211955436E+03  0.10938606569E+03  0.00000000000E+00 0. -1.
         11    1    3    3    0    0  0.34390283576E+02  0.40205123066E+02 -0.54634680215E+02  0.76053216943E+02  0.00000000000E+00 0.  1.
</event>
<event>
 7    1  0.4687179E-006  0.1708392E+03  0.7561462E-02  0.1176976E+00
         -1   -1    0    0    0  501 -0.00000000000E+00  0.00000000000E+00  0.62447936879E+03  0.62447936879E+03  0.00000000000E+00 0.  1.
          1   -1    0    0  501    0  0.00000000000E+00 -0.00000000000E+00 -0.54722176425E+02  0.54722176425E+02  0.00000000000E+00 0. -1.
         23    2    1    2    0    0  0.14208988729E+03 -0.41913033196E+02  0.23749220831E+03  0.29450124603E+03  0.91554336257E+02 0.  0.
          5    1    1    2  502    0 -0.15321706220E+03  0.21903071656E+02  0.32552352661E+03  0.36046948758E+03  0.41800000000E+01 0. -1.
         -5    1    1    2    0  502  0.11127174913E+02  0.20009961541E+02  0.67414574441E+01  0.24230811601E+02  0.41800000000E+01 0. -1.
        -11    1    3    3    0    0  0.13806558361E+01  0.12598381677E+02 -0.52060227607E+00  0.12684496764E+02  0.00000000000E+00 0.  1.
         11    1    3    3    0    0  0.14070923145E+03 -0.54511414873E+02  0.23801281058E+03  0.28181674927E+03  0.00000000000E+00 0. -1.
</event>
<event>
 7    1  0.4687179E-006  0.1974559E+03  0.7561462E-02  0.1151903E+00
         -2   -1    0    0    0  501 -0.00000000000E+00  0.00000000000E+00  0.68994454018E+02  0.68994454018E+02  0.00000000000E+00 0.  1.
          2   -1    0    0  501    0  0.00000000000E+00 -0.00000000000E+00 -0.94443391360E+03  0.94443391360E+03  0.00000000000E+00 0. -1.
         23    2    1    2    0    0 -0.13233288566E+03 -0.12000087939E+03 -0.72545902973E+03  0.75281951029E+03  0.92380774903E+02 0.  0.
          5    1    1    2  502    0  0.37029005398E+02 -0.15594997995E+02 -0.58974325929E+02  0.71482828162E+02  0.41800000000E+01 0. -1.
         -5    1    1    2    0  502  0.95303880266E+02  0.13559587739E+03 -0.91006103925E+02  0.18912602917E+03  0.41800000000E+01 0.  1.
        -11    1    3    3    0    0 -0.24054575138E+02 -0.60653496438E+02 -0.13968598750E+03  0.15417407149E+03  0.00000000000E+00 0.  1.
         11    1    3    3    0    0 -0.10827831053E+03 -0.59347382954E+02 -0.58577304223E+03  0.59864543880E+03  0.00000000000E+00 0. -1.
</event>
<event>
 6    1  0.4687179E-006  0.1812355E+03  0.7561462E-02  0.1166613E+00
         -2   -1    0    0    0  501 -0.00000000000E+00  0.00000000000E+00  0.56167330859E+02  0.56167330859E+02  0.00000000000E+00 0.  1.
          2   -1    0    0  501    0  0.00000000000E+00 -0.00000000000E+00 -0.62556588119E+03  0.62556588119E+03  0.00000000000E+00 0. -1.
          5    1    1    2  502    0 -0.47444626181E+02 -0.42644148340E+02 -0.53045410745E+02  0.83071077651E+02  0.41800000000E+01 0.  1.
         -5    1    1    2    0  502 -0.10484861183E+03  0.84380868270E+02 -0.18412452956E+03  0.22810672309E+03  0.41800000000E+01 0.  1.
        -11    1    1    2    0    0  0.12626714181E+03 -0.15980137896E+02 -0.26591128925E+03  0.29480089833E+03  0.00000000000E+00 0.  1.
         11    1    1    2    0    0  0.26026096201E+02 -0.25756582034E+02 -0.66317320779E+02  0.75754512980E+02  0.00000000000E+00 0. -1.
</event>
<event>
 7    1  0.4687179E-006  0.1325271E+03  0.7561462E-02  0.1223753E+00
         -2   -1    0    0    0  501 -0.00000000000E+00  0.00000000000E+00  0.11353335055E+03  0.11353335055E+03  0.00000000000E+00 0.  1.
          2   -1    0    0  501    0  0.00000000000E+00 -0.00000000000E+00 -0.23786545038E+03  0.23786545038E+03  0.00000000000E+00 0. -1.
         23    2    1    2    0    0  0.52233591663E+02 -0.93171034219E+02 -0.12319187757E+03  0.18690078311E+03  0.91359040680E+02 0.  0.
          5    1    1    2  502    0  0.30083625232E+02  0.51183233027E+02 -0.31246508011E+02  0.67220268618E+02  0.41800000000E+01 0.  1.
         -5    1    1    2    0  502 -0.82317216894E+02  0.41987801192E+02  0.30106285754E+02  0.97277749193E+02  0.41800000000E+01 0.  1.
        -11    1    3    3    0    0  0.43250212484E+02 -0.39356213608E+02 -0.74564375368E+01  0.58949901528E+02  0.00000000000E+00 0.  1.
         11    1    3    3    0    0  0.89833791790E+01 -0.53814820610E+02 -0.11573544003E+03  0.12795088159E+03  0.00000000000E+00 0. -1.
</event>
<event>
 7    1  0.4687179E-006  0.1004264E+03  0.7561462E-02  0.1279402E+00
          2   -1    0    0  501    0  0.00000000000E+00  0.00000000000E+00  0.32891581124E+03  0.32891581124E+03  0.00000000000E+00 0. -1.
         -2   -1    0    0    0  501 -0.00000000000E+00 -0.00000000000E+00 -0.41049906263E+02  0.41049906263E+02  0.00000000000E+00 0.  1.
         23    2    1    2    0    0 -0.34769307318E+02  0.20560237741E+02  0.12542640364E+03  0.16100093339E+03  0.92508862905E+02 0.  0.
          5    1    1    2  502    0  0.42746946711E+02 -0.53449982925E+02  0.34888883119E+02  0.76934444126E+02  0.41800000000E+01 0.  1.
         -5    1    1    2    0  502 -0.79776393923E+01  0.32889745184E+02  0.12755061822E+03  0.13203033999E+03  0.41800000000E+01 0.  1.
        -11    1    3    3    0    0 -0.46505418096E+02 -0.23838812149E+02  0.47883547094E+02  0.70879312632E+02  0.00000000000E+00 0.  1.
         11    1    3    3    0    0  0.11736110777E+02  0.44399049890E+02  0.77542856546E+02  0.90121620761E+02  0.00000000000E+00 0. -1.
</event>
<event>
 7    1  0.4687179E-006  0.1733992E+03  0.7561462E-02  0.1174349E+00
          1   -1    0    0  501    0  0.00000000000E+00  0.00000000000E+00  0.21096252573E+03  0.21096252573E+03  0.00000000000E+00 0. -1.
         -1   -1    0    0    0  501 -0.00000000000E+00 -0.00000000000E+00 -0.16627828408E+03  0.16627828408E+03  0.00000000000E+00 0.  1.
         23    2    1    2    0    0 -0.10036881097E+03 -0.10017335047E+03  0.76638894038E+02  0.18546759767E+03  0.91739366399E+02 0.  0.
          5    1    1    2  502    0  0.46339209087E+02 -0.18065593094E+02 -0.36169336642E+02  0.61639121227E+02  0.41800000000E+01 0.  1.
         -5    1    1    2    0  502  0.54029601884E+02  0.11823894356E+03  0.42146842479E+01  0.13013409091E+03  0.41800000000E+01 0.  1.
        -11    1    3    3    0    0 -0.30109242584E+02  0.13650477447E+02  0.27375761816E+02  0.42922422561E+02  0.00000000000E+00 0.  1.
         11    1    3    3    0    0 -0.70259568386E+02 -0.11382382792E+03  0.49263132222E+02  0.14254517511E+03  0.00000000000E+00 0. -1.
</event>
<event>
 7    1  0.4687179E-006  0.1214756E+03  0.7561462E-02  0.1240683E+00
          2   -1    0    0  501    0  0.00000000000E+00  0.00000000000E+00  0.84892038558E+03  0.84892038558E+03  0.00000000000E+00 0. -1.
         -2   -1    0    0    0  501 -0.00000000000E+00 -0.00000000000E+00 -0.24378321060E+02  0.24378321060E+02  0.00000000000E+00 0.  1.
         23    2    1    2    0    0  0.20935342606E+02 -0.86450281731E+02  0.28249058593E+03  0.30993506665E+03  0.91361231495E+02 0.  0.
          5    1    1    2  502    0  0.49192068319E+02  0.61534772103E+02  0.28644481454E+03  0.29711023534E+03  0.41800000000E+01 0.  1.
         -5    1    1    2    0  502 -0.70127410925E+02  0.24915509628E+02  0.25560666405E+03  0.26625340466E+03  0.41800000000E+01 0.  1.
        -11    1    3    3    0    0  0.14085945944E+02 -0.36868654595E+02  0.23040211060E+02  0.45700797482E+02  0.00000000000E+00 0.  1.
         11    1    3    3    0    0  0.68493966618E+01 -0.49581627136E+02  0.25945037487E+03  0.26423426917E+03  0.00000000000E+00 0. -1.
</event>
<event>
 7    1  0.4687179E-006  0.7675751E+02  0.7561462E-02  0.1338513E+00
         -1   -1    0    0    0  501 -0.00000000000E+00  0.00000000000E+00  0.65969831800E+02  0.65969831800E+02  0.00000000000E+00 0.  1.
          1   -1    0    0  501    0  0.00000000000E+00 -0.00000000000E+00 -0.18522489987E+03  0.18522489987E+03  0.00000000000E+00 0. -1.
         23    2    1    2    0    0 -0.29037443569E+02 -0.10851252716E+02 -0.54307265617E+02  0.10691052620E+03  0.86715965655E+02 0.  0.
          5    1    1    2  502    0 -0.20723238999E+02 -0.13828152243E+02  0.26877255627E+02  0.36885358871E+02  0.41800000000E+01 0.  1.
         -5    1    1    2    0  502  0.49760682568E+02  0.24679404959E+02 -0.91825058078E+02  0.10739884659E+03  0.41800000000E+01 0.  1.
        -11    1    3    3    0    0 -0.50374703781E+02 -0.67653576024E+01 -0.26789438882E+01  0.50897520420E+02  0.00000000000E+00 0.  1.
         11    1    3    3    0    0  0.21337260212E+02 -0.40858951140E+01 -0.51628321728E+02  0.56013005782E+02  0.00000000000E+00 0. -1.
</event>
<event>
 7    1  0.4687179E-006  0.1163791E+03  0.7561462E-02  0.1249193E+00
         -3   -1    0    0    0  501 -0.00000000000E+00  0.00000000000E+00  0.24582529824E+02  0.24582529824E+02  0.00000000000E+00 0.  1.
          3   -1    0    0  501    0  0.00000000000E+00 -0.00000000000E+00 -0.77588748431E+03  0.77588748431E+03  0.00000000000E+00 0. -1.
         23    2    1    2    0    0  0.78100926557E+02 -0.33134205215E+02 -0.35998559603E+03  0.38097653012E+03  0.91410376171E+02 0.  0.
          5    1    1    2  502    0  0.28030687742E+02  0.88358946969E+01 -0.17263281199E+03  0.17516664256E+03  0.41800000000E+01 0.  1.
         -5    1    1    2    0  502 -0.10613161430E+03  0.24298310518E+02 -0.21868654646E+03  0.24432684145E+03  0.41800000000E+01 0.  1.
        -11    1    3    3    0    0  0.24146559965E+02 -0.32076895357E+02 -0.40729197738E+02  0.57191355311E+02  0.00000000000E+00 0.  1.
         11    1    3    3    0    0  0.53954366592E+02 -0.10573098578E+01 -0.31925639829E+03  0.32378517481E+03  0.00000000000E+00 0. -1.
</event>
<event>
 7    1  0.4687179E-006  0.1213589E+03  0.7561462E-02  0.1240872E+00
          1   -1    0    0  501    0  0.00000000000E+00  0.00000000000E+00  0.70708569890E+03  0.70708569890E+03  0.00000000000E+00 0. -1.
         -1   -1    0    0    0  501 -0.00000000000E+00 -0.00000000000E+00 -0.26644452392E+02  0.26644452392E+02  0.00000000000E+00 0.  1.
         23    2    1    2    0    0  0.71904385326E+02  0.11052968147E+02  0.42055069580E+03  0.43627060535E+03  0.90425353825E+02 0.  0.
          5    1    1    2  502    0 -0.82002515981E+02  0.40738752276E+02  0.15907732674E+03  0.18359500768E+03  0.41800000000E+01 0.  1.
         -5    1    1    2    0  502  0.10098130654E+02 -0.51791720423E+02  0.10081322397E+03  0.11386453826E+03  0.41800000000E+01 0.  1.
        -11    1    3    3    0    0  0.17400303342E+02 -0.26667379137E+02  0.46282178730E+02  0.56177929247E+02  0.00000000000E+00 0.  1.
         11    1    3    3    0    0  0.54504081984E+02  0.37720347284E+02  0.37426851707E+03  0.38009267610E+03  0.00000000000E+00 0. -1.
</event>
<event>
 7    1  0.4687179E-006  0.1390829E+03  0.7561462E-02  0.1214568E+00
          1   -1    0    0  501    0  0.00000000000E+00  0.00000000000E+00  0.43896809473E+02  0.43896809473E+02  0.00000000000E+00 0. -1.
         -1   -1    0    0    0  501 -0.00000000000E+00 -0.00000000000E+00 -0.47224543124E+03  0.47224543124E+03  0.00000000000E+00 0.  1.
         23    2    1    2    0    0  0.53088744421E+02  0.59243097951E+02 -0.18061787359E+03  0.22746072372E+03  0.11308140934E+03 0.  0.
          5    1    1    2  502    0  0.36642944156E+02 -0.13419637450E+02 -0.11807573214E+03  0.12442725966E+03  0.41800000000E+01 0. -1.
         -5    1    1    2    0  502 -0.89731688577E+02 -0.45823460500E+02 -0.12965501604E+03  0.16425425733E+03  0.41800000000E+01 0. -1.
        -11    1    3    3    0    0  0.13298271664E+02  0.87990206603E+02 -0.11076540855E+03  0.14208482050E+03  0.00000000000E+00 0.  1.
         11    1    3    3    0    0  0.39790472758E+02 -0.28747108652E+02 -0.69852465039E+02  0.85375903217E+02  0.00000000000E+00 0. -1.
</event>
<event>
 6    1  0.4687179E-006  0.9386806E+02  0.7561462E-02  0.1293746E+00
          2   -1    0    0  501    0  0.00000000000E+00  0.00000000000E+00  0.93759043722E+02  0.93759043722E+02  0.00000000000E+00 0. -1.
         -2   -1    0    0    0  501 -0.00000000000E+00 -0.00000000000E+00 -0.12923414469E+03  0.12923414469E+03  0.00000000000E+00 0.  1.
          5    1    1    2  502    0 -0.67359811122E+02 -0.22151790731E+01  0.28887215029E+02  0.73445182040E+02  0.41800000000E+01 0. -1.
         -5    1    1    2    0  502  0.18120484388E+02  0.48910982686E+02 -0.61229484074E+02  0.80542897277E+02  0.41800000000E+01 0.  1.
        -11    1    1    2    0    0  0.11225482563E+02 -0.96354557663E+01  0.42798791425E+01  0.15400351686E+02  0.00000000000E+00 0. -1.
         11    1    1    2    0    0  0.38013844171E+02 -0.37060347847E+02 -0.74127110625E+01  0.53604757406E+02  0.00000000000E+00 0.  1.
</event>
<event>
 7    1  0.4687179E-006  0.1176887E+03  0.7561462E-02  0.1246959E+00
          1   -1    0    0  501    0  0.00000000000E+00  0.00000000000E+00  0.59033891102E+03  0.59033891102E+03  0.00000000000E+00 0. -1.
         -1   -1    0    0    0  501 -0.00000000000E+00 -0.00000000000E+00 -0.30152437073E+02  0.30152437073E+02  0.00000000000E+00 0.  1.
         23    2    1    2    0    0  0.28690219658E+02  0.58304851116E+02  0.35036471641E+03  0.36771529152E+03  0.90755257399E+02 0.  0.
          5    1    1    2  502    0 -0.36414296512E+02 -0.88179610608E+02  0.98539916340E+02  0.13721964958E+03  0.41800000000E+01 0. -1.
         -5    1    1    2    0  502  0.77240768532E+01  0.29874759491E+02  0.11128184120E+03  0.11555640700E+03  0.41800000000E+01 0. -1.
        -11    1    3    3    0    0 -0.25674040481E+02  0.46494328455E+02  0.21278528446E+03  0.21931360244E+03  0.00000000000E+00 0. -1.
         11    1    3    3    0    0  0.54364260140E+02  0.11810522662E+02  0.13757943196E+03  0.14840168909E+03  0.00000000000E+00 0.  1.
</event>
<event>
 7    1  0.4687179E-006  0.1154519E+03  0.7561462E-02  0.1250794E+00
         -1   -1    0    0    0  501 -0.00000000000E+00  0.00000000000E+00  0.20747799643E+02  0.20747799643E+02  0.00000000000E+00 0.  1.
          1   -1    0    0  501    0  0.00000000000E+00 -0.00000000000E+00 -0.64415553502E+03  0.64415553502E+03  0.00000000000E+00 0. -1.
         23    2    1    2    0    0 -0.27369902857E+02 -0.18432447777E+02 -0.26298651518E+03  0.28196789979E+03  0.96203547895E+02 0.  0.
          5    1    1    2  502    0  0.77244296330E+02  0.57381978867E+01 -0.22574114447E+03  0.23869676357E+03  0.41800000000E+01 0. -1.
         -5    1    1    2    0  502 -0.49874393474E+02  0.12694249890E+02 -0.13468007572E+03  0.14423867131E+03  0.41800000000E+01 0. -1.
        -11    1    3    3    0    0 -0.63318015590E+02 -0.57429789615E+01 -0.16581521171E+03  0.17758614061E+03  0.00000000000E+00 0. -1.
         11    1    3    3    0    0  0.35948112733E+02 -0.12689468815E+02 -0.97171303479E+02  0.10438175917E+03  0.00000000000E+00 0.  1.
</event>
<event>
 7    1  0.4687179E-006  0.1195369E+03  0.7561462E-02  0.1243863E+00
          2   -1    0    0  501    0  0.00000000000E+00  0.00000000000E+00  0.95823120733E+03  0.95823120733E+03  0.00000000000E+00 0.  1.
         -2   -1    0    0    0  501 -0.00000000000E+00 -0.00000000000E+00 -0.17424363763E+02  0.17424363763E+02  0.00000000000E+00 0. -1.
         23    2    1    2    0    0  0.35827967632E+02 -0.57796200716E+02  0.35010065591E+03  0.36803279661E+03  0.90849469035E+02 0.  0.
          5    1    1    2  502    0 -0.62821604697E+02 -0.22721933907E+01  0.41833715071E+03  0.42305456025E+03  0.41800000000E+01 0.  1.
         -5    1    1    2    0  502  0.26993637065E+02  0.60068394106E+02  0.17236903694E+03  0.18456821424E+03  0.41800000000E+01 0.  1.
        -11    1    3    3    0    0  0.28179500283E+02 -0.80942583695E+02  0.22923843533E+03  0.24473668774E+03  0.00000000000E+00 0. -1.
         11    1    3    3    0    0  0.76484673489E+01  0.23146382980E+02  0.12086222058E+03  0.12329610887E+03  0.00000000000E+00 0.  1.
</event>
<event>
 7    1  0.4687179E-006  0.9072738E+02  0.7561462E-02  0.1301100E+00
         -2   -1    0    0    0  501 -0.00000000000E+00  0.00000000000E+00  0.13871000241E+03  0.13871000241E+03  0.00000000000E+00 0.  1.
          2   -1    0    0  501    0  0.00000000000E+00 -0.00000000000E+00 -0.10161725954E+03  0.10161725954E+03  0.00000000000E+00 0. -1.
         23    2    1    2    0    0  0.18799026758E+02  0.37261608253E+02 -0.30089878599E+01  0.10249557161E+03  0.93565257090E+02 0.  0.
          5    1    1    2  502    0 -0.42539984188E+02 -0.11735516581E+02 -0.33979282035E+02  0.55851916814E+02  0.41800000000E+01 0.  1.
         -5    1    1    2    0  502  0.23740957430E+02 -0.25526091672E+02  0.74081012766E+02  0.81979773531E+02  0.41800000000E+01 0.  1.
        -11    1    3    3    0    0 -0.35724267669E+02  0.30697416692E+02  0.33019347240E+01  0.47217131054E+02  0.00000000000E+00 0.  1.
         11    1    3    3    0    0  0.54523294427E+02  0.65641915610E+01 -0.63109225839E+01  0.55278440552E+02  0.00000000000E+00 0. -1.
</event>
<event>
 7    1  0.4687179E-006  0.1354858E+03  0.7561462E-02  0.1219536E+00
          2   -1    0    0  501    0  0.00000000000E+00  0.00000000000E+00  0.32359248406E+03  0.32359248406E+03  0.00000000000E+00 0. -1.
         -2   -1    0    0    0  501 -0.00000000000E+00 -0.00000000000E+00 -0.95348583091E+02  0.95348583091E+02  0.00000000000E+00 0.  1.
         23    2    1    2    0    0  0.59869119106E+02  0.87851752714E+02  0.21355890328E+03  0.25412299601E+03  0.87571970687E+02 0.  0.
          5    1    1    2  502    0 -0.97765720852E+02 -0.76755182147E+02  0.13436968012E+02  0.12509004225E+03  0.41800000000E+01 0.  1.
         -5    1    1    2    0  502  0.37896601746E+02 -0.11096570566E+02  0.12480296772E+01  0.39728028900E+02  0.41800000000E+01 0.  1.
        -11    1    3    3    0    0  0.33436443728E+01  0.10993737771E+02 -0.72481991043E+01  0.13585971372E+02  0.00000000000E+00 0.  1.
         11    1    3    3    0    0  0.56525474733E+02  0.76858014943E+02  0.22080710239E+03  0.24053702463E+03  0.00000000000E+00 0. -1.
</event>
<event>
 7    1  0.4687179E-006  0.1706053E+03  0.7561462E-02  0.1177218E+00
          2   -1    0    0  501    0  0.00000000000E+00  0.00000000000E+00  0.15127549534E+04  0.15127549534E+04  0.00000000000E+00 0. -1.
         -2   -1    0    0    0  501 -0.00000000000E+00 -0.00000000000E+00 -0.24549758594E+02  0.24549758594E+02  0.00000000000E+00 0.  1.
         23    2    1    2    0    0 -0.15319653752E+03 -0.41485566863E+02  0.72226770198E+03  0.74515703939E+03  0.91641413516E+02 0.  0.
          5    1    1    2  502    0  0.73587167274E+02  0.23549168514E+02  0.62068147459E+03  0.62548589099E+03  0.41800000000E+01 0. -1.
         -5    1    1    2    0  502  0.79609370249E+02  0.17936398349E+02  0.14525601827E+03  0.16666178164E+03  0.41800000000E+01 0. -1.
        -11    1    3    3    0    0 -0.18572338828E+02  0.25665034741E+02  0.16030697250E+03  0.16340731688E+03  0.00000000000E+00 0. -1.
         11    1    3    3    0    0 -0.13462419869E+03 -0.67150601604E+02  0.56196072948E+03  0.58174972251E+03  0.00000000000E+00 0.  1.
</event>
<event>
 7    1  0.4687179E-006  0.1357579E+03  0.7561462E-02  0.1219154E+00
         -2   -1    0    0    0  501 -0.00000000000E+00  0.00000000000E+00  0.22691732230E+02  0.22691732230E+02  0.00000000000E+00 0.  1.
          2   -1    0    0  501    0  0.00000000000E+00 -0.00000000000E+00 -0.90365685124E+03  0.90365685124E+03  0.00000000000E+00 0. -1.
         23    2    1    2    0    0 -0.87788048393E+02  0.42724669069E+02 -0.51626304837E+03  0.52862022265E+03  0.58134893929E+02 0.  0.
          5    1    1    2  502    0 -0.27430942825E+02  0.12752461295E+02 -0.78380435573E+02  0.84119242590E+02  0.41800000000E+01 0. -1.
         -5    1    1    2    0  502  0.11521899122E+03 -0.55477130365E+02 -0.28632163507E+03  0.31360911823E+03  0.41800000000E+01 0. -1.
        -11    1    3    3    0    0 -0.52455116051E+02  0.54639123896E+02 -0.31951066946E+03  0.32836571222E+03  0.00000000000E+00 0.  1.
         11    1    3    3    0    0 -0.35332932342E+02 -0.11914454827E+02 -0.19675237891E+03  0.20025451043E+03  0.00000000000E+00 0. -1.
</event>
<event>
 7    1  0.4687179E-006  0.7410664E+02  0.7561462E-02  0.1346660E+00
         -2   -1    0    0    0  501 -0.00000000000E+00  0.00000000000E+00  0.19882786867E+03  0.19882786867E+03  0.00000000000E+00 0.  1.
          2   -1    0    0  501    0  0.00000000000E+00 -0.00000000000E+00 -0.57191145827E+02  0.57191145827E+02  0.00000000000E+00 0. -1.
         23    2    1    2    0    0  0.47295165289E+01 -0.10301636985E+02  0.11695121338E+02  0.75296000117E+02  0.73513398230E+02 0.  0.
          5    1    1    2  502    0 -0.39263612933E+02  0.42893398470E+01 -0.60930707030E+01  0.40182429587E+02  0.41800000000E+01 0.  1.
         -5    1    1    2    0  502  0.34534096404E+02  0.60122971382E+01  0.13603467221E+03  0.14054058479E+03  0.41800000000E+01 0.  1.
        -11    1    3    3    0    0 -0.69047372442E+01  0.30238646305E+02  0.11611816626E+02  0.33119260440E+02  0.00000000000E+00 0.  1.
         11    1    3    3    0    0  0.11634253773E+02 -0.40540283290E+02  0.83304712613E-01  0.42176739677E+02  0.00000000000E+00 0. -1.
</event>
<event>
 7    1  0.4687179E-006  0.1185197E+03  0.7561462E-02  0.1245559E+00
         -2   -1    0    0    0  501 -0.00000000000E+00  0.00000000000E+00  0.56548053775E+02  0.56548053775E+02  0.00000000000E+00 0. -1.
          2   -1    0    0  501    0  0.00000000000E+00 -0.00000000000E+00 -0.44786143241E+03  0.44786143241E+03  0.00000000000E+00 0.  1.
         23    2    1    2    0    0 -0.94593378723E+02 -0.53094862518E+02 -0.24714100520E+03  0.28486809675E+03  0.91127297614E+02 0.  0.
          5    1    1    2  502    0  0.55167730665E+02  0.63473132535E+02 -0.16961904925E+02  0.85892349363E+02  0.41800000000E+01 0.  1.
         -5    1    1    2    0  502  0.39425648059E+02 -0.10378270017E+02 -0.12721046851E+03  0.13364904007E+03  0.41800000000E+01 0.  1.
        -11    1    3    3    0    0 -0.45770897618E+02 -0.41253006807E+02 -0.21853675773E+03  0.22705748197E+03  0.00000000000E+00 0.  1.
         11    1    3    3    0    0 -0.48822481106E+02 -0.11841855711E+02 -0.28604247472E+02  0.57810614782E+02  0.00000000000E+00 0. -1.
</event>
<event>
 7    1  0.4687179E-006  0.8457346E+02  0.7561462E-02  0.1316552E+00
         -2   -1    0    0    0  501 -0.00000000000E+00  0.00000000000E+00  0.78276480415E+03  0.78276480415E+03  0.00000000000E+00 0.  1.
          2   -1    0    0  501    0  0.00000000000E+00 -0.00000000000E+00 -0.45391184392E+02  0.45391184392E+02  0.00000000000E+00 0. -1.
         23    2    1    2    0    0 -0.23176939546E+02  0.18586800928E+02  0.19192576083E+02  0.98319242758E+02  0.91737009023E+02 0.  0.
          5    1    1    2  502    0  0.49409585008E+02  0.74639505557E-02  0.10849773368E+03  0.11929181766E+03  0.41800000000E+01 0. -1.
         -5    1    1    2    0  502 -0.26232645462E+02 -0.18594264879E+02  0.60968331000E+03  0.61054492813E+03  0.41800000000E+01 0.  1.
        -11    1    3    3    0    0 -0.48138450285E+02 -0.10019636949E+02  0.31515988854E+02  0.58403433751E+02  0.00000000000E+00 0.  1.
         11    1    3    3    0    0  0.24961510739E+02  0.28606437877E+02 -0.12323412772E+02  0.39915809008E+02  0.00000000000E+00 0. -1.
</event>
<event>
 7    1  0.4687179E-006  0.1055626E+03  0.7561462E-02  0.1269015E+00
          1   -1    0    0  501    0  0.00000000000E+00  0.00000000000E+00  0.26453054915E+03  0.26453054915E+03  0.00000000000E+00 0. -1.
         -1   -1    0    0    0  501 -0.00000000000E+00 -0.00000000000E+00 -0.48856154303E+02  0.48856154303E+02  0.00000000000E+00 0.  1.
         23    2    1    2    0    0 -0.27179109182E+02  0.20504907291E+02  0.78968363391E+02  0.12498960809E+03  0.90704159297E+02 0.  0.
          5    1    1    2  502    0 -0.46361828934E+02  0.15200754955E+01  0.81069292487E+02  0.93495627683E+02  0.41800000000E+01 0. -1.
         -5    1    1    2    0  502  0.73540938116E+02 -0.22024982787E+02  0.55636738974E+02  0.94901467688E+02  0.41800000000E+01 0. -1.
        -11    1    3    3    0    0 -0.42644852751E+02 -0.17913163783E+02  0.67836931373E+02  0.82105506277E+02  0.00000000000E+00 0. -1.
         11    1    3    3    0    0  0.15465743569E+02  0.38418071074E+02  0.11131432019E+02  0.42884101809E+02  0.00000000000E+00 0.  1.
</event>
<event>
 7    1  0.4687179E-006  0.8239444E+02  0.7561462E-02  0.1322390E+00
         -2   -1    0    0    0  501 -0.00000000000E+00  0.00000000000E+00  0.82578242688E+03  0.82578242688E+03  0.00000000000E+00 0.  1.
          2   -1    0    0  501    0  0.00000000000E+00 -0.00000000000E+00 -0.14460055812E+02  0.14460055812E+02  0.00000000000E+00 0. -1.
         23    2    1    2    0    0  0.10336192360E+02 -0.22385341224E+02  0.30657674856E+03  0.32058752803E+03  0.90438487384E+02 0.  0.
          5    1    1    2  502    0  0.26901817212E+02 -0.21044404683E+01  0.22626822966E+02  0.35462402013E+02  0.41800000000E+01 0. -1.
         -5    1    1    2    0  502 -0.37238009571E+02  0.24489781692E+02  0.48211879955E+03  0.48419255265E+03  0.41800000000E+01 0.  1.
        -11    1    3    3    0    0  0.49759579473E+02 -0.18565402644E+02  0.19847666184E+03  0.20545966811E+03  0.00000000000E+00 0.  1.
         11    1    3    3    0    0 -0.39423387114E+02 -0.38199385801E+01  0.10810008672E+03  0.11512785993E+03  0.00000000000E+00 0. -1.
</event>
<event>
 7    1  0.4687179E-006  0.1570328E+03  0.7561462E-02  0.1192088E+00
         -2   -1    0    0    0  501 -0.00000000000E+00  0.00000000000E+00  0.95313998423E+02  0.95313998423E+02  0.00000000000E+00 0.  1.
          2   -1    0    0  501    0  0.00000000000E+00 -0.00000000000E+00 -0.28088464564E+03  0.28088464564E+03  0.00000000000E+00 0. -1.
         23    2    1    2    0    0 -0.64972833685E+02  0.10236533319E+03 -0.86249061335E+02  0.17566334102E+03  0.93373327242E+02 0.  0.
          5    1    1    2  502    0  0.85321575148E+02 -0.37221248884E+02 -0.19083375186E+02  0.95114878766E+02  0.41800000000E+01 0. -1.
         -5    1    1    2    0  502 -0.20348741463E+02 -0.65144084307E+02 -0.80238210693E+02  0.10542042428E+03  0.41800000000E+01 0. -1.
        -11    1    3    3    0    0 -0.89124144446E+01  0.95630852375E+02 -0.61248980012E+02  0.11391281144E+03  0.00000000000E+00 0.  1.
         11    1    3    3    0    0 -0.56060419241E+02  0.67344808154E+01 -0.25000081324E+02  0.61750529581E+02  0.00000000000E+00 0. -1.
</event>
<event>
 7    1  0.4687179E-006  0.1829044E+03  0.7561462E-02  0.1165021E+00
          2   -1    0    0  501    0  0.00000000000E+00  0.00000000000E+00  0.14035237902E+04  0.14035237902E+04  0.00000000000E+00 0.  1.
         -2   -1    0    0    0  501 -0.00000000000E+00 -0.00000000000E+00 -0.32702957155E+02  0.32702957155E+02  0.00000000000E+00 0. -1.
         23    2    1    2    0    0 -0.10545430515E+03 -0.13596241664E+03  0.43883441644E+03  0.48026747136E+03  0.92058730095E+02 0.  0.
          5    1    1    2  502    0  0.48372645442E+02  0.56829788586E+02  0.70372079162E+03  0.70767927952E+03  0.41800000000E+01 0. -1.
         -5    1    1    2    0  502  0.57081659709E+02  0.79132628056E+02  0.22826562499E+03  0.24827999647E+03  0.41800000000E+01 0. -1.
        -11    1    3    3    0    0  0.11033896341E+02 -0.42920650220E+02  0.75652070199E+02  0.87676478084E+02  0.00000000000E+00 0. -1.
         11    1    3    3    0    0 -0.11648820149E+03 -0.93041766421E+02  0.36318234624E+03  0.39259099328E+03  0.00000000000E+00 0.  1.
</event>
<event>
 7    1  0.4687179E-006  0.9503468E+02  0.7561462E-02  0.1291098E+00
          1   -1    0    0  501    0  0.00000000000E+00  0.00000000000E+00  0.11199419086E+03  0.11199419086E+03  0.00000000000E+00 0. -1.
         -1   -1    0    0    0  501 -0.00000000000E+00 -0.00000000000E+00 -0.15140698474E+03  0.15140698474E+03  0.00000000000E+00 0.  1.
         23    2    1    2    0    0  0.47495583385E+02  0.12343378132E+01  0.29704494986E+02  0.11279356901E+03  0.97891154639E+02 0.  0.
          5    1    1    2  502    0 -0.80990127525E+02 -0.25556065741E+01 -0.81143518469E+02  0.11475048963E+03  0.41800000000E+01 0. -1.
         -5    1    1    2    0  502  0.33494544140E+02  0.13212687608E+01  0.12026229607E+02  0.35857116962E+02  0.41800000000E+01 0. -1.
        -11    1    3    3    0    0 -0.11049097716E+02 -0.10723826736E+02 -0.26572224316E+02  0.30711009839E+02  0.00000000000E+00 0.  1.
         11    1    3    3    0    0  0.58544681101E+02  0.11958164550E+02  0.56276719302E+02  0.82082559170E+02  0.00000000000E+00 0. -1.
</event>
<event>
 7    1  0.4687179E-006  0.7711723E+02  0.7561462E-02  0.1337437E+00
          2   -1    0    0  501    0  0.00000000000E+00  0.00000000000E+00  0.10173268215E+03  0.10173268215E+03  0.00000000000E+00 0. -1.
         -2   -1    0    0    0  501 -0.00000000000E+00 -0.00000000000E+00 -0.11312538068E+03  0.11312538068E+03  0.00000000000E+00 0.  1.
         23    2    1    2    0    0  0.59210170139E+01  0.10444819454E+02  0.18258711721E+02  0.85743040417E+02  0.82911613966E+02 0.  0.
          5    1    1    2  502    0 -0.36921260427E+02  0.45743952230E+02 -0.26804511116E+02  0.64742898092E+02  0.41800000000E+01 0. -1.
         -5    1    1    2    0  502  0.31000243413E+02 -0.56188771684E+02 -0.28468991357E+01  0.64372124322E+02  0.41800000000E+01 0. -1.
        -11    1    3    3    0    0  0.16619385082E+01  0.20241359548E+02  0.49083713909E+02  0.53119541104E+02  0.00000000000E+00 0. -1.
         11    1    3    3    0    0  0.42590785057E+01 -0.97965400939E+01 -0.30825002188E+02  0.32623499313E+02  0.00000000000E+00 0.  1.
</event>
<event>
 7    1  0.4687179E-006  0.1128456E+03  0.7561462E-02  0.1255389E+00
         -1   -1    0    0    0  501 -0.00000000000E+00  0.00000000000E+00  0.34133837699E+02  0.34133837699E+02  0.00000000000E+00 0.  1.
          1   -1    0    0  501    0  0.00000000000E+00 -0.00000000000E+00 -0.47408089818E+03  0.47408089818E+03  0.00000000000E+00 0. -1.
         23    2    1    2    0    0  0.25481503991E+02  0.61229616861E+02 -0.23944329446E+03  0.26275656759E+03  0.85495903550E+02 0.  0.
          5    1    1    2  502    0 -0.67780873056E+02 -0.25342327759E+02 -0.16293721409E+03  0.17833252217E+03  0.41800000000E+01 0. -1.
         -5    1    1    2    0  502  0.42299369066E+02 -0.35887289102E+02 -0.37566551930E+02  0.67125646115E+02  0.41800000000E+01 0. -1.
        -11    1    3    3    0    0  0.35290842075E+02 -0.27892951495E+00 -0.37807106210E+02  0.51719422039E+02  0.00000000000E+00 0.  1.
         11    1    3    3    0    0 -0.98093380846E+01  0.61508546376E+02 -0.20163618825E+03  0.21103714555E+03  0.00000000000E+00 0. -1.
</event>
<event>
 7    1  0.4687179E-006  0.7571887E+02  0.7561462E-02  0.1341659E+00
         -1   -1    0    0    0  501 -0.00000000000E+00  0.00000000000E+00  0.73947654876E+02  0.73947654876E+02  0.00000000000E+00 0.  1.
          1   -1    0    0  501    0  0.00000000000E+00 -0.00000000000E+00 -0.22027621718E+03  0.22027621718E+03  0.00000000000E+00 0. -1.
         23    2    1    2    0    0 -0.21821485406E+02 -0.29546265748E+02 -0.13025375776E+03  0.16284121589E+03  0.90565231380E+02 0.  0.
          5    1    1    2  502    0  0.49859971473E+02  0.50013102106E+02 -0.46810542081E+02  0.84829395774E+02  0.41800000000E+01 0.  1.
         -5    1    1    2    0  502 -0.28038486067E+02 -0.20466836358E+02  0.30735737538E+02  0.46553260396E+02  0.41800000000E+01 0.  1.
        -11    1    3    3    0    0  0.49954278286E+01 -0.13693933832E+02  0.10956753699E+02  0.18235366040E+02  0.00000000000E+00 0.  1.
         11    1    3    3    0    0 -0.26816913235E+02 -0.15852331916E+02 -0.14121051146E+03  0.14460584985E+03  0.00000000000E+00 0. -1.
</event>
<event>
 7    1  0.4687179E-006  0.1106818E+03  0.7561462E-02  0.1259313E+00
         -4   -1    0    0    0  501 -0.00000000000E+00  0.00000000000E+00  0.48807922579E+02  0.48807922579E+02  0.00000000000E+00 0.  1.
          4   -1    0    0  501    0  0.00000000000E+00 -0.00000000000E+00 -0.30928577010E+03  0.30928577010E+03  0.00000000000E+00 0. -1.
         23    2    1    2    0    0  0.15344328606E+02 -0.45394273570E+02 -0.15885355506E+03  0.18995185833E+03  0.92472525846E+02 0.  0.
          5    1    1    2  502    0 -0.19726966050E+02 -0.32952669139E+02 -0.76399355858E+02  0.85611713967E+02  0.41800000000E+01 0.  1.
         -5    1    1    2    0  502  0.43826374439E+01  0.78346942709E+02 -0.25224936603E+02  0.82530120377E+02  0.41800000000E+01 0.  1.
        -11    1    3    3    0    0 -0.84095604717E+01 -0.69675933763E+02 -0.10724043341E+03  0.12816382880E+03  0.00000000000E+00 0.  1.
         11    1    3    3    0    0  0.23753889078E+02  0.24281660194E+02 -0.51613121648E+02  0.61788029539E+02  0.00000000000E+00 0. -1.
</event>
<event>
 7    1  0.4687179E-006  0.1275500E+03  0.7561462E-02  0.1231137E+00
         -1   -1    0    0    0  501 -0.00000000000E+00  0.00000000000E+00  0.80191802506E+02  0.80191802506E+02  0.00000000000E+00 0.  1.
          1   -1    0    0  501    0  0.00000000000E+00 -0.00000000000E+00 -0.31791851536E+03  0.31791851536E+03  0.00000000000E+00 0. -1.
         23    2    1    2    0    0 -0.52593863457E+02 -0.53243713930E+02 -0.22208570128E+03  0.25150791160E+03  0.91286161818E+02 0.  0.
          5    1    1    2  502    0 -0.34019435333E+02  0.45150131167E+02  0.55891729017E+01  0.56961105840E+02  0.41800000000E+01 0. -1.
         -5    1    1    2    0  502  0.86613298790E+02  0.80935827626E+01 -0.21230184480E+02  0.89641300427E+02  0.41800000000E+01 0. -1.
        -11    1    3    3    0    0  0.19793847292E+02  0.25105797103E+01 -0.80987341644E+02  0.83408925827E+02  0.00000000000E+00 0. -1.
         11    1    3    3    0    0 -0.72387710749E+02 -0.55754293640E+02 -0.14109835963E+03  0.16809898577E+03  0.00000000000E+00 0.  1.
</event>
<event>
 7    1  0.4687179E-006  0.7324287E+02  0.7561462E-02  0.1349400E+00
         -1   -1    0    0    0  501 -0.00000000000E+00  0.00000000000E+00  0.27715763780E+02  0.27715763780E+02  0.00000000000E+00 0.  1.
          1   -1    0    0  501    0  0.00000000000E+00 -0.00000000000E+00 -0.48134977054E+03  0.48134977054E+03  0.00000000000E+00 0. -1.
         23    2    1    2    0    0 -0.39407611840E+02  0.17236368132E+02 -0.26015093839E+03  0.27863170405E+03  0.90039233115E+02 0.  0.
          5    1    1    2  502    0  0.39680822393E+02  0.20293596032E+01 -0.20414642986E+03  0.20801904526E+03  0.41800000000E+01 0. -1.
         -5    1    1    2    0  502 -0.27321055319E+00 -0.19265727735E+02  0.10663361484E+02  0.22414785016E+02  0.41800000000E+01 0.  1.
        -11    1    3    3    0    0 -0.41786242357E+02 -0.22194924059E+02 -0.70467816011E+02  0.84878841872E+02  0.00000000000E+00 0. -1.
         11    1    3    3    0    0  0.23786305167E+01  0.39431292191E+02 -0.18968312238E+03  0.19375286218E+03  0.00000000000E+00 0.  1.
</event>
<event>
 7    1  0.4687179E-006  0.1529743E+03  0.7561462E-02  0.1196865E+00
         -2   -1    0    0    0  501 -0.00000000000E+00  0.00000000000E+00  0.39300570349E+02  0.39300570349E+02  0.00000000000E+00 0.  1.
          2   -1    0    0  501    0  0.00000000000E+00 -0.00000000000E+00 -0.70002997442E+03  0.70002997442E+03  0.00000000000E+00 0. -1.
         23    2    1    2    0    0 -0.67282958416E+02  0.20771567937E+02 -0.29451277206E+03  0.31760978352E+03  0.95810997025E+02 0.  0.
          5    1    1    2  502    0  0.11115780033E+03  0.45908345253E+02 -0.27657015580E+03  0.30161590843E+03  0.41800000000E+01 0. -1.
         -5    1    1    2    0  502 -0.43874841910E+02 -0.66679913189E+02 -0.89646476210E+02  0.12010485283E+03  0.41800000000E+01 0.  1.
        -11    1    3    3    0    0 -0.53919883509E+02 -0.23955039701E+02 -0.88430892003E+02  0.10630719837E+03  0.00000000000E+00 0. -1.
         11    1    3    3    0    0 -0.13363074907E+02  0.44726607637E+02 -0.20608188006E+03  0.21130258515E+03  0.00000000000E+00 0.  1.
</event>
<event>
 7    1  0.4687179E-006  0.1141270E+03  0.7561462E-02  0.1253113E+00
          2   -1    0    0  501    0  0.00000000000E+00  0.00000000000E+00  0.64154309693E+02  0.64154309693E+02  0.00000000000E+00 0.  1.
         -2   -1    0    0    0  501 -0.00000000000E+00 -0.00000000000E+00 -0.28476642151E+03  0.28476642151E+03  0.00000000000E+00 0. -1.
         23    2    1    2    0    0 -0.79983305823E+02  0.10164027799E+02 -0.70900371209E+02  0.13783340445E+03  0.86432332344E+02 0.  0.
          5    1    1    2  502    0  0.22358918302E+02  0.45415124001E+02 -0.11098243144E+03  0.12205337850E+03  0.41800000000E+01 0. -1.
         -5    1    1    2    0  502  0.57624387521E+02 -0.55579151800E+02 -0.38729309171E+02  0.89033948249E+02  0.41800000000E+01 0. -1.
        -11    1    3    3    0    0 -0.61320556475E+02 -0.17638007124E+02 -0.51091064652E+01  0.64011037412E+02  0.00000000000E+00 0.  1.
         11    1    3    3    0    0 -0.18662749348E+02  0.27802034923E+02 -0.65791264744E+02  0.73822367042E+02  0.00000000000E+00 0. -1.
</event>
<event>
 6    1  0.4687179E-006  0.8530285E+02  0.7561462E-02  0.1314642E+00
          1   -1    0    0  501    0  0.00000000000E+00  0.00000000000E+00  0.81933239861E+03  0.81933239861E+03  0.00000000000E+00 0. -1.
         -1   -1    0    0    0  501 -0.00000000000E+00 -0.00000000000E+00 -0.19596945828E+02  0.19596945828E+02  0.00000000000E+00 0.  1.
          5    1    1    2  502    0 -0.67958084572E+02 -0.16895123063E+02  0.38119379833E+03  0.38759506025E+03  0.41800000000E+01 0. -1.
         -5    1    1    2    0  502  0.32197125561E+01 -0.11556277542E+02 -0.85543982428E+01  0.15315489835E+02  0.41800000000E+01 0.  1.
        -11    1    1    2    0    0  0.62802937129E+01  0.28611037333E+02  0.14514715533E+03  0.14807339480E+03  0.00000000000E+00 0. -1.
         11    1    1    2    0    0  0.58458078303E+02 -0.15963672741E+00  0.28194889736E+03  0.28794539956E+03  0.00000000000E+00 0.  1.
</event>
<event>
 7    1  0.4687179E-006  0.9525159E+02  0.7561462E-02  0.1290610E+00
         -2   -1    0    0    0  501 -0.00000000000E+00  0.00000000000E+00  0.20038523238E+02  0.20038523238E+02  0.00000000000E+00 0.  1.
          2   -1    0    0  501    0  0.00000000000E+00 -0.00000000000E+00 -0.73629879423E+03  0.73629879423E+03  0.00000000000E+00 0. -1.
         23    2    1    2    0    0  0.33300981663E+02 -0.15468499886E+02 -0.43900875739E+03  0.44996464125E+03  0.91603817856E+02 0.  0.
          5    1    1    2  502    0 -0.26534942999E+02  0.52259253985E+02 -0.53464380160E+02  0.79442086912E+02  0.41800000000E+01 0. -1.
         -5    1    1    2    0  502 -0.67660386644E+01 -0.36790754099E+02 -0.22378713344E+03  0.22693058930E+03  0.41800000000E+01 0. -1.
        -11    1    3    3    0    0 -0.35578502494E+01  0.33011764618E+02 -0.95705284232E+02  0.10130121584E+03  0.00000000000E+00 0.  1.
         11    1    3    3    0    0  0.36858831912E+02 -0.48480264505E+02 -0.34330347315E+03  0.34866342541E+03  0.00000000000E+00 0. -1.
</event>
<event>
 7    1  0.4687179E-006  0.1143647E+03  0.7561462E-02  0.1252694E+00
          1   -1    0    0  501    0  0.00000000000E+00  0.00000000000E+00  0.38681614451E+03  0.38681614451E+03  0.00000000000E+00 0. -1.
         -1   -1    0    0    0  501 -0.00000000000E+00 -0.00000000000E+00 -0.44252047889E+02  0.44252047889E+02  0.00000000000E+00 0.  1.
         23    2    1    2    0    0 -0.70430590594E+02 -0.24727731905E+02  0.16296364569E+03  0.19982060983E+03  0.88313065159E+02 0.  0.
          5    1    1    2  502    0  0.62555472727E+02  0.64654636960E+02  0.16468718457E+03  0.18770389024E+03  0.41800000000E+01 0. -1.
         -5    1    1    2    0  502  0.78751178667E+01 -0.39926905055E+02  0.14913266358E+02  0.43543692335E+02  0.41800000000E+01 0. -1.
        -11    1    3    3    0    0 -0.20199509161E+02 -0.40375772328E+02  0.23783191314E+02  0.51028064342E+02  0.00000000000E+00 0.  1.
         11    1    3    3    0    0 -0.50231081433E+02  0.15648040423E+02  0.13918045438E+03  0.14879254549E+03  0.00000000000E+00 0. -1.
</event>
<event>
 7    1  0.4687179E-006  0.1904777E+03  0.7561462E-02  0.1158031E+00
         -1   -1    0    0    0  501 -0.00000000000E+00  0.00000000000E+00  0.42858790304E+03  0.42858790304E+03  0.00000000000E+00 0.  1.
          1   -1    0    0  501    0  0.00000000000E+00 -0.00000000000E+00 -0.95903528135E+02  0.95903528135E+02  0.00000000000E+00 0. -1.
         23    2    1    2    0    0 -0.88341123836E+02  0.12995962004E+03  0.74196669860E+02  0.19714256210E+03  0.93093431402E+02 0.  0.
          5    1    1    2  502    0 -0.21579164246E+02 -0.72452608209E+02  0.82312583393E+02  0.11183860939E+03  0.41800000000E+01 0.  1.
         -5    1    1    2    0  502  0.10992028808E+03 -0.57507011830E+02  0.17617512165E+03  0.21551025969E+03  0.41800000000E+01 0.  1.
        -11    1    3    3    0    0 -0.72648757977E+02  0.14320719039E+03  0.57131343225E+02  0.17044099211E+03  0.00000000000E+00 0. -1.
         11    1    3    3    0    0 -0.15692365860E+02 -0.13247570347E+02  0.17065326635E+02  0.26701569983E+02  0.00000000000E+00 0.  1.
</event>
<event>
 7    1  0.4687179E-006  0.2102302E+03  0.7561462E-02  0.1141384E+00
          1   -1    0    0  501    0  0.00000000000E+00  0.00000000000E+00  0.50187427171E+03  0.50187427171E+03  0.00000000000E+00 0. -1.
         -1   -1    0    0    0  501 -0.00000000000E+00 -0.00000000000E+00 -0.10369450654E+03  0.10369450654E+03  0.00000000000E+00 0.  1.
         23    2    1    2    0    0  0.16932479954E+03 -0.95743090867E+02  0.25680357997E+03  0.33451258577E+03  0.90071994357E+02 0.  0.
          5    1    1    2  502    0 -0.51260272739E+02  0.67095148573E+02  0.12129099471E+03  0.14784570444E+03  0.41800000000E+01 0.  1.
         -5    1    1    2    0  502 -0.11806452680E+03  0.28647942294E+02  0.20085190489E+02  0.12321048804E+03  0.41800000000E+01 0.  1.
        -11    1    3    3    0    0  0.26035547213E+01 -0.37749593725E+02  0.45867201777E+02  0.59461000012E+02  0.00000000000E+00 0.  1.
         11    1    3    3    0    0  0.16672124482E+03 -0.57993497142E+02  0.21093637819E+03  0.27505158576E+03  0.00000000000E+00 0. -1.
</event>
<event>
 7    1  0.4687179E-006  0.1182026E+03  0.7561462E-02  0.1246092E+00
          1   -1    0    0  501    0  0.00000000000E+00  0.00000000000E+00  0.10925847202E+03  0.10925847202E+03  0.00000000000E+00 0. -1.
         -1   -1    0    0    0  501 -0.00000000000E+00 -0.00000000000E+00 -0.22117714524E+03  0.22117714524E+03  0.00000000000E+00 0.  1.
         23    2    1    2    0    0 -0.25698716119E+02  0.40935998280E+02  0.53161510861E+02  0.11774771166E+03  0.93285569082E+02 0.  0.
          5    1    1    2  502    0  0.12460594394E+02  0.44914283931E+02 -0.50621316003E+02  0.68938736190E+02  0.41800000000E+01 0.  1.
         -5    1    1    2    0  502  0.13238121725E+02 -0.85850282211E+02 -0.11445886808E+03  0.14374916941E+03  0.41800000000E+01 0.  1.
        -11    1    3    3    0    0 -0.59698973184E+02  0.30724970388E+02  0.46385388910E+02  0.81606344783E+02  0.00000000000E+00 0. -1.
         11    1    3    3    0    0  0.34000257065E+02  0.10211027892E+02  0.67761219505E+01  0.36141366877E+02  0.00000000000E+00 0.  1.
</event>
<event>
 7    1  0.4687179E-006  0.3779491E+03  0.7561462E-02  0.1051694E+00
         -2   -1    0    0    0  501 -0.00000000000E+00  0.00000000000E+00  0.10486378358E+03  0.10486378358E+03  0.00000000000E+00 0.  1.
          2   -1    0    0  501    0  0.00000000000E+00 -0.00000000000E+00 -0.14562722328E+04  0.14562722328E+04  0.00000000000E+00 0. -1.
         23    2    1    2    0    0 -0.24165998652E+02  0.37168246719E+03 -0.74466808859E+03  0.83739323048E+03  0.89246895713E+02 0.  0.
          5    1    1    2  502    0  0.93886914061E+01 -0.57925663400E+02 -0.27797678065E+02  0.65066990959E+02  0.41800000000E+01 0. -1.
         -5    1    1    2    0  502  0.14777307246E+02 -0.31375680379E+03 -0.57894268259E+03  0.65867579496E+03  0.41800000000E+01 0.  1.
        -11    1    3    3    0    0 -0.19424684059E+02  0.11201018412E+02 -0.39842990347E+02  0.45719197763E+02  0.00000000000E+00 0. -1.
         11    1    3    3    0    0 -0.47413145927E+01  0.36048144878E+03 -0.70482509824E+03  0.79167403272E+03  0.00000000000E+00 0.  1.
</event>
<event>
 6    1  0.4687179E-006  0.6771691E+02  0.7561462E-02  0.1368034E+00
         -1   -1    0    0    0  501 -0.00000000000E+00  0.00000000000E+00  0.19363708446E+03  0.19363708446E+03  0.00000000000E+00 0.  1.
          1   -1    0    0  501    0  0.00000000000E+00 -0.00000000000E+00 -0.36875794668E+02  0.36875794668E+02  0.00000000000E+00 0. -1.
          5    1    1    2  502    0 -0.25987789445E+02 -0.29569398803E+02  0.70218717523E+01  0.40205641752E+02  0.41800000000E+01 0. -1.
         -5    1    1    2    0  502  0.34553724658E+02  0.47158453553E+02  0.13731572367E+03  0.14930157400E+03  0.41800000000E+01 0.  1.
        -11    1    1    2    0    0 -0.16671092138E+02  0.12577629889E+01  0.11831262523E+02  0.20481358688E+02  0.00000000000E+00 0.  1.
         11    1    1    2    0    0  0.81051569247E+01 -0.18846817739E+02  0.59243184317E+00  0.20524304693E+02  0.00000000000E+00 0. -1.
</event>
<event>
 7    1  0.4687179E-006  0.1835414E+03  0.7561462E-02  0.1164419E+00
         -2   -1    0    0    0  501 -0.00000000000E+00  0.00000000000E+00  0.15621172728E+03  0.15621172728E+03  0.00000000000E+00 0.  1.
          2   -1    0    0  501    0  0.00000000000E+00 -0.00000000000E+00 -0.26881129106E+03  0.26881129106E+03  0.00000000000E+00 0. -1.
         23    2    1    2    0    0 -0.74928746683E+02 -0.14271539743E+03 -0.11440569565E+03  0.22097764757E+03  0.98795019042E+02 0.  0.
          5    1    1    2  502    0  0.66666689318E+02  0.16269324312E+03 -0.14759740400E+02  0.17649039962E+03  0.41800000000E+01 0.  1.
         -5    1    1    2    0  502  0.82620573658E+01 -0.19977845696E+02  0.16565872270E+02  0.27554971142E+02  0.41800000000E+01 0.  1.
        -11    1    3    3    0    0 -0.51169625718E+02 -0.43469183646E+02 -0.96204524708E+02  0.11731671278E+03  0.00000000000E+00 0.  1.
         11    1    3    3    0    0 -0.23759120965E+02 -0.99246213780E+02 -0.18201170945E+02  0.10366093479E+03  0.00000000000E+00 0. -1.
</event>
<event>
 7    1  0.4687179E-006  0.1304278E+03  0.7561462E-02  0.1226822E+00
         -2   -1    0    0    0  501 -0.00000000000E+00  0.00000000000E+00  0.48104468377E+02  0.48104468377E+02  0.00000000000E+00 0.  1.
          2   -1    0    0  501    0  0.00000000000E+00 -0.00000000000E+00 -0.38630337309E+03  0.38630337309E+03  0.00000000000E+00 0. -1.
         23    2    1    2    0    0  0.81916744392E+02  0.15077125973E+02 -0.12779140453E+03  0.17584099403E+03  0.87474221187E+02 0.  0.
          5    1    1    2  502    0  0.30809373558E+02 -0.39897505698E+01 -0.79213213873E+02  0.85190030290E+02  0.41800000000E+01 0.  1.
         -5    1    1    2    0  502 -0.11272611795E+03 -0.11087375403E+02 -0.13119428631E+03  0.17337681714E+03  0.41800000000E+01 0.  1.
        -11    1    3    3    0    0  0.20564770787E+02  0.43823799668E+02 -0.30269665627E+02  0.57093676288E+02  0.00000000000E+00 0.  1.
         11    1    3    3    0    0  0.61351973605E+02 -0.28746673695E+02 -0.97521738898E+02  0.11874731774E+03  0.00000000000E+00 0. -1.
</event>
<event>
 7    1  0.4687179E-006  0.7049848E+02  0.7561462E-02  0.1358406E+00
         -2   -1    0    0    0  501 -0.00000000000E+00  0.00000000000E+00  0.16962823397E+03  0.16962823397E+03  0.00000000000E+00 0. -1.
          2   -1    0    0  501    0  0.00000000000E+00 -0.00000000000E+00 -0.13220463996E+03  0.13220463996E+03  0.00000000000E+00 0.  1.
         23    2    1    2    0    0 -0.36136336437E+00  0.41937266526E+02 -0.76272316512E+02  0.12764980994E+03  0.93370995521E+02 0.  0.
          5    1    1    2  502    0  0.82026917195E+01 -0.62808881668E+02  0.13105429295E+03  0.14561916037E+03  0.41800000000E+01 0.  1.
         -5    1    1    2    0  502 -0.78413283552E+01  0.20871615142E+02 -0.17358382427E+02  0.28563903611E+02  0.41800000000E+01 0.  1.
        -11    1    3    3    0    0  0.16868673214E+02  0.27922817873E+02 -0.93829226099E+02  0.99338610641E+02  0.00000000000E+00 0.  1.
         11    1    3    3    0    0 -0.17230036578E+02  0.14014448653E+02  0.17556909586E+02  0.28311199299E+02  0.00000000000E+00 0. -1.
</event>
<event>
 7    1  0.4687179E-006  0.2445753E+03  0.7561462E-02  0.1116782E+00
         -1   -1    0    0    0  501 -0.00000000000E+00  0.00000000000E+00  0.10233046812E+04  0.10233046812E+04  0.00000000000E+00 0.  1.
          1   -1    0    0  501    0  0.00000000000E+00 -0.00000000000E+00 -0.86416041518E+02  0.86416041518E+02  0.00000000000E+00 0. -1.
         23    2    1    2    0    0  0.18540369414E+03 -0.13029082147E+03  0.16383901115E+03  0.29448814720E+03  0.92357020869E+02 0.  0.
          5    1    1    2  502    0 -0.12203568777E+03  0.14182105677E+03  0.64834812371E+03  0.67481751840E+03  0.41800000000E+01 0. -1.
         -5    1    1    2    0  502 -0.63368006379E+02 -0.11530235294E+02  0.12470150480E+03  0.14041505709E+03  0.41800000000E+01 0. -1.
        -11    1    3    3    0    0  0.13691831373E+03 -0.54242221233E+02  0.13504082954E+03  0.19981208382E+03  0.00000000000E+00 0.  1.
         11    1    3    3    0    0  0.48485380415E+02 -0.76048600239E+02  0.28798181610E+02  0.94676063376E+02  0.00000000000E+00 0. -1.
</event>
<event>
 7    1  0.4687179E-006  0.1032743E+03  0.7561462E-02  0.1273557E+00
          1   -1    0    0  501    0  0.00000000000E+00  0.00000000000E+00  0.56931607985E+02  0.56931607985E+02  0.00000000000E+00 0. -1.
         -1   -1    0    0    0  501 -0.00000000000E+00 -0.00000000000E+00 -0.21382560243E+03  0.21382560243E+03  0.00000000000E+00 0.  1.
         23    2    1    2    0    0 -0.21146106686E+02  0.16582703759E+02 -0.51925105752E+02  0.10526438839E+03  0.87534170260E+02 0.  0.
          5    1    1    2  502    0  0.54672918806E+02 -0.54079653713E+02 -0.70157448759E+02  0.10417906226E+03  0.41800000000E+01 0. -1.
         -5    1    1    2    0  502 -0.33526812120E+02  0.37496949954E+02 -0.34811439929E+02  0.61313759767E+02  0.41800000000E+01 0. -1.
        -11    1    3    3    0    0 -0.36896325942E+02 -0.18005825916E+02 -0.17273956499E+00  0.41055797080E+02  0.00000000000E+00 0. -1.
         11    1    3    3    0    0  0.15750219255E+02  0.34588529675E+02 -0.51752366187E+02  0.64208591307E+02  0.00000000000E+00 0.  1.
</event>
<event>
 7    1  0.4687179E-006  0.1047795E+03  0.7561462E-02  0.1270555E+00
          2   -1    0    0  501    0  0.00000000000E+00  0.00000000000E+00  0.10583102955E+04  0.10583102955E+04  0.00000000000E+00 0. -1.
         -2   -1    0    0    0  501 -0.00000000000E+00 -0.00000000000E+00 -0.12734691935E+02  0.12734691935E+02  0.00000000000E+00 0.  1.
         23    2    1    2    0    0  0.35649143488E+02 -0.77663109671E+01  0.54797648782E+03  0.55666779395E+03  0.90937476332E+02 0.  0.
          5    1    1    2  502    0 -0.54299997866E+02 -0.35010897766E+02  0.14653810698E+03  0.16020343919E+03  0.41800000000E+01 0. -1.
         -5    1    1    2    0  502  0.18650854378E+02  0.42777208733E+02  0.35106100881E+03  0.35417375434E+03  0.41800000000E+01 0. -1.
        -11    1    3    3    0    0  0.17351403121E+02  0.41729163266E+02  0.25860995177E+03  0.26252904870E+03  0.00000000000E+00 0. -1.
         11    1    3    3    0    0  0.18297740368E+02 -0.49495474233E+02  0.28936653604E+03  0.29413874525E+03  0.00000000000E+00 0.  1.
</event>
<event>
 7    1  0.4687179E-006  0.1098652E+03  0.7561462E-02  0.1260820E+00
          4   -1    0    0  501    0  0.00000000000E+00  0.00000000000E+00  0.22704850030E+03  0.22704850030E+03  0.00000000000E+00 0. -1.
         -4   -1    0    0    0  501 -0.00000000000E+00 -0.00000000000E+00 -0.74393513702E+02  0.74393513702E+02  0.00000000000E+00 0.  1.
         23    2    1    2    0    0  0.13801657501E+02 -0.59853147518E+02  0.11013816488E+03  0.15574243958E+03  0.91391504558E+02 0.  0.
          5    1    1    2  502    0  0.83883002693E+01  0.80475158359E+02 -0.13253199804E+02  0.82095885398E+02  0.41800000000E+01 0.  1.
         -5    1    1    2    0  502 -0.22189957770E+02 -0.20622010840E+02  0.55770021519E+02  0.63603689022E+02  0.41800000000E+01 0.  1.
        -11    1    3    3    0    0 -0.30813177275E+02  0.31034276532E+01  0.45740414532E+02  0.55238289967E+02  0.00000000000E+00 0. -1.
         11    1    3    3    0    0  0.44614834776E+02 -0.62956575172E+02  0.64397750349E+02  0.10050414961E+03  0.00000000000E+00 0.  1.
</event>
<event>
 7    1  0.4687179E-006  0.9424772E+02  0.7561462E-02  0.1292879E+00
          2   -1    0    0  501    0  0.00000000000E+00  0.00000000000E+00  0.34783148784E+02  0.34783148784E+02  0.00000000000E+00 0. -1.
         -2   -1    0    0    0  501 -0.00000000000E+00 -0.00000000000E+00 -0.41598748783E+03  0.41598748783E+03  0.00000000000E+00 0.  1.
         23    2    1    2    0    0  0.45669146074E+02 -0.52995881139E+01 -0.13905598987E+03  0.17435934178E+03  0.94608959453E+02 0.  0.
          5    1    1    2  502    0  0.25320405359E+01 -0.45172018197E+02 -0.16990871370E+03  0.17587883855E+03  0.41800000000E+01 0.  1.
         -5    1    1    2    0  502 -0.48201186610E+02  0.50471606311E+02 -0.72239635479E+02  0.10053245629E+03  0.41800000000E+01 0.  1.
        -11    1    3    3    0    0 -0.11640186462E+02  0.82344883815E+01  0.77181423951E+01  0.16213280414E+02  0.00000000000E+00 0. -1.
         11    1    3    3    0    0  0.57309332535E+02 -0.13534076495E+02 -0.14677413227E+03  0.15814606136E+03  0.00000000000E+00 0.  1.
</event>
<event>
 7    1  0.4687179E-006  0.1706561E+03  0.7561462E-02  0.1177165E+00
         -1   -1    0    0    0  501 -0.00000000000E+00  0.00000000000E+00  0.24254840784E+02  0.24254840784E+02  0.00000000000E+00 0.  1.
          1   -1    0    0  501    0  0.00000000000E+00 -0.00000000000E+00 -0.13550159878E+04  0.13550159878E+04  0.00000000000E+00 0. -1.
         23    2    1    2    0    0  0.14023964690E+03  0.20037416079E+02 -0.50399731766E+03  0.53118219456E+03  0.89847487485E+02 0.  0.
          5    1    1    2  502    0 -0.22052208075E+02  0.46489796743E+02 -0.18071044988E+03  0.18793972486E+03  0.41800000000E+01 0. -1.
         -5    1    1    2    0  502 -0.11818743883E+03 -0.66527212822E+02 -0.64605337946E+03  0.66014890915E+03  0.41800000000E+01 0. -1.
        -11    1    3    3    0    0  0.59973254741E+02  0.38979214690E+02 -0.13180625214E+03  0.14996352411E+03  0.00000000000E+00 0.  1.
         11    1    3    3    0    0  0.80266392160E+02 -0.18941798611E+02 -0.37219106552E+03  0.38121867045E+03  0.00000000000E+00 0. -1.
</event>
<event>
 7    1  0.4687179E-006  0.1174541E+03  0.7561462E-02  0.1247357E+00
          2   -1    0    0  501    0  0.00000000000E+00  0.00000000000E+00  0.79931774596E+03  0.79931774596E+03  0.00000000000E+00 0. -1.
         -2   -1    0    0    0  501 -0.00000000000E+00 -0.00000000000E+00 -0.22379253364E+02  0.22379253364E+02  0.00000000000E+00 0.  1.
         23    2    1    2    0    0  0.64065152014E+02 -0.39998773654E+02  0.42828867042E+03  0.44366405830E+03  0.87763123316E+02 0.  0.
          5    1    1    2  502    0 -0.82902634816E+02  0.23755223101E+01  0.30936673576E+03  0.32031818487E+03  0.41800000000E+01 0.  1.
         -5    1    1    2    0  502  0.18837482802E+02  0.37623251343E+02  0.39283086416E+02  0.57714756158E+02  0.41800000000E+01 0.  1.
        -11    1    3    3    0    0  0.45709667448E+02  0.17713985133E+02  0.12266676133E+03  0.13209955830E+03  0.00000000000E+00 0. -1.
         11    1    3    3    0    0  0.18355484566E+02 -0.57712758787E+02  0.30562190909E+03  0.31156450000E+03  0.00000000000E+00 0.  1.
</event>
<event>
 7    1  0.4687179E-006  0.2096034E+03  0.7561462E-02  0.1141880E+00
         -2   -1    0    0    0  501 -0.00000000000E+00  0.00000000000E+00  0.39672867517E+02  0.39672867517E+02  0.00000000000E+00 0.  1.
          2   -1    0    0  501    0  0.00000000000E+00 -0.00000000000E+00 -0.13333230349E+04  0.13333230349E+04  0.00000000000E+00 0. -1.
         23    2    1    2    0    0 -0.12811697992E+03  0.14583537547E+03 -0.79301763321E+03  0.82166090515E+03  0.92562190875E+02 0.  0.
          5    1    1    2  502    0  0.68198404336E+02 -0.12193499544E+03 -0.44369723627E+03  0.46519229931E+03  0.41800000000E+01 0. -1.
         -5    1    1    2    0  502  0.59918575587E+02 -0.23900380033E+02 -0.56935297932E+02  0.86142697988E+02  0.41800000000E+01 0. -1.
        -11    1    3    3    0    0 -0.11078630829E+03  0.15845991459E+03 -0.70072297474E+03  0.72690841099E+03  0.00000000000E+00 0.  1.
         11    1    3    3    0    0 -0.17330671637E+02 -0.12624539116E+02 -0.92294658473E+02  0.94752494163E+02  0.00000000000E+00 0. -1.
</event>
<event>
 7    1  0.4687179E-006  0.1547266E+03  0.7561462E-02  0.1194782E+00
         -1   -1    0    0    0  501 -0.00000000000E+00  0.00000000000E+00  0.51432663398E+02  0.51432663398E+02  0.00000000000E+00 0.  1.
          1   -1    0    0  501    0  0.00000000000E+00 -0.00000000000E+00 -0.72617236959E+03  0.72617236959E+03  0.00000000000E+00 0. -1.
         23    2    1    2    0    0 -0.25088650291E+02  0.15151202150E+03 -0.40728095008E+03  0.44478837284E+03  0.91507329124E+02 0.  0.
          5    1    1    2  502    0  0.23707187628E+01 -0.66126764140E+02 -0.22525463881E+03  0.23480948437E+03  0.41800000000E+01 0.  1.
         -5    1    1    2    0  502  0.22717931528E+02 -0.85385257361E+02 -0.42204117306E+02  0.98007175784E+02  0.41800000000E+01 0.  1.
        -11    1    3    3    0    0 -0.28144840010E+02  0.13453241919E+03 -0.40462606553E+03  0.42733284070E+03  0.00000000000E+00 0.  1.
         11    1    3    3    0    0  0.30561897186E+01  0.16979602313E+02 -0.26548845444E+01  0.17455532139E+02  0.00000000000E+00 0. -1.
</event>
<event>
 7    1  0.4687179E-006  0.1023330E+03  0.7561462E-02  0.1275465E+00
          3   -1    0    0  501    0  0.00000000000E+00  0.00000000000E+00  0.13410516833E+03  0.13410516833E+03  0.00000000000E+00 0. -1.
         -3   -1    0    0    0  501 -0.00000000000E+00 -0.00000000000E+00 -0.11347615366E+03  0.11347615366E+03  0.00000000000E+00 0.  1.
         23    2    1    2    0    0 -0.29269792735E+01 -0.21867614090E+02  0.63436824343E+02  0.11354391120E+03  0.91549054257E+02 0.  0.
          5    1    1    2  502    0  0.63057527196E+02  0.16468028906E+02 -0.31366047137E+02  0.72448250670E+02  0.41800000000E+01 0.  1.
         -5    1    1    2    0  502 -0.60130547922E+02  0.53995851842E+01 -0.11441762530E+02  0.61589160113E+02  0.41800000000E+01 0.  1.
        -11    1    3    3    0    0  0.14429301648E+02 -0.46512604807E+02  0.67387710501E+02  0.83142832996E+02  0.00000000000E+00 0. -1.
         11    1    3    3    0    0 -0.17356280922E+02  0.24644990717E+02 -0.39508861574E+01  0.30401078209E+02  0.00000000000E+00 0.  1.
</event>
<event>
 7    1  0.4687179E-006  0.1839191E+03  0.7561462E-02  0.1164063E+00
          1   -1    0    0  501    0  0.00000000000E+00  0.00000000000E+00  0.33458342493E+03  0.33458342493E+03  0.00000000000E+00 0. -1.
         -1   -1    0    0    0  501 -0.00000000000E+00 -0.00000000000E+00 -0.12687555675E+03  0.12687555675E+03  0.00000000000E+00 0.  1.
         23    2    1    2    0    0  0.15501709593E+03 -0.84315892253E+02  0.11711942479E+03  0.22695989462E+03  0.81574287508E+02 0.  0.
          5    1    1    2  502    0 -0.19850627602E+02  0.21445030006E+02  0.79676284966E+02  0.84968932641E+02  0.41800000000E+01 0.  1.
         -5    1    1    2    0  502 -0.13516646833E+03  0.62870862247E+02  0.10912158417E+02  0.14953015442E+03  0.41800000000E+01 0.  1.
        -11    1    3    3    0    0  0.12423780565E+03 -0.31681195513E+02  0.10277655643E+03  0.16432209545E+03  0.00000000000E+00 0.  1.
         11    1    3    3    0    0  0.30779290277E+02 -0.52634696740E+02  0.14342868365E+02  0.62637799162E+02  0.00000000000E+00 0. -1.
</event>
<event>
 7    1  0.4687179E-006  0.1797620E+03  0.7561462E-02  0.1168034E+00
          2   -1    0    0  501    0  0.00000000000E+00  0.00000000000E+00  0.38248426315E+03  0.38248426315E+03  0.00000000000E+00 0. -1.
         -2   -1    0    0    0  501 -0.00000000000E+00 -0.00000000000E+00 -0.10693152381E+03  0.10693152381E+03  0.00000000000E+00 0.  1.
         23    2    1    2    0    0 -0.15903490432E+03 -0.53597308715E+02  0.16947033391E+03  0.25475234810E+03  0.89519788286E+02 0.  0.
          5    1    1    2  502    0  0.22752346240E+02 -0.16216808284E+01 -0.27489983190E+02  0.35964853453E+02  0.41800000000E+01 0.  1.
         -5    1    1    2    0  502  0.13628255808E+03  0.55218989544E+02  0.13357238862E+03  0.19869858541E+03  0.41800000000E+01 0.  1.
        -11    1    3    3    0    0 -0.24840376423E+02 -0.49023538242E+02  0.37866600137E+02  0.66740025536E+02  0.00000000000E+00 0.  1.
         11    1    3    3    0    0 -0.13419452790E+03 -0.45737704728E+01  0.13160373378E+03  0.18801232257E+03  0.00000000000E+00 0. -1.
</event>
<event>
 7    1  0.4687179E-006  0.7157013E+02  0.7561462E-02  0.1354834E+00
         -2   -1    0    0    0  501 -0.00000000000E+00  0.00000000000E+00  0.44281227617E+02  0.44281227617E+02  0.00000000000E+00 0.  1.
          2   -1    0    0  501    0  0.00000000000E+00 -0.00000000000E+00 -0.31877478674E+03  0.31877478674E+03  0.00000000000E+00 0. -1.
         23    2    1    2    0    0 -0.22355742052E+02  0.87888612133E+01 -0.18439031324E+03  0.20703445583E+03  0.91029967576E+02 0.  0.
          5    1    1    2  502    0  0.32656906501E+02 -0.17225840838E+02 -0.11860346390E+03  0.12428779982E+03  0.41800000000E+01 0.  1.
         -5    1    1    2    0  502 -0.10301164449E+02  0.84369796247E+01  0.28500218026E+02  0.31733758708E+02  0.41800000000E+01 0.  1.
        -11    1    3    3    0    0  0.90213361441E+01  0.43970212084E+02 -0.68203157293E+02  0.81648237711E+02  0.00000000000E+00 0.  1.
         11    1    3    3    0    0 -0.31377078196E+02 -0.35181350871E+02 -0.11618715595E+03  0.12538621812E+03  0.00000000000E+00 0. -1.
</event>
<event>
 7    1  0.4687179E-006  0.6839185E+02  0.7561462E-02  0.1365649E+00
         -2   -1    0    0    0  501 -0.00000000000E+00  0.00000000000E+00  0.26476451261E+02  0.26476451261E+02  0.00000000000E+00 0.  1.
          2   -1    0    0  501    0  0.00000000000E+00 -0.00000000000E+00 -0.45863716931E+03  0.45863716931E+03  0.00000000000E+00 0. -1.
         23    2    1    2    0    0  0.15754885633E+02 -0.14704783589E+02 -0.23027534191E+03  0.24664220736E+03  0.85680792940E+02 0.  0.
          5    1    1    2  502    0  0.15675525763E+02 -0.10682706688E+02  0.10606819579E+02  0.22131862816E+02  0.41800000000E+01 0.  1.
         -5    1    1    2    0  502 -0.31430411396E+02  0.25387490277E+02 -0.21249219571E+03  0.21633955039E+03  0.41800000000E+01 0.  1.
        -11    1    3    3    0    0 -0.15028775135E+01 -0.43308141726E+02 -0.18709574262E+03  0.19204861543E+03  0.00000000000E+00 0. -1.
         11    1    3    3    0    0  0.17257763146E+02  0.28603358138E+02 -0.43179599290E+02  0.54593591936E+02  0.00000000000E+00 0.  1.
</event>
<event>
 7    1  0.4687179E-006  0.6341421E+02  0.7561462E-02  0.1384038E+00
         -2   -1    0    0    0  501 -0.00000000000E+00  0.00000000000E+00  0.36043971034E+02  0.36043971034E+02  0.00000000000E+00 0.  1.
          2   -1    0    0  501    0  0.00000000000E+00 -0.00000000000E+00 -0.29173130780E+03  0.29173130780E+03  0.00000000000E+00 0. -1.
         23    2    1    2    0    0  0.48652455863E+01  0.53942451169E+01 -0.10993245315E+03  0.14362744432E+03  0.92146242529E+02 0.  0.
          5    1    1    2  502    0 -0.15000245438E+02 -0.16233636571E+02 -0.16094226056E+03  0.16250668280E+03  0.41800000000E+01 0. -1.
         -5    1    1    2    0  502  0.10134999852E+02  0.10839391454E+02  0.15187376944E+02  0.21641151714E+02  0.41800000000E+01 0.  1.
        -11    1    3    3    0    0  0.46282486395E+02 -0.39754359934E+01 -0.76846652435E+02  0.89795771775E+02  0.00000000000E+00 0.  1.
         11    1    3    3    0    0 -0.41417240809E+02  0.93696811103E+01 -0.33085800715E+02  0.53831672548E+02  0.00000000000E+00 0. -1.
</event>
<event>
 7    1  0.4687179E-006  0.1148170E+03  0.7561462E-02  0.1251901E+00
         -1   -1    0    0    0  501 -0.00000000000E+00  0.00000000000E+00  0.62296405644E+02  0.62296405644E+02  0.00000000000E+00 0.  1.
          1   -1    0    0  501    0  0.00000000000E+00 -0.00000000000E+00 -0.33865465486E+03  0.33865465486E+03  0.00000000000E+00 0. -1.
         23    2    1    2    0    0 -0.19823868566E+02  0.76062531920E+02 -0.20113951810E+03  0.23516558875E+03  0.93098087320E+02 0.  0.
          5    1    1    2  502    0 -0.29966213327E+02 -0.57723151864E+02 -0.89466156716E+02  0.11068695406E+03  0.41800000000E+01 0.  1.
         -5    1    1    2    0  502  0.49790081893E+02 -0.18339380056E+02  0.14247425600E+02  0.55098517693E+02  0.41800000000E+01 0.  1.
        -11    1    3    3    0    0  0.27549106547E+02  0.50204854103E+02 -0.55090312263E+02  0.79463344708E+02  0.00000000000E+00 0.  1.
         11    1    3    3    0    0 -0.47372975113E+02  0.25857677817E+02 -0.14604920584E+03  0.15570224404E+03  0.00000000000E+00 0. -1.
</event>
<event>
 7    1  0.4687179E-006  0.1103718E+03  0.7561462E-02  0.1259883E+00
          2   -1    0    0  501    0  0.00000000000E+00  0.00000000000E+00  0.23129375407E+03  0.23129375407E+03  0.00000000000E+00 0.  1.
         -2   -1    0    0    0  501 -0.00000000000E+00 -0.00000000000E+00 -0.61048035222E+02  0.61048035222E+02  0.00000000000E+00 0. -1.
         23    2    1    2    0    0  0.35208590522E+02  0.50422469715E+02  0.98908016079E+02  0.13574147255E+03  0.69720021706E+02 0.  0.
          5    1    1    2  502    0  0.71453707349E+01 -0.81458683648E+02  0.22850223374E+02  0.85006932498E+02  0.41800000000E+01 0.  1.
         -5    1    1    2    0  502 -0.42353961257E+02  0.31036213933E+02  0.48487479395E+02  0.71593384244E+02  0.41800000000E+01 0.  1.
        -11    1    3    3    0    0 -0.78819646900E+01  0.41428784985E+02  0.73975323752E+02  0.85151735843E+02  0.00000000000E+00 0.  1.
         11    1    3    3    0    0  0.43090555212E+02  0.89936847294E+01  0.24932692327E+02  0.50589736707E+02  0.00000000000E+00 0. -1.
</event>
<event>
 7    1  0.4687179E-006  0.1221899E+03  0.7561462E-02  0.1239527E+00
          2   -1    0    0  501    0  0.00000000000E+00  0.00000000000E+00  0.61435772133E+03  0.61435772133E+03  0.00000000000E+00 0. -1.
         -2   -1    0    0    0  501 -0.00000000000E+00 -0.00000000000E+00 -0.41239885937E+02  0.41239885937E+02  0.00000000000E+00 0.  1.
         23    2    1    2    0    0 -0.99305647497E+02 -0.46852784347E+02  0.31299841224E+03  0.34678364062E+03  0.10116369068E+03 0.  0.
          5    1    1    2  502    0  0.21095791332E+01  0.33420295616E+02  0.33603028033E+01  0.33913574246E+02  0.41800000000E+01 0.  1.
         -5    1    1    2    0  502  0.97196068364E+02  0.13432488730E+02  0.25675912035E+03  0.27490039240E+03  0.41800000000E+01 0.  1.
        -11    1    3    3    0    0 -0.67744651871E+02 -0.43900747060E+02  0.30296431357E+03  0.31353466913E+03  0.00000000000E+00 0. -1.
         11    1    3    3    0    0 -0.31560995626E+02 -0.29520372866E+01  0.10034098668E+02  0.33248971489E+02  0.00000000000E+00 0.  1.
</event>
<event>
 7    1  0.4687179E-006  0.1278027E+03  0.7561462E-02  0.1230753E+00
         -2   -1    0    0    0  501 -0.00000000000E+00  0.00000000000E+00  0.33510480355E+03  0.33510480355E+03  0.00000000000E+00 0.  1.
          2   -1    0    0  501    0  0.00000000000E+00 -0.00000000000E+00 -0.75560072581E+02  0.75560072581E+02  0.00000000000E+00 0. -1.
         23    2    1    2    0    0 -0.15659197719E+02 -0.87127474314E+02  0.55062979199E+02  0.13872395219E+03  0.91520467538E+02 0.  0.
          5    1    1    2  502    0 -0.46245112610E+02 -0.67196254450E+01  0.11096452269E+02  0.48211694218E+02  0.41800000000E+01 0. -1.
         -5    1    1    2    0  502  0.61904310329E+02  0.93847099759E+02  0.19338529950E+03  0.22372922972E+03  0.41800000000E+01 0.  1.
        -11    1    3    3    0    0 -0.26578223005E+02 -0.76346770945E+02 -0.74575661939E+00  0.80844217633E+02  0.00000000000E+00 0. -1.
         11    1    3    3    0    0  0.10919025286E+02 -0.10780703369E+02  0.55808735818E+02  0.57879734553E+02  0.00000000000E+00 0.  1.
</event>
<event>
 7    1  0.4687179E-006  0.1385693E+03  0.7561462E-02  0.1215267E+00
          1   -1    0    0  501    0  0.00000000000E+00  0.00000000000E+00  0.10119898833E+03  0.10119898833E+03  0.00000000000E+00 0. -1.
         -1   -1    0    0    0  501 -0.00000000000E+00 -0.00000000000E+00 -0.21990460826E+03  0.21990460826E+03  0.00000000000E+00 0.  1.
         23    2    1    2    0    0  0.62678743366E+02 -0.64707033354E+02 -0.17060562025E+01  0.12757933613E+03  0.90321378114E+02 0.  0.
          5    1    1    2  502    0 -0.53273546153E+02 -0.25389831439E+02 -0.69104107715E+02  0.90970128961E+02  0.41800000000E+01 0.  1.
         -5    1    1    2    0  502 -0.94051972129E+01  0.90096864793E+02 -0.47895456017E+02  0.10255413150E+03  0.41800000000E+01 0.  1.
        -11    1    3    3    0    0  0.77090536723E+02 -0.19040911895E+02 -0.51156747123E+01  0.79571837391E+02  0.00000000000E+00 0. -1.
         11    1    3    3    0    0 -0.14411793357E+02 -0.45666121459E+02  0.34096185098E+01  0.48007498740E+02  0.00000000000E+00 0.  1.
</event>
<event>
 7    1  0.4687179E-006  0.1052110E+03  0.7561462E-02  0.1269704E+00
          1   -1    0    0  501    0  0.00000000000E+00  0.00000000000E+00  0.67445630004E+03  0.67445630004E+03  0.00000000000E+00 0. -1.
         -1   -1    0    0    0  501 -0.00000000000E+00 -0.00000000000E+00 -0.23164055436E+02  0.23164055436E+02  0.00000000000E+00 0.  1.
         23    2    1    2    0    0  0.57937022367E+02  0.36140060767E+02  0.36159221301E+03  0.37916604206E+03  0.91406544558E+02 0.  0.
          5    1    1    2  502    0  0.19277504536E+02 -0.49311956291E+02  0.10134648098E+03  0.11441972217E+03  0.41800000000E+01 0. -1.
         -5    1    1    2    0  502 -0.77214526903E+02  0.13171895525E+02  0.18835355062E+03  0.20403459125E+03  0.41800000000E+01 0.  1.
        -11    1    3    3    0    0  0.61013368448E+01 -0.84990230337E+01 -0.68702769348E+00  0.10484832420E+02  0.00000000000E+00 0.  1.
         11    1    3    3    0    0  0.51835685522E+02  0.44639083800E+02  0.36227924070E+03  0.36868120964E+03  0.00000000000E+00 0. -1.
</event>
<event>
 7    1  0.4687179E-006  0.5565043E+02  0.7561462E-02  0.1417048E+00
         -1   -1    0    0    0  501 -0.00000000000E+00  0.00000000000E+00  0.15641912079E+03  0.15641912079E+03  0.00000000000E+00 0.  1.
          1   -1    0    0  501    0  0.00000000000E+00 -0.00000000000E+00 -0.74501906444E+02  0.74501906444E+02  0.00000000000E+00 0. -1.
         23    2    1    2    0    0 -0.12665769874E+02 -0.28059293183E+01  0.25043109883E+02  0.92898713410E+02  0.88513945990E+02 0.  0.
          5    1    1    2  502    0  0.17653049242E+02 -0.18683205421E+02  0.92397961733E+02  0.95997646037E+02  0.41800000000E+01 0.  1.
         -5    1    1    2    0  502 -0.49872793685E+01  0.21489134739E+02 -0.35523857269E+02  0.42024667787E+02  0.41800000000E+01 0.  1.
        -11    1    3    3    0    0  0.33312365918E+01 -0.30576762258E+02 -0.20679041261E+02  0.37062896202E+02  0.00000000000E+00 0. -1.
         11    1    3    3    0    0 -0.15997006465E+02  0.27770832940E+02  0.45722151144E+02  0.55835817208E+02  0.00000000000E+00 0.  1.
</event>
<event>
 7    1  0.4687179E-006  0.1136731E+03  0.7561462E-02  0.1253915E+00
         -2   -1    0    0    0  501 -0.00000000000E+00  0.00000000000E+00  0.40060468605E+02  0.40060468605E+02  0.00000000000E+00 0.  1.
          2   -1    0    0  501    0  0.00000000000E+00 -0.00000000000E+00 -0.37580172069E+03  0.37580172069E+03  0.00000000000E+00 0. -1.
         23    2    1    2    0    0  0.33377975253E+02  0.12685988371E+02 -0.22312820467E+03  0.24381181667E+03  0.91558629818E+02 0.  0.
          5    1    1    2  502    0 -0.23753221068E+02 -0.68799642615E+02 -0.60071083540E+02  0.94464881372E+02  0.41800000000E+01 0.  1.
         -5    1    1    2    0  502 -0.96247541848E+01  0.56113654243E+02 -0.52541963878E+02  0.77585491258E+02  0.41800000000E+01 0.  1.
        -11    1    3    3    0    0  0.39962360603E+01  0.49833048420E+02 -0.97888847515E+02  0.10991600923E+03  0.00000000000E+00 0.  1.
         11    1    3    3    0    0  0.29381739193E+02 -0.37147060048E+02 -0.12523935716E+03  0.13389580744E+03  0.00000000000E+00 0. -1.
</event>
<event>
 7    1  0.4687179E-006  0.1406537E+03  0.7561462E-02  0.1212452E+00
          2   -1    0    0  501    0  0.00000000000E+00  0.00000000000E+00  0.70975204766E+02  0.70975204766E+02  0.00000000000E+00 0. -1.
         -2   -1    0    0    0  501 -0.00000000000E+00 -0.00000000000E+00 -0.34355923411E+03  0.34355923411E+03  0.00000000000E+00 0.  1.
         23    2    1    2    0    0  0.10805073609E+03  0.13919460348E+02 -0.90973586118E+02  0.16857894757E+03  0.90961284320E+02 0.  0.
          5    1    1    2  502    0 -0.13803745533E+02 -0.44670230119E+02 -0.10413824040E+02  0.48082148254E+02  0.41800000000E+01 0.  1.
         -5    1    1    2    0  502 -0.94246990559E+02  0.30750769771E+02 -0.17119661919E+03  0.19787334306E+03  0.41800000000E+01 0.  1.
        -11    1    3    3    0    0  0.10344459825E+03  0.38317013129E+02 -0.51022519301E+02  0.12154125175E+03  0.00000000000E+00 0. -1.
         11    1    3    3    0    0  0.46061378423E+01 -0.24397552781E+02 -0.39951066817E+02  0.47037695813E+02  0.00000000000E+00 0.  1.
</event>
<event>
 7    1  0.4687179E-006  0.1599241E+03  0.7561462E-02  0.1188782E+00
         -2   -1    0    0    0  501 -0.00000000000E+00  0.00000000000E+00  0.75327159205E+02  0.75327159205E+02  0.00000000000E+00 0.  1.
          2   -1    0    0  501    0  0.00000000000E+00 -0.00000000000E+00 -0.42459706270E+03  0.42459706270E+03  0.00000000000E+00 0. -1.
         23    2    1    2    0    0 -0.10796301296E+03 -0.64130397623E+02 -0.25350490601E+03  0.29850964389E+03  0.95260432791E+02 0.  0.
          5    1    1    2  502    0  0.93214873168E+02  0.93175131996E+02 -0.41960908973E+02  0.13837921840E+03  0.41800000000E+01 0.  1.
         -5    1    1    2    0  502  0.14748139793E+02 -0.29044734374E+02 -0.53804088516E+02  0.63035359626E+02  0.41800000000E+01 0.  1.
        -11    1    3    3    0    0 -0.26535433332E+02  0.23553480551E+02 -0.82392583123E+02  0.89707488103E+02  0.00000000000E+00 0. -1.
         11    1    3    3    0    0 -0.81427579629E+02 -0.87683878174E+02 -0.17111232289E+03  0.20880215578E+03  0.00000000000E+00 0.  1.
</event>
<event>
 7    1  0.4687179E-006  0.9148046E+02  0.7561462E-02  0.1299306E+00
         -1   -1    0    0    0  501 -0.00000000000E+00  0.00000000000E+00  0.23120508768E+03  0.23120508768E+03  0.00000000000E+00 0.  1.
          1   -1    0    0  501    0  0.00000000000E+00 -0.00000000000E+00 -0.59170812778E+02  0.59170812778E+02  0.00000000000E+00 0. -1.
         23    2    1    2    0    0 -0.85576287456E+01 -0.40052968717E+02  0.51260039502E+02  0.11171930097E+03  0.90421995368E+02 0.  0.
          5    1    1    2  502    0 -0.34791589376E+02  0.32373416019E+01  0.11623998179E+03  0.12145015783E+03  0.41800000000E+01 0. -1.
         -5    1    1    2    0  502  0.43349218122E+02  0.36815627115E+02  0.45342536174E+01  0.57206441661E+02  0.41800000000E+01 0. -1.
        -11    1    3    3    0    0  0.32450825154E+02 -0.37592316548E+02  0.50955236607E+01  0.49921965886E+02  0.00000000000E+00 0. -1.
         11    1    3    3    0    0 -0.41008453900E+02 -0.24606521693E+01  0.46164515841E+02  0.61797335082E+02  0.00000000000E+00 0.  1.
</event>
<event>
 7    1  0.4687179E-006  0.1740380E+03  0.7561462E-02  0.1173701E+00
         -1   -1    0    0    0  501 -0.00000000000E+00  0.00000000000E+00  0.10774908798E+03  0.10774908798E+03  0.00000000000E+00 0.  1.
          1   -1    0    0  501    0  0.00000000000E+00 -0.00000000000E+00 -0.32088145763E+03  0.32088145763E+03  0.00000000000E+00 0. -1.
         23    2    1    2    0    0  0.66936968195E+02 -0.13510094576E+03 -0.11396148790E+03  0.20904832659E+03  0.89337331893E+02 0.  0.
          5    1    1    2  502    0 -0.73617393046E+02  0.14936532456E+03 -0.11035875734E+03  0.19981503563E+03  0.41800000000E+01 0.  1.
         -5    1    1    2    0  502  0.66804248508E+01 -0.14264378808E+02  0.11187875591E+02  0.19767183390E+02  0.41800000000E+01 0.  1.
        -11    1    3    3    0    0  0.40143038337E+01 -0.84136776828E+02 -0.23101050428E+02  0.87342832454E+02  0.00000000000E+00 0.  1.
         11    1    3    3    0    0  0.62922664361E+02 -0.50964168927E+02 -0.90860437472E+02  0.12170549413E+03  0.00000000000E+00 0. -1.
</event>
<event>
 7    1  0.4687179E-006  0.8277558E+02  0.7561462E-02  0.1321354E+00
          2   -1    0    0  501    0  0.00000000000E+00  0.00000000000E+00  0.11714125942E+03  0.11714125942E+03  0.00000000000E+00 0.  1.
         -2   -1    0    0    0  501 -0.00000000000E+00 -0.00000000000E+00 -0.10066215101E+03  0.10066215101E+03  0.00000000000E+00 0. -1.
         23    2    1    2    0    0 -0.98028585355E+01 -0.93245928850E+01 -0.27356942286E+01  0.90524308877E+02  0.89465761087E+02 0.  0.
          5    1    1    2  502    0 -0.23097432233E+02 -0.26615066192E+02 -0.38012585777E+02  0.52002713407E+02  0.41800000000E+01 0. -1.
         -5    1    1    2    0  502  0.32900290769E+02  0.35939659077E+02  0.57227388415E+02  0.75276388144E+02  0.41800000000E+01 0. -1.
        -11    1    3    3    0    0  0.35388640573E+02 -0.27800245378E+01  0.18653229894E+02  0.40100217000E+02  0.00000000000E+00 0.  1.
         11    1    3    3    0    0 -0.45191499108E+02 -0.65445683471E+01 -0.21388924123E+02  0.50424091877E+02  0.00000000000E+00 0. -1.
</event>
<event>
 7    1  0.4687179E-006  0.9024645E+02  0.7561462E-02  0.1302256E+00
          4   -1    0    0  501    0  0.00000000000E+00  0.00000000000E+00  0.66236380226E+02  0.66236380226E+02  0.00000000000E+00 0. -1.
         -4   -1    0    0    0  501 -0.00000000000E+00 -0.00000000000E+00 -0.24911795569E+03  0.24911795569E+03  0.00000000000E+00 0.  1.
         23    2    1    2    0    0 -0.46084088578E+02  0.31043666711E+02 -0.32496955203E+02  0.11200676534E+03  0.91662483724E+02 0.  0.
          5    1    1    2  502    0 -0.88655700989E+01  0.14631103618E+02 -0.12675416576E+03  0.12797170963E+03  0.41800000000E+01 0.  1.
         -5    1    1    2    0  502  0.54949658677E+02 -0.45674770329E+02 -0.23630454498E+02  0.75375860944E+02  0.41800000000E+01 0.  1.
        -11    1    3    3    0    0 -0.66481768961E+01  0.47943056923E+02  0.12339160968E+02  0.49949873439E+02  0.00000000000E+00 0.  1.
         11    1    3    3    0    0 -0.39435911682E+02 -0.16899390212E+02 -0.44836116171E+02  0.62056891906E+02  0.00000000000E+00 0. -1.
</event>
<event>
 7    1  0.4687179E-006  0.1254829E+03  0.7561462E-02  0.1234316E+00
          2   -1    0    0  501    0  0.00000000000E+00  0.00000000000E+00  0.21518660168E+03  0.21518660168E+03  0.00000000000E+00 0. -1.
         -2   -1    0    0    0  501 -0.00000000000E+00 -0.00000000000E+00 -0.97279581328E+02  0.97279581328E+02  0.00000000000E+00 0.  1.
         23    2    1    2    0    0  0.92302628550E+02  0.37008677018E+02  0.86707504168E+02  0.14964635346E+03  0.70614604805E+02 0.  0.
          5    1    1    2  502    0 -0.14705636763E+02  0.34807156001E+02  0.41770719156E+02  0.56480609419E+02  0.41800000000E+01 0.  1.
         -5    1    1    2    0  502 -0.77596991788E+02 -0.71815833020E+02 -0.10571202970E+02  0.10633922014E+03  0.41800000000E+01 0.  1.
        -11    1    3    3    0    0  0.56654832166E+02  0.12849764362E+01  0.81002523242E+02  0.98857624611E+02  0.00000000000E+00 0. -1.
         11    1    3    3    0    0  0.35647796384E+02  0.35723700582E+02  0.57049809263E+01  0.50788728845E+02  0.00000000000E+00 0.  1.
</event>
<event>
 7    1  0.4687179E-006  0.9062589E+02  0.7561462E-02  0.1301343E+00
         -1   -1    0    0    0  501 -0.00000000000E+00  0.00000000000E+00  0.29338960680E+02  0.29338960680E+02  0.00000000000E+00 0.  1.
          1   -1    0    0  501    0  0.00000000000E+00 -0.00000000000E+00 -0.61468185206E+03  0.61468185206E+03  0.00000000000E+00 0. -1.
         23    2    1    2    0    0  0.80967850511E+01  0.49799278592E+02 -0.41085931759E+03  0.42348020850E+03  0.89356488634E+02 0.  0.
          5    1    1    2  502    0  0.32323259824E+02 -0.44782896022E+02 -0.17172542425E+02  0.57988529168E+02  0.41800000000E+01 0. -1.
         -5    1    1    2    0  502 -0.40420044875E+02 -0.50163825697E+01 -0.15731103137E+03  0.16255207507E+03  0.41800000000E+01 0. -1.
        -11    1    3    3    0    0  0.11757612203E+02 -0.15535399146E+02 -0.23014694434E+02  0.30154041706E+02  0.00000000000E+00 0.  1.
         11    1    3    3    0    0 -0.36608271522E+01  0.65334677738E+02 -0.38784462316E+03  0.39332616679E+03  0.00000000000E+00 0. -1.
</event>
<event>
 7    1  0.4687179E-006  0.1727560E+03  0.7561462E-02  0.1175004E+00
          2   -1    0    0  501    0  0.00000000000E+00  0.00000000000E+00  0.55941210734E+03  0.55941210734E+03  0.00000000000E+00 0. -1.
         -2   -1    0    0    0  501 -0.00000000000E+00 -0.00000000000E+00 -0.72737584861E+02  0.72737584861E+02  0.00000000000E+00 0.  1.
         23    2    1    2    0    0 -0.15981804530E+03 -0.38054407887E+02  0.29806777254E+03  0.35248774529E+03  0.91723868164E+02 0.  0.
          5    1    1    2  502    0  0.10208237280E+03  0.25445420171E+02  0.19342225065E+03  0.22022243230E+03  0.41800000000E+01 0.  1.
         -5    1    1    2    0  502  0.57735672495E+02  0.12608987716E+02 -0.48155007074E+01  0.59439514607E+02  0.41800000000E+01 0.  1.
        -11    1    3    3    0    0 -0.11930370635E+03  0.80839304079E+01  0.14750026140E+03  0.18988167735E+03  0.00000000000E+00 0.  1.
         11    1    3    3    0    0 -0.40514338949E+02 -0.46138338295E+02  0.15056751114E+03  0.16260606794E+03  0.00000000000E+00 0. -1.
</event>
<event>
 7    1  0.4687179E-006  0.1776906E+03  0.7561462E-02  0.1170057E+00
         -1   -1    0    0    0  501 -0.00000000000E+00  0.00000000000E+00  0.63879100827E+02  0.63879100827E+02  0.00000000000E+00 0.  1.
          1   -1    0    0  501    0  0.00000000000E+00 -0.00000000000E+00 -0.71141588990E+03  0.71141588990E+03  0.00000000000E+00 0. -1.
         23    2    1    2    0    0  0.13957948584E+03  0.23813589869E+02 -0.52238833681E+03  0.54866839209E+03  0.89988388755E+02 0.  0.
          5    1    1    2  502    0  0.17925177216E+02 -0.24873582648E+02 -0.26411362762E+02  0.40682177608E+02  0.41800000000E+01 0.  1.
         -5    1    1    2    0  502 -0.15750466306E+03  0.10599927787E+01 -0.98737089498E+02  0.18594442103E+03  0.41800000000E+01 0.  1.
        -11    1    3    3    0    0  0.11943464801E+03 -0.17692348925E+02 -0.40210096463E+03  0.41983668267E+03  0.00000000000E+00 0.  1.
         11    1    3    3    0    0  0.20144837829E+02  0.41505938794E+02 -0.12028737218E+03  0.12883170942E+03  0.00000000000E+00 0. -1.
</event>
<event>
 7    1  0.4687179E-006  0.1506325E+03  0.7561462E-02  0.1199698E+00
          1   -1    0    0  501    0  0.00000000000E+00  0.00000000000E+00  0.62781467205E+03  0.62781467205E+03  0.00000000000E+00 0. -1.
         -1   -1    0    0    0  501 -0.00000000000E+00 -0.00000000000E+00 -0.51866393037E+02  0.51866393037E+02  0.00000000000E+00 0.  1.
         23    2    1    2    0    0  0.13015620735E+03  0.21162130923E+02  0.37767143504E+03  0.41070096945E+03  0.93011286187E+02 0.  0.
          5    1    1    2  502    0 -0.49360562968E+02  0.43360589352E+02  0.12785524338E+03  0.14380904542E+03  0.41800000000E+01 0. -1.
         -5    1    1    2    0  502 -0.80795644383E+02 -0.64522720275E+02  0.70421600585E+02  0.12517105022E+03  0.41800000000E+01 0. -1.
        -11    1    3    3    0    0  0.42363833829E+02  0.91235572604E+01  0.32046943857E+02  0.53897498313E+02  0.00000000000E+00 0.  1.
         11    1    3    3    0    0  0.87792373522E+02  0.12038573663E+02  0.34562449119E+03  0.35680347113E+03  0.00000000000E+00 0. -1.
</event>
<event>
 7    1  0.4687179E-006  0.1404187E+03  0.7561462E-02  0.1212767E+00
          2   -1    0    0  501    0  0.00000000000E+00  0.00000000000E+00  0.38856838120E+03  0.38856838120E+03  0.00000000000E+00 0. -1.
         -2   -1    0    0    0  501 -0.00000000000E+00 -0.00000000000E+00 -0.57956090010E+02  0.57956090010E+02  0.00000000000E+00 0.  1.
         23    2    1    2    0    0  0.82707622654E+02  0.61735225170E+02  0.14455958359E+03  0.19971289098E+03  0.91301570323E+02 0.  0.
          5    1    1    2  502    0 -0.88272435939E+02 -0.92664984104E+02  0.13037193794E+03  0.18273789105E+03  0.41800000000E+01 0. -1.
         -5    1    1    2    0  502  0.55648132854E+01  0.30929758934E+02  0.55680769662E+02  0.64073689177E+02  0.41800000000E+01 0. -1.
        -11    1    3    3    0    0  0.55666438837E+02  0.72991295298E+02  0.58613758353E+02  0.10891305831E+03  0.00000000000E+00 0. -1.
         11    1    3    3    0    0  0.27041183816E+02 -0.11256070128E+02  0.85945825239E+02  0.90799832670E+02  0.00000000000E+00 0.  1.
</event>
<event>
 7    1  0.4687179E-006  0.7118014E+02  0.7561462E-02  0.1356125E+00
          1   -1    0    0  501    0  0.00000000000E+00  0.00000000000E+00  0.10135233119E+03  0.10135233119E+03  0.00000000000E+00 0. -1.
         -1   -1    0    0    0  501 -0.00000000000E+00 -0.00000000000E+00 -0.12609301717E+03  0.12609301717E+03  0.00000000000E+00 0.  1.
         23    2    1    2    0    0  0.21297360688E+01 -0.12151654784E+02  0.19628830954E+02  0.94150495957E+02  0.91251445986E+02 0.  0.
          5    1    1    2  502    0 -0.73742125248E+00  0.33298816581E+02 -0.82724234424E+02  0.89275564052E+02  0.41800000000E+01 0. -1.
         -5    1    1    2    0  502 -0.13923148163E+01 -0.21147161797E+02  0.38354717497E+02  0.44019288351E+02  0.41800000000E+01 0. -1.
        -11    1    3    3    0    0  0.41735210164E+02 -0.20831641336E+02  0.25534751025E+02  0.53177143193E+02  0.00000000000E+00 0.  1.
         11    1    3    3    0    0 -0.39605474096E+02  0.86799865522E+01 -0.59059200707E+01  0.40973352765E+02  0.00000000000E+00 0. -1.
</event>
<event>
 7    1  0.4687179E-006  0.2108379E+03  0.7561462E-02  0.1140904E+00
          2   -1    0    0  501    0  0.00000000000E+00  0.00000000000E+00  0.38083601446E+03  0.38083601446E+03  0.00000000000E+00 0.  1.
         -2   -1    0    0    0  501 -0.00000000000E+00 -0.00000000000E+00 -0.20792306268E+03  0.20792306268E+03  0.00000000000E+00 0. -1.
         23    2    1    2    0    0 -0.19595194503E+03  0.53471059481E+02  0.18992004927E+03  0.29240718065E+03  0.90421320579E+02 0.  0.
          5    1    1    2  502    0  0.36081616505E+02 -0.45684245026E+02  0.87478471601E+02  0.10516125088E+03  0.41800000000E+01 0.  1.
         -5    1    1    2    0  502  0.15987032853E+03 -0.77868144551E+01 -0.10448556909E+03  0.19119064562E+03  0.41800000000E+01 0. -1.
        -11    1    3    3    0    0 -0.16864905992E+03  0.43950489164E+02  0.19660304791E+03  0.26272972682E+03  0.00000000000E+00 0.  1.
         11    1    3    3    0    0 -0.27302885117E+02  0.95205703172E+01 -0.66829986382E+01  0.29677453827E+02  0.00000000000E+00 0. -1.
</event>
<event>
 7    1  0.4687179E-006  0.8703558E+02  0.7561462E-02  0.1310194E+00
          2   -1    0    0  501    0  0.00000000000E+00  0.00000000000E+00  0.13848344560E+03  0.13848344560E+03  0.00000000000E+00 0. -1.
         -2   -1    0    0    0  501 -0.00000000000E+00 -0.00000000000E+00 -0.11242190999E+03  0.11242190999E+03  0.00000000000E+00 0.  1.
         23    2    1    2    0    0  0.48522650452E+01  0.50820073732E+02  0.46110553163E+02  0.11431885528E+03  0.91303850904E+02 0.  0.
          5    1    1    2  502    0 -0.34020967725E+02  0.89856648532E+01  0.35238574988E+02  0.49973973076E+02  0.41800000000E+01 0.  1.
         -5    1    1    2    0  502  0.29168702679E+02 -0.59805738585E+02 -0.55287592541E+02  0.86612527227E+02  0.41800000000E+01 0.  1.
        -11    1    3    3    0    0  0.21803912613E+02  0.39959529209E+01 -0.21144438788E+02  0.30634384875E+02  0.00000000000E+00 0.  1.
         11    1    3    3    0    0 -0.16951647568E+02  0.46824120811E+02  0.67254991952E+02  0.83684470408E+02  0.00000000000E+00 0. -1.
</event>
<event>
 7    1  0.4687179E-006  0.1051958E+03  0.7561462E-02  0.1269734E+00
         -1   -1    0    0    0  501 -0.00000000000E+00  0.00000000000E+00  0.50340701743E+02  0.50340701743E+02  0.00000000000E+00 0.  1.
          1   -1    0    0  501    0  0.00000000000E+00 -0.00000000000E+00 -0.28349332026E+03  0.28349332026E+03  0.00000000000E+00 0. -1.
         23    2    1    2    0    0  0.92918375670E+01  0.20758936178E+02 -0.77490806110E+02  0.12410966611E+03  0.94239654677E+02 0.  0.
          5    1    1    2  502    0  0.10103493101E+01 -0.66499840773E+02 -0.25566747654E+02  0.71374929872E+02  0.41800000000E+01 0. -1.
         -5    1    1    2    0  502 -0.10302186877E+02  0.45740904595E+02 -0.13009506476E+03  0.13834942602E+03  0.41800000000E+01 0.  1.
        -11    1    3    3    0    0 -0.22713514884E+02 -0.29417237291E+02 -0.34300152926E+02  0.50574480709E+02  0.00000000000E+00 0. -1.
         11    1    3    3    0    0  0.32005352451E+02  0.50176173469E+02 -0.43190653184E+02  0.73535185401E+02  0.00000000000E+00 0.  1.
</event>
<event>
 7    1  0.4687179E-006  0.8868941E+02  0.7561462E-02  0.1306057E+00
         -1   -1    0    0    0  501 -0.00000000000E+00  0.00000000000E+00  0.19940130346E+02  0.19940130346E+02  0.00000000000E+00 0.  1.
          1   -1    0    0  501    0  0.00000000000E+00 -0.00000000000E+00 -0.64570223849E+03  0.64570223849E+03  0.00000000000E+00 0. -1.
         23    2    1    2    0    0 -0.88014843155E+01  0.34584176090E+02 -0.28250452620E+03  0.29856446408E+03  0.89768594309E+02 0.  0.
          5    1    1    2  502    0 -0.18237802599E+02  0.16372238287E+02 -0.69253579453E+01  0.25808925062E+02  0.41800000000E+01 0.  1.
         -5    1    1    2    0  502  0.27039286915E+02 -0.50956414378E+02 -0.33633222400E+03  0.34126897969E+03  0.41800000000E+01 0.  1.
        -11    1    3    3    0    0  0.35412728837E+02  0.35924832049E+02 -0.12057666872E+03  0.13070343515E+03  0.00000000000E+00 0.  1.
         11    1    3    3    0    0 -0.44214213153E+02 -0.13406559584E+01 -0.16192785748E+03  0.16786102893E+03  0.00000000000E+00 0. -1.
</event>
<event>
 7    1  0.4687179E-006  0.1272893E+03  0.7561462E-02  0.1231534E+00
         -3   -1    0    0    0  501 -0.00000000000E+00  0.00000000000E+00  0.78269067146E+03  0.78269067146E+03  0.00000000000E+00 0.  1.
          3   -1    0    0  501    0  0.00000000000E+00 -0.00000000000E+00 -0.25710764219E+02  0.25710764219E+02  0.00000000000E+00 0. -1.
         23    2    1    2    0    0  0.40066673514E+02 -0.54699306544E+02  0.17424075653E+03  0.20854469496E+03  0.92378006564E+02 0.  0.
          5    1    1    2  502    0  0.17980746229E+02  0.77408728155E+02  0.34318237541E+03  0.35228828198E+03  0.41800000000E+01 0.  1.
         -5    1    1    2    0  502 -0.58047419744E+02 -0.22709421611E+02  0.23955677530E+03  0.24756845874E+03  0.41800000000E+01 0.  1.
        -11    1    3    3    0    0 -0.25376205299E+02  0.26470870379E+01  0.24584950570E+02  0.35431323143E+02  0.00000000000E+00 0. -1.
         11    1    3    3    0    0  0.65442878813E+02 -0.57346393581E+02  0.14965580596E+03  0.17311337181E+03  0.00000000000E+00 0.  1.
</event>
<event>
 7    1  0.4687179E-006  0.1322479E+03  0.7561462E-02  0.1224158E+00
          2   -1    0    0  501    0  0.00000000000E+00  0.00000000000E+00  0.54616818096E+02  0.54616818096E+02  0.00000000000E+00 0. -1.
         -2   -1    0    0    0  501 -0.00000000000E+00 -0.00000000000E+00 -0.41111973369E+03  0.41111973369E+03  0.00000000000E+00 0.  1.
         23    2    1    2    0    0  0.68493584896E+02  0.79137446396E+02 -0.16067986383E+03  0.21087488346E+03  0.87727368827E+02 0.  0.
          5    1    1    2  502    0 -0.21852449024E+02  0.20368948933E+02 -0.11363117715E+03  0.11756674883E+03  0.41800000000E+01 0.  1.
         -5    1    1    2    0  502 -0.46641135873E+02 -0.99506395330E+02 -0.82191874616E+02  0.13729491950E+03  0.41800000000E+01 0.  1.
        -11    1    3    3    0    0  0.59406683359E+02  0.17327042424E+02 -0.36446697563E+02  0.71817422609E+02  0.00000000000E+00 0. -1.
         11    1    3    3    0    0  0.90869015371E+01  0.61810403972E+02 -0.12423316626E+03  0.13905746085E+03  0.00000000000E+00 0.  1.
</event>
<event>
 7    1  0.4687179E-006  0.1019145E+03  0.7561462E-02  0.1276321E+00
         -1   -1    0    0    0  501 -0.00000000000E+00  0.00000000000E+00  0.11883192285E+03  0.11883192285E+03  0.00000000000E+00 0.  1.
          1   -1    0    0  501    0  0.00000000000E+00 -0.00000000000E+00 -0.13421893662E+03  0.13421893662E+03  0.00000000000E+00 0. -1.
         23    2    1    2    0    0 -0.10588488966E+02  0.36127447209E+02 -0.57845620453E+02  0.11569190411E+03  0.92850376044E+02 0.  0.
          5    1    1    2  502    0  0.54803009817E+02 -0.11420719542E+02 -0.17461238811E+02  0.58789199524E+02  0.41800000000E+01 0. -1.
         -5    1    1    2    0  502 -0.44214520851E+02 -0.24706727667E+02  0.59919845504E+02  0.78569755831E+02  0.41800000000E+01 0. -1.
        -11    1    3    3    0    0 -0.50235330353E+02  0.20058658506E+02 -0.46755524705E+02  0.71498372619E+02  0.00000000000E+00 0. -1.
         11    1    3    3    0    0  0.39646841387E+02  0.16068788702E+02 -0.11090095749E+02  0.44193531496E+02  0.00000000000E+00 0.  1.
</event>
<event>
 7    1  0.4687179E-006  0.5124581E+02  0.7561462E-02  0.1438736E+00
         -3   -1    0    0    0  501 -0.00000000000E+00  0.00000000000E+00  0.58750531272E+02  0.58750531272E+02  0.00000000000E+00 0.  1.
          3   -1    0    0  501    0  0.00000000000E+00 -0.00000000000E+00 -0.22470353293E+03  0.22470353293E+03  0.00000000000E+00 0. -1.
         23    2    1    2    0    0  0.27914303943E+02  0.63010204554E+01 -0.10214130607E+03  0.14014440651E+03  0.91589830477E+02 0.  0.
          5    1    1    2  502    0 -0.70351587157E+01  0.47731423019E+01 -0.99692496785E+02  0.10014161303E+03  0.41800000000E+01 0.  1.
         -5    1    1    2    0  502 -0.20879145227E+02 -0.11074162757E+02  0.35880801190E+02  0.43168044665E+02  0.41800000000E+01 0.  1.
        -11    1    3    3    0    0  0.26631336934E+02  0.32933431364E+02 -0.90499153953E+01  0.43309813864E+02  0.00000000000E+00 0.  1.
         11    1    3    3    0    0  0.12829670092E+01 -0.26632410909E+02 -0.93091390670E+02  0.96834592642E+02  0.00000000000E+00 0. -1.
</event>
<event>
 7    1  0.4687179E-006  0.2073416E+03  0.7561462E-02  0.1143689E+00
          1   -1    0    0  501    0  0.00000000000E+00  0.00000000000E+00  0.79078638554E+03  0.79078638554E+03  0.00000000000E+00 0. -1.
         -1   -1    0    0    0  501 -0.00000000000E+00 -0.00000000000E+00 -0.61442070243E+02  0.61442070243E+02  0.00000000000E+00 0.  1.
         23    2    1    2    0    0 -0.19015756478E+03  0.11200417572E+02  0.32082284126E+03  0.38444439457E+03  0.92654456180E+02 0.  0.
          5    1    1    2  502    0  0.12105615693E+03  0.47644192673E+02  0.18229850654E+03  0.22399727702E+03  0.41800000000E+01 0. -1.
         -5    1    1    2    0  502  0.69101407853E+02 -0.58844610245E+02  0.22622296750E+03  0.24378678419E+03  0.41800000000E+01 0. -1.
        -11    1    3    3    0    0 -0.17712131881E+03  0.19528029156E+02  0.32293037930E+03  0.36883239469E+03  0.00000000000E+00 0. -1.
         11    1    3    3    0    0 -0.13036245972E+02 -0.83276115832E+01 -0.21075380430E+01  0.15611999882E+02  0.00000000000E+00 0.  1.
</event>
<event>
 7    1  0.4687179E-006  0.1483563E+03  0.7561462E-02  0.1202507E+00
          1   -1    0    0  501    0  0.00000000000E+00  0.00000000000E+00  0.40246505056E+02  0.40246505056E+02  0.00000000000E+00 0. -1.
         -1   -1    0    0    0  501 -0.00000000000E+00 -0.00000000000E+00 -0.82622743797E+03  0.82622743797E+03  0.00000000000E+00 0.  1.
         23    2    1    2    0    0 -0.11152787959E+03 -0.76808221122E+02 -0.23525653487E+03  0.28571136438E+03  0.89148055366E+02 0.  0.
          5    1    1    2  502    0  0.89504098925E+02  0.18152932411E+02 -0.15394204651E+03  0.17904228205E+03  0.41800000000E+01 0. -1.
         -5    1    1    2    0  502  0.22023780669E+02  0.58655288711E+02 -0.39678235153E+03  0.40172029660E+03  0.41800000000E+01 0. -1.
        -11    1    3    3    0    0 -0.68988684778E+02 -0.71951886483E+02 -0.90082899421E+02  0.13435565252E+03  0.00000000000E+00 0. -1.
         11    1    3    3    0    0 -0.42539194816E+02 -0.48563346388E+01 -0.14517363545E+03  0.15135571186E+03  0.00000000000E+00 0.  1.
</event>
<event>
 7    1  0.4687179E-006  0.1008403E+03  0.7561462E-02  0.1278539E+00
         -2   -1    0    0    0  501 -0.00000000000E+00  0.00000000000E+00  0.12618569199E+03  0.12618569199E+03  0.00000000000E+00 0. -1.
          2   -1    0    0  501    0  0.00000000000E+00 -0.00000000000E+00 -0.12201814319E+03  0.12201814319E+03  0.00000000000E+00 0.  1.
         23    2    1    2    0    0  0.62095581235E+02 -0.26439741776E+01  0.73231911740E+00  0.10848392781E+03  0.88912172925E+02 0.  0.
          5    1    1    2  502    0 -0.35296821760E+02  0.53264169937E+02  0.36244022680E+02  0.73580153611E+02  0.41800000000E+01 0. -1.
         -5    1    1    2    0  502 -0.26798759476E+02 -0.50620195759E+02 -0.32808793005E+02  0.66139753754E+02  0.41800000000E+01 0. -1.
        -11    1    3    3    0    0  0.21222397045E+02 -0.25668376624E+02 -0.35895232212E+02  0.48966553794E+02  0.00000000000E+00 0.  1.
         11    1    3    3    0    0  0.40873184190E+02  0.23024402447E+02  0.36627551329E+02  0.59517374020E+02  0.00000000000E+00 0. -1.
</event>
<event>
 7    1  0.4687179E-006  0.1063474E+03  0.7561462E-02  0.1267487E+00
         -1   -1    0    0    0  501 -0.00000000000E+00  0.00000000000E+00  0.46897630856E+02  0.46897630856E+02  0.00000000000E+00 0.  1.
          1   -1    0    0  501    0  0.00000000000E+00 -0.00000000000E+00 -0.36910805339E+03  0.36910805339E+03  0.00000000000E+00 0. -1.
         23    2    1    2    0    0 -0.22842670263E+02 -0.35029060563E+02 -0.21030586464E+03  0.23602689862E+03  0.98647440422E+02 0.  0.
          5    1    1    2  502    0  0.41464312964E+02  0.60685947782E+02 -0.12528690018E+03  0.14531466982E+03  0.41800000000E+01 0. -1.
         -5    1    1    2    0  502 -0.18621642701E+02 -0.25656887218E+02  0.13382342297E+02  0.34664115797E+02  0.41800000000E+01 0.  1.
        -11    1    3    3    0    0 -0.33152784155E+02 -0.66325433400E+02 -0.14872125077E+03  0.16618116814E+03  0.00000000000E+00 0.  1.
         11    1    3    3    0    0  0.10310113892E+02  0.31296372837E+02 -0.61584613874E+02  0.69845730487E+02  0.00000000000E+00 0. -1.
</event>
<event>
 7    1  0.4687179E-006  0.1056369E+03  0.7561462E-02  0.1268870E+00
         -1   -1    0    0    0  501 -0.00000000000E+00  0.00000000000E+00  0.87610639713E+02  0.87610639713E+02  0.00000000000E+00 0.  1.
          1   -1    0    0  501    0  0.00000000000E+00 -0.00000000000E+00 -0.13417409391E+03  0.13417409391E+03  0.00000000000E+00 0. -1.
         23    2    1    2    0    0 -0.37174058648E+01 -0.60187486302E+01 -0.31113087754E+02  0.95547495534E+02  0.90062507359E+02 0.  0.
          5    1    1    2  502    0 -0.24649556435E+02  0.59096533225E+02 -0.87291194358E+00  0.64173477753E+02  0.41800000000E+01 0.  1.
         -5    1    1    2    0  502  0.28366962300E+02 -0.53077784595E+02 -0.14577454502E+02  0.62063760339E+02  0.41800000000E+01 0.  1.
        -11    1    3    3    0    0 -0.16358127521E+02 -0.43897619063E+02 -0.34581273995E+01  0.46973907017E+02  0.00000000000E+00 0.  1.
         11    1    3    3    0    0  0.12640721656E+02  0.37878870432E+02 -0.27654960354E+02  0.48573588517E+02  0.00000000000E+00 0. -1.
</event>
<event>
 7    1  0.4687179E-006  0.2314074E+03  0.7561462E-02  0.1125653E+00
         -2   -1    0    0    0  501 -0.00000000000E+00  0.00000000000E+00  0.39978302376E+03  0.39978302376E+03  0.00000000000E+00 0.  1.
          2   -1    0    0  501    0  0.00000000000E+00 -0.00000000000E+00 -0.16186548009E+03  0.16186548009E+03  0.00000000000E+00 0. -1.
         23    2    1    2    0    0 -0.24561050746E+02 -0.21041170987E+03  0.19527911005E+02  0.23267669737E+03  0.94237855083E+02 0.  0.
          5    1    1    2  502    0 -0.38927394765E+02  0.21614929528E+02  0.24611251899E+02  0.51046384414E+02  0.41800000000E+01 0.  1.
         -5    1    1    2    0  502  0.63488445511E+02  0.18879678034E+03  0.19377838076E+03  0.27792542206E+03  0.41800000000E+01 0.  1.
        -11    1    3    3    0    0  0.13354434082E+02 -0.12113724972E+03  0.48928606570E+02  0.13132624536E+03  0.00000000000E+00 0.  1.
         11    1    3    3    0    0 -0.37915484828E+02 -0.89274460150E+02 -0.29400695565E+02  0.10135045202E+03  0.00000000000E+00 0. -1.
</event>
<event>
 7    1  0.4687179E-006  0.1850487E+03  0.7561462E-02  0.1163004E+00
         -2   -1    0    0    0  501 -0.00000000000E+00  0.00000000000E+00  0.74956382969E+02  0.74956382969E+02  0.00000000000E+00 0.  1.
          2   -1    0    0  501    0  0.00000000000E+00 -0.00000000000E+00 -0.60131816551E+03  0.60131816551E+03  0.00000000000E+00 0. -1.
         23    2    1    2    0    0  0.16340079333E+03  0.25498213415E+02 -0.37365382461E+03  0.41875253859E+03  0.91577998372E+02 0.  0.
          5    1    1    2  502    0 -0.14880834802E+02  0.33267347966E+02 -0.66560398823E+02  0.75999439318E+02  0.41800000000E+01 0. -1.
         -5    1    1    2    0  502 -0.14851995853E+03 -0.58765561381E+02 -0.86147559111E+02  0.18152257057E+03  0.41800000000E+01 0. -1.
        -11    1    3    3    0    0  0.42013754098E+02 -0.16574631169E+02 -0.18551883554E+03  0.19093745644E+03  0.00000000000E+00 0. -1.
         11    1    3    3    0    0  0.12138703923E+03  0.42072844584E+02 -0.18813498907E+03  0.22781508216E+03  0.00000000000E+00 0.  1.
</event>
<event>
 7    1  0.4687179E-006  0.1544387E+03  0.7561462E-02  0.1195122E+00
          2   -1    0    0  501    0  0.00000000000E+00  0.00000000000E+00  0.33611378401E+03  0.33611378401E+03  0.00000000000E+00 0. -1.
         -2   -1    0    0    0  501 -0.00000000000E+00 -0.00000000000E+00 -0.11711192266E+03  0.11711192266E+03  0.00000000000E+00 0.  1.
         23    2    1    2    0    0  0.76897374025E+02  0.12223251851E+03  0.19676139354E+03  0.26088060976E+03  0.92139306738E+02 0.  0.
          5    1    1    2  502    0 -0.42871800470E+02 -0.23238082670E+02 -0.46121901294E+02  0.67251036726E+02  0.41800000000E+01 0.  1.
         -5    1    1    2    0  502 -0.34025573555E+02 -0.98994435842E+02  0.68362369105E+02  0.12509406018E+03  0.41800000000E+01 0.  1.
        -11    1    3    3    0    0  0.55009698550E+02  0.12138437133E+03  0.11433198343E+03  0.17559053213E+03  0.00000000000E+00 0.  1.
         11    1    3    3    0    0  0.21887675476E+02  0.84814718242E+00  0.82429410109E+02  0.85290077631E+02  0.00000000000E+00 0. -1.
</event>
<event>
 7    1  0.4687179E-006  0.1224020E+03  0.7561462E-02  0.1239186E+00
          2   -1    0    0  501    0  0.00000000000E+00  0.00000000000E+00  0.10344460382E+03  0.10344460382E+03  0.00000000000E+00 0. -1.
         -2   -1    0    0    0  501 -0.00000000000E+00 -0.00000000000E+00 -0.17757882023E+03  0.17757882023E+03  0.00000000000E+00 0.  1.
         23    2    1    2    0    0  0.44183982194E+02  0.68920295766E+02 -0.23595624211E+02  0.12321280983E+03  0.89007929833E+02 0.  0.
          5    1    1    2  502    0 -0.43614064278E+02 -0.91393374606E+02  0.10753043474E+01  0.10135859216E+03  0.41800000000E+01 0. -1.
         -5    1    1    2    0  502 -0.56991791611E+00  0.22473078840E+02 -0.51613896540E+02  0.56452022063E+02  0.41800000000E+01 0. -1.
        -11    1    3    3    0    0  0.52195191154E+02  0.86635189289E+02 -0.23182933251E+02  0.10376628738E+03  0.00000000000E+00 0.  1.
         11    1    3    3    0    0 -0.80112089595E+01 -0.17714893523E+02 -0.41269095994E+00  0.19446522448E+02  0.00000000000E+00 0. -1.
</event>
<event>
 7    1  0.4687179E-006  0.2190351E+03  0.7561462E-02  0.1134604E+00
          3   -1    0    0  501    0  0.00000000000E+00  0.00000000000E+00  0.14605639360E+03  0.14605639360E+03  0.00000000000E+00 0. -1.
         -3   -1    0    0    0  501 -0.00000000000E+00 -0.00000000000E+00 -0.40878898735E+03  0.40878898735E+03  0.00000000000E+00 0.  1.
         23    2    1    2    0    0 -0.13115475105E+02 -0.19643974366E+03 -0.21041014411E+02  0.21894049466E+03  0.93443177050E+02 0.  0.
          5    1    1    2  502    0  0.48286544482E+02  0.24323303466E+02 -0.82921325615E+02  0.99078918602E+02  0.41800000000E+01 0. -1.
         -5    1    1    2    0  502 -0.35171069377E+02  0.17211644020E+03 -0.15877025373E+03  0.23682596770E+03  0.41800000000E+01 0. -1.
        -11    1    3    3    0    0  0.27807079836E+02 -0.77833820256E+02  0.23292084274E+02  0.85871173594E+02  0.00000000000E+00 0. -1.
         11    1    3    3    0    0 -0.40922554941E+02 -0.11860592341E+03 -0.44333098684E+02  0.13306932106E+03  0.00000000000E+00 0.  1.
</event>
<event>
 7    1  0.4687179E-006  0.7287218E+02  0.7561462E-02  0.1350590E+00
          1   -1    0    0  501    0  0.00000000000E+00  0.00000000000E+00  0.10189465567E+03  0.10189465567E+03  0.00000000000E+00 0. -1.
         -1   -1    0    0    0  501 -0.00000000000E+00 -0.00000000000E+00 -0.16396454469E+03  0.16396454469E+03  0.00000000000E+00 0.  1.
         23    2    1    2    0    0  0.33357597458E+02 -0.53589523364E+02  0.75059754762E+01  0.10942019834E+03  0.89061067890E+02 0.  0.
          5    1    1    2  502    0 -0.29778431759E+02  0.57792338525E+02  0.18789422497E+02  0.67802833186E+02  0.41800000000E+01 0.  1.
         -5    1    1    2    0  502 -0.35791656991E+01 -0.42028151611E+01 -0.88365286990E+02  0.88636168843E+02  0.41800000000E+01 0.  1.
        -11    1    3    3    0    0  0.33669244005E+02 -0.18184207022E+02 -0.36538405157E+02  0.52908774587E+02  0.00000000000E+00 0.  1.
         11    1    3    3    0    0 -0.31164654636E+00 -0.35405316342E+02  0.44044380633E+02  0.56511423750E+02  0.00000000000E+00 0. -1.
</event>
<event>
 7    1  0.4687179E-006  0.1942099E+03  0.7561462E-02  0.1154718E+00
          2   -1    0    0  501    0  0.00000000000E+00  0.00000000000E+00  0.13112839058E+04  0.13112839058E+04  0.00000000000E+00 0. -1.
         -2   -1    0    0    0  501 -0.00000000000E+00 -0.00000000000E+00 -0.36430985928E+02  0.36430985928E+02  0.00000000000E+00 0.  1.
         23    2    1    2    0    0  0.12970745296E+02 -0.18925997159E+03  0.64305090558E+03  0.67629092775E+03  0.88698222658E+02 0.  0.
          5    1    1    2  502    0  0.15316078624E+02  0.42008647361E+02  0.37569207196E+02  0.58551058461E+02  0.41800000000E+01 0.  1.
         -5    1    1    2    0  502 -0.28286823920E+02  0.14725132423E+03  0.59423280707E+03  0.61287290550E+03  0.41800000000E+01 0.  1.
        -11    1    3    3    0    0  0.12933229217E+02 -0.17556698006E+02  0.18591976023E+02  0.28656022671E+02  0.00000000000E+00 0. -1.
         11    1    3    3    0    0  0.37516078792E-01 -0.17170327358E+03  0.62445892956E+03  0.64763490507E+03  0.00000000000E+00 0.  1.
</event>
<event>
 7    1  0.4687179E-006  0.1208191E+03  0.7561462E-02  0.1241752E+00
          2   -1    0    0  501    0  0.00000000000E+00  0.00000000000E+00  0.70655647479E+02  0.70655647479E+02  0.00000000000E+00 0. -1.
         -2   -1    0    0    0  501 -0.00000000000E+00 -0.00000000000E+00 -0.21370091579E+03  0.21370091579E+03  0.00000000000E+00 0.  1.
         23    2    1    2    0    0  0.64014243855E+01 -0.52098290027E+02 -0.36470585075E+02  0.10927595319E+03  0.88633629691E+02 0.  0.
          5    1    1    2  502    0 -0.65890630468E+02  0.42425857471E+02 -0.61365197595E+02  0.99622730546E+02  0.41800000000E+01 0. -1.
         -5    1    1    2    0  502  0.59489206082E+02  0.96724325551E+01 -0.45209485645E+02  0.75457879536E+02  0.41800000000E+01 0.  1.
        -11    1    3    3    0    0 -0.40586715263E+02 -0.16583796082E+02 -0.11690457495E+02  0.45375880650E+02  0.00000000000E+00 0. -1.
         11    1    3    3    0    0  0.46988139649E+02 -0.35514493945E+02 -0.24780127580E+02  0.63900072541E+02  0.00000000000E+00 0.  1.
</event>
<event>
 7    1  0.4687179E-006  0.1162319E+03  0.7561462E-02  0.1249446E+00
          1   -1    0    0  501    0  0.00000000000E+00  0.00000000000E+00  0.27248908641E+03  0.27248908641E+03  0.00000000000E+00 0.  1.
         -1   -1    0    0    0  501 -0.00000000000E+00 -0.00000000000E+00 -0.73214889046E+02  0.73214889046E+02  0.00000000000E+00 0. -1.
         23    2    1    2    0    0 -0.33361963794E+01 -0.81138477874E+02  0.13772231914E+03  0.18436175671E+03  0.91799985577E+02 0.  0.
          5    1    1    2  502    0  0.37479577607E+02  0.26408797428E+02  0.81575019970E+02  0.93670163885E+02  0.41800000000E+01 0.  1.
         -5    1    1    2    0  502 -0.34143381227E+02  0.54729680446E+02 -0.20023141743E+02  0.67672054858E+02  0.41800000000E+01 0.  1.
        -11    1    3    3    0    0 -0.47056769036E+02 -0.43835580664E+02  0.62306254949E+02  0.89543101633E+02  0.00000000000E+00 0. -1.
         11    1    3    3    0    0  0.43720572656E+02 -0.37302897211E+02  0.75416064187E+02  0.94818655080E+02  0.00000000000E+00 0.  1.
</event>
<event>
 7    1  0.4687179E-006  0.1098604E+03  0.7561462E-02  0.1260829E+00
          2   -1    0    0  501    0  0.00000000000E+00  0.00000000000E+00  0.11050625816E+03  0.11050625816E+03  0.00000000000E+00 0.  1.
         -2   -1    0    0    0  501 -0.00000000000E+00 -0.00000000000E+00 -0.16234309668E+03  0.16234309668E+03  0.00000000000E+00 0. -1.
         23    2    1    2    0    0  0.33911214430E+02 -0.35423450272E+02  0.39549595249E+02  0.11030206881E+03  0.90540513612E+02 0.  0.
          5    1    1    2  502    0 -0.38258409730E+01 -0.41655400030E+02 -0.41561011290E+01  0.42243993507E+02  0.41800000000E+01 0.  1.
         -5    1    1    2    0  502 -0.30085373457E+02  0.77078850302E+02 -0.87230332644E+02  0.12030329253E+03  0.41800000000E+01 0.  1.
        -11    1    3    3    0    0  0.14099833235E+01 -0.56227105254E+02  0.44063585852E+02  0.71449807672E+02  0.00000000000E+00 0.  1.
         11    1    3    3    0    0  0.32501231106E+02  0.20803654982E+02 -0.45139906032E+01  0.38852261134E+02  0.00000000000E+00 0. -1.
</event>
<event>
 7    1  0.4687179E-006  0.1266397E+03  0.7561462E-02  0.1232529E+00
         -2   -1    0    0    0  501 -0.00000000000E+00  0.00000000000E+00  0.62315471967E+02  0.62315471967E+02  0.00000000000E+00 0. -1.
          2   -1    0    0  501    0  0.00000000000E+00 -0.00000000000E+00 -0.37570338537E+03  0.37570338537E+03  0.00000000000E+00 0.  1.
         23    2    1    2    0    0  0.91420806545E+02  0.85584360245E+01 -0.22440732328E+03  0.25915114669E+03  0.91485842571E+02 0.  0.
          5    1    1    2  502    0 -0.54973025188E+02 -0.64602137207E+02 -0.67620083201E+02  0.10856066360E+03  0.41800000000E+01 0.  1.
         -5    1    1    2    0  502 -0.36447781357E+02  0.56043701182E+02 -0.21360506916E+02  0.70307047042E+02  0.41800000000E+01 0.  1.
        -11    1    3    3    0    0  0.71315254477E+02  0.24816972543E+02 -0.22041195349E+03  0.23298750372E+03  0.00000000000E+00 0.  1.
         11    1    3    3    0    0  0.20105552067E+02 -0.16258536519E+02 -0.39953697909E+01  0.26163642969E+02  0.00000000000E+00 0. -1.
</event>
<event>
 7    1  0.4687179E-006  0.1042355E+03  0.7561462E-02  0.1271633E+00
         -1   -1    0    0    0  501 -0.00000000000E+00  0.00000000000E+00  0.23323210201E+02  0.23323210201E+02  0.00000000000E+00 0.  1.
          1   -1    0    0  501    0  0.00000000000E+00 -0.00000000000E+00 -0.63068271107E+03  0.63068271107E+03  0.00000000000E+00 0. -1.
         23    2    1    2    0    0  0.47941750525E+02  0.29653581820E+02 -0.24777886036E+03  0.26913675688E+03  0.88670648501E+02 0.  0.
          5    1    1    2  502    0 -0.46393548058E+02 -0.60673178630E+02 -0.11392293811E+03  0.13722064033E+03  0.41800000000E+01 0.  1.
         -5    1    1    2    0  502 -0.15482024664E+01  0.31019596810E+02 -0.24565770240E+03  0.24764852406E+03  0.41800000000E+01 0.  1.
        -11    1    3    3    0    0  0.47049645872E+02 -0.19895569119E+02 -0.86945978414E+02  0.10084198535E+03  0.00000000000E+00 0.  1.
         11    1    3    3    0    0  0.89210465257E+00  0.49549150939E+02 -0.16083288194E+03  0.16829477153E+03  0.00000000000E+00 0. -1.
</event>
<event>
 7    1  0.6505507E-006  0.2805753E+03  0.7561462E-02  0.1095375E+00
         -2   -1    0    0    0  501 -0.00000000000E+00  0.00000000000E+00  0.16601958039E+03  0.16601958039E+03  0.00000000000E+00 0.  1.
          2   -1    0    0  501    0  0.00000000000E+00 -0.00000000000E+00 -0.55832283481E+03  0.55832283481E+03  0.00000000000E+00 0. -1.
         23    2    1    2    0    0  0.11429836462E+03 -0.24328819108E+03 -0.30105073370E+03  0.41413635068E+03  0.92866100507E+02 0.  0.
          5    1    1    2  502    0  0.71442177407E+01 -0.77761337835E+01 -0.18900339582E+02  0.22050019049E+02  0.41800000000E+01 0. -1.
         -5    1    1    2    0  502 -0.12144258236E+03  0.25106432486E+03 -0.72352181136E+02  0.28815604547E+03  0.41800000000E+01 0. -1.
        -11    1    3    3    0    0  0.61589785081E+02 -0.92453491999E+02 -0.18813642126E+03  0.21848629891E+03  0.00000000000E+00 0. -1.
         11    1    3    3    0    0  0.52708579537E+02 -0.15083469908E+03 -0.11291431244E+03  0.19565005177E+03  0.00000000000E+00 0.  1.
</event>
<event>
 7    1  0.4687179E-006  0.1427669E+03  0.7561462E-02  0.1209654E+00
         -2   -1    0    0    0  501 -0.00000000000E+00  0.00000000000E+00  0.18843155329E+03  0.18843155329E+03  0.00000000000E+00 0. -1.
          2   -1    0    0  501    0  0.00000000000E+00 -0.00000000000E+00 -0.13242338970E+03  0.13242338970E+03  0.00000000000E+00 0.  1.
         23    2    1    2    0    0  0.55022779019E+02  0.10039888786E+03  0.26952778461E+02  0.14881327926E+03  0.91167411530E+02 0.  0.
          5    1    1    2  502    0 -0.18033803393E+02  0.17918605936E+02  0.39941450444E+02  0.47529847118E+02  0.41800000000E+01 0.  1.
         -5    1    1    2    0  502 -0.36988975626E+02 -0.11831749379E+03 -0.10886065314E+02  0.12451181660E+03  0.41800000000E+01 0.  1.
        -11    1    3    3    0    0 -0.59492643531E+01 -0.88263548945E+01 -0.13639255578E+02  0.17301086087E+02  0.00000000000E+00 0.  1.
         11    1    3    3    0    0  0.60972043372E+02  0.10922524275E+03  0.40592034039E+02  0.13151219318E+03  0.00000000000E+00 0. -1.
</event>
<event>
 7    1  0.4687179E-006  0.1304931E+03  0.7561462E-02  0.1226726E+00
         -2   -1    0    0    0  501 -0.00000000000E+00  0.00000000000E+00  0.40949935945E+02  0.40949935945E+02  0.00000000000E+00 0. -1.
          2   -1    0    0  501    0  0.00000000000E+00 -0.00000000000E+00 -0.51829012481E+03  0.51829012481E+03  0.00000000000E+00 0.  1.
         23    2    1    2    0    0  0.38557615397E+02 -0.86554911078E+02 -0.19037477094E+03  0.23216921658E+03  0.93174832342E+02 0.  0.
          5    1    1    2  502    0 -0.82814916550E+02  0.72111997714E+02 -0.19193419943E+03  0.22116658863E+03  0.41800000000E+01 0. -1.
         -5    1    1    2    0  502  0.44257301153E+02  0.14442913364E+02 -0.95031218496E+02  0.10590425554E+03  0.41800000000E+01 0. -1.
        -11    1    3    3    0    0  0.37359322425E+02 -0.30342432251E+02 -0.16237536680E+03  0.16935802877E+03  0.00000000000E+00 0.  1.
         11    1    3    3    0    0  0.11982929719E+01 -0.56212478827E+02 -0.27999404141E+02  0.62811187811E+02  0.00000000000E+00 0. -1.
</event>
<event>
 7    1  0.4687179E-006  0.1539546E+03  0.7561462E-02  0.1195696E+00
         -2   -1    0    0    0  501 -0.00000000000E+00  0.00000000000E+00  0.62098189320E+03  0.62098189320E+03  0.00000000000E+00 0.  1.
          2   -1    0    0  501    0  0.00000000000E+00 -0.00000000000E+00 -0.58904153017E+02  0.58904153017E+02  0.00000000000E+00 0. -1.
         23    2    1    2    0    0  0.12526888155E+03  0.45432516840E+02  0.12080430826E+03  0.20225874887E+03  0.92512238816E+02 0.  0.
          5    1    1    2  502    0 -0.45726335762E+02 -0.57482731980E+02  0.85263253499E+02  0.11261641557E+03  0.41800000000E+01 0. -1.
         -5    1    1    2    0  502 -0.79542545785E+02  0.12050215140E+02  0.35601017842E+03  0.36501088177E+03  0.41800000000E+01 0. -1.
        -11    1    3    3    0    0  0.18248324470E+02  0.43022021976E+02  0.92270456008E+01  0.47634379301E+02  0.00000000000E+00 0.  1.
         11    1    3    3    0    0  0.10702055708E+03  0.24104948636E+01  0.11157726266E+03  0.15462436957E+03  0.00000000000E+00 0. -1.
</event>
<event>
 7    1  0.4687179E-006  0.2369756E+03  0.7561462E-02  0.1121824E+00
          2   -1    0    0  501    0  0.00000000000E+00  0.00000000000E+00  0.20706019559E+03  0.20706019559E+03  0.00000000000E+00 0. -1.
         -2   -1    0    0    0  501 -0.00000000000E+00 -0.00000000000E+00 -0.30911681663E+03  0.30911681663E+03  0.00000000000E+00 0.  1.
         23    2    1    2    0    0 -0.10231377335E+03  0.19991204142E+03 -0.90001815538E+01  0.24279064510E+03  0.91833335774E+02 0.  0.
          5    1    1    2  502    0 -0.70436538324E+01  0.11142256920E+01 -0.36763197031E+02  0.37681024590E+02  0.41800000000E+01 0.  1.
         -5    1    1    2    0  502  0.10935742719E+03 -0.20102626711E+03 -0.56293242446E+02  0.23570534253E+03  0.41800000000E+01 0.  1.
        -11    1    3    3    0    0 -0.85088217439E+02  0.83825926736E+02 -0.30973108949E+02  0.12339418227E+03  0.00000000000E+00 0.  1.
         11    1    3    3    0    0 -0.17225555915E+02  0.11608611468E+03  0.21972927395E+02  0.11939646283E+03  0.00000000000E+00 0. -1.
</event>
<event>
 7    1  0.4687179E-006  0.1146074E+03  0.7561462E-02  0.1252268E+00
          1   -1    0    0  501    0  0.00000000000E+00  0.00000000000E+00  0.89671709278E+02  0.89671709278E+02  0.00000000000E+00 0. -1.
         -1   -1    0    0    0  501 -0.00000000000E+00 -0.00000000000E+00 -0.25766807417E+03  0.25766807417E+03  0.00000000000E+00 0.  1.
         23    2    1    2    0    0 -0.66447173426E+02 -0.17538766708E+02  0.15229311661E+02  0.11508376642E+03  0.91046725177E+02 0.  0.
          5    1    1    2  502    0  0.86787567088E+02 -0.29004860424E+02 -0.12294314476E+03  0.15331618627E+03  0.41800000000E+01 0. -1.
         -5    1    1    2    0  502 -0.20340393661E+02  0.46543627132E+02 -0.60282531795E+02  0.78939830761E+02  0.41800000000E+01 0. -1.
        -11    1    3    3    0    0 -0.11780286209E+02  0.17950732876E+02  0.39968121741E+02  0.45370196269E+02  0.00000000000E+00 0. -1.
         11    1    3    3    0    0 -0.54666887217E+02 -0.35489499585E+02 -0.24738810081E+02  0.69713570150E+02  0.00000000000E+00 0.  1.
</event>
<event>
 7    1  0.4687179E-006  0.1923109E+03  0.7561462E-02  0.1156393E+00
         -1   -1    0    0    0  501 -0.00000000000E+00  0.00000000000E+00  0.63607076979E+03  0.63607076979E+03  0.00000000000E+00 0.  1.
          1   -1    0    0  501    0  0.00000000000E+00 -0.00000000000E+00 -0.61983237999E+02  0.61983237999E+02  0.00000000000E+00 0. -1.
         23    2    1    2    0    0 -0.16038493872E+03 -0.55471577359E+01  0.20093468422E+03  0.27303077899E+03  0.91743988506E+02 0.  0.
          5    1    1    2  502    0  0.63653415296E+02 -0.59162063935E+02  0.15685453221E+03  0.17936756609E+03  0.41800000000E+01 0. -1.
         -5    1    1    2    0  502  0.96731523429E+02  0.64709221671E+02  0.21629831536E+03  0.24565566271E+03  0.41800000000E+01 0. -1.
        -11    1    3    3    0    0 -0.36050998124E+02  0.35139028105E+02  0.33169070199E+02  0.60287751491E+02  0.00000000000E+00 0. -1.
         11    1    3    3    0    0 -0.12433394060E+03 -0.40686185841E+02  0.16776561402E+03  0.21274302750E+03  0.00000000000E+00 0.  1.
</event>
<event>
 7    1  0.4687179E-006  0.1390087E+03  0.7561462E-02  0.1214669E+00
         -1   -1    0    0    0  501 -0.00000000000E+00  0.00000000000E+00  0.76051424297E+02  0.76051424297E+02  0.00000000000E+00 0.  1.
          1   -1    0    0  501    0  0.00000000000E+00 -0.00000000000E+00 -0.33459736950E+03  0.33459736950E+03  0.00000000000E+00 0. -1.
         23    2    1    2    0    0 -0.11599374701E+03  0.92632299004E+00 -0.13147311695E+03  0.19792780705E+03  0.91841324593E+02 0.  0.
          5    1    1    2  502    0  0.61306903597E+02  0.47224221833E+02 -0.11510387700E+03  0.13876252540E+03  0.41800000000E+01 0. -1.
         -5    1    1    2    0  502  0.54686843418E+02 -0.48150544823E+02 -0.11968951255E+02  0.73958461341E+02  0.41800000000E+01 0. -1.
        -11    1    3    3    0    0 -0.65082786979E+02 -0.25829727931E+02 -0.12051427947E+03  0.13937946607E+03  0.00000000000E+00 0. -1.
         11    1    3    3    0    0 -0.50910960035E+02  0.26756050921E+02 -0.10958837478E+02  0.58548340979E+02  0.00000000000E+00 0.  1.
</event>
<event>
 7    1  0.4687179E-006  0.1137920E+03  0.7561462E-02  0.1253705E+00
          1   -1    0    0  501    0  0.00000000000E+00  0.00000000000E+00  0.69338900401E+03  0.69338900401E+03  0.00000000000E+00 0. -1.
         -1   -1    0    0    0  501 -0.00000000000E+00 -0.00000000000E+00 -0.27319874227E+02  0.27319874227E+02  0.00000000000E+00 0.  1.
         23    2    1    2    0    0  0.15089742543E+02 -0.80628139018E+02  0.35765547803E+03  0.37793470262E+03  0.90490890963E+02 0.  0.
          5    1    1    2  502    0 -0.64136700170E+02  0.54017425596E+02  0.12166085752E+03  0.14781825066E+03  0.41800000000E+01 0. -1.
         -5    1    1    2    0  502  0.49046957627E+02  0.26610713421E+02  0.18675279423E+03  0.19495592496E+03  0.41800000000E+01 0. -1.
        -11    1    3    3    0    0  0.24753567215E+02 -0.57225486675E+02  0.34312142124E+03  0.34874031188E+03  0.00000000000E+00 0. -1.
         11    1    3    3    0    0 -0.96638246718E+01 -0.23402652342E+02  0.14534056789E+02  0.29194390740E+02  0.00000000000E+00 0.  1.
</event>
<event>
 7    1  0.4687179E-006  0.1207815E+03  0.7561462E-02  0.1241813E+00
         -1   -1    0    0    0  501 -0.00000000000E+00  0.00000000000E+00  0.60615810079E+02  0.60615810079E+02  0.00000000000E+00 0.  1.
          1   -1    0    0  501    0  0.00000000000E+00 -0.00000000000E+00 -0.34028317408E+03  0.34028317408E+03  0.00000000000E+00 0. -1.
         23    2    1    2    0    0  0.37399096760E+02  0.65551580499E+02 -0.47890920618E+02  0.12692156124E+03  0.90110156390E+02 0.  0.
          5    1    1    2  502    0 -0.72196677509E+02 -0.80286426848E+02 -0.17342197441E+03  0.20433042893E+03  0.41800000000E+01 0. -1.
         -5    1    1    2    0  502  0.34797580749E+02  0.14734846349E+02 -0.58354468967E+02  0.69646993986E+02  0.41800000000E+01 0. -1.
        -11    1    3    3    0    0  0.15879588865E+02 -0.87525152599E+01 -0.46106236207E+02  0.49543444401E+02  0.00000000000E+00 0. -1.
         11    1    3    3    0    0  0.21519507895E+02  0.74304095758E+02 -0.17846844109E+01  0.77378116835E+02  0.00000000000E+00 0.  1.
</event>
<event>
 7    1  0.4815419E-006  0.2029703E+03  0.7561462E-02  0.1147257E+00
         -2   -1    0    0    0  501 -0.00000000000E+00  0.00000000000E+00  0.13675857290E+03  0.13675857290E+03  0.00000000000E+00 0.  1.
          2   -1    0    0  501    0  0.00000000000E+00 -0.00000000000E+00 -0.45822184222E+03  0.45822184222E+03  0.00000000000E+00 0. -1.
         23    2    1    2    0    0 -0.13471886358E+03 -0.11939773745E+03 -0.31686942123E+03  0.37572419323E+03  0.91419075439E+02 0.  0.
          5    1    1    2  502    0  0.11813745254E+03  0.14453489606E+03 -0.14497254474E+02  0.18728170402E+03  0.41800000000E+01 0. -1.
         -5    1    1    2    0  502  0.16581411045E+02 -0.25137158612E+02  0.99034063801E+01  0.31974517874E+02  0.41800000000E+01 0. -1.
        -11    1    3    3    0    0 -0.15749025053E+02 -0.46961211459E+02 -0.32983133282E+02  0.59508606545E+02  0.00000000000E+00 0.  1.
         11    1    3    3    0    0 -0.11896983853E+03 -0.72436525991E+02 -0.28388628795E+03  0.31621558669E+03  0.00000000000E+00 0. -1.
</event>
<event>
 7    1  0.4687179E-006  0.6494335E+02  0.7561462E-02  0.1378185E+00
         -3   -1    0    0    0  501 -0.00000000000E+00  0.00000000000E+00  0.34686392940E+02  0.34686392940E+02  0.00000000000E+00 0.  1.
          3   -1    0    0  501    0  0.00000000000E+00 -0.00000000000E+00 -0.32884695166E+03  0.32884695166E+03  0.00000000000E+00 0. -1.
         23    2    1    2    0    0 -0.76255609449E+01  0.13347010284E+02 -0.17685265999E+03  0.19951619967E+03  0.91068977822E+02 0.  0.
          5    1    1    2  502    0 -0.15126805435E+02 -0.44337005163E+01 -0.13344437092E+03  0.13443716180E+03  0.41800000000E+01 0. -1.
         -5    1    1    2    0  502  0.22752366380E+02 -0.89133097676E+01  0.16136472193E+02  0.29579983126E+02  0.41800000000E+01 0.  1.
        -11    1    3    3    0    0  0.28272430950E+01 -0.37131201386E+02 -0.48120673914E+02  0.60846681732E+02  0.00000000000E+00 0. -1.
         11    1    3    3    0    0 -0.10452804040E+02  0.50478211670E+02 -0.12873198608E+03  0.13866951794E+03  0.00000000000E+00 0.  1.
</event>
<event>
 7    1  0.4687179E-006  0.7070026E+02  0.7561462E-02  0.1357728E+00
          1   -1    0    0  501    0  0.00000000000E+00  0.00000000000E+00  0.46267857312E+02  0.46267857312E+02  0.00000000000E+00 0. -1.
         -1   -1    0    0    0  501 -0.00000000000E+00 -0.00000000000E+00 -0.44218819209E+03  0.44218819209E+03  0.00000000000E+00 0.  1.
         23    2    1    2    0    0 -0.65868673285E+02  0.73918737535E+01 -0.68617659899E+02  0.13185046425E+03  0.91010107976E+02 0.  0.
          5    1    1    2  502    0  0.48746803018E+02  0.54785261803E+01 -0.28256495640E+02  0.56764134798E+02  0.41800000000E+01 0.  1.
         -5    1    1    2    0  502  0.17121870267E+02 -0.12870399934E+02 -0.29904617924E+03  0.29984145036E+03  0.41800000000E+01 0.  1.
        -11    1    3    3    0    0 -0.36896067420E+02  0.15860065796E+02  0.15062858314E+02  0.42892320743E+02  0.00000000000E+00 0. -1.
         11    1    3    3    0    0 -0.28972605864E+02 -0.84681920421E+01 -0.83680518213E+02  0.88958143502E+02  0.00000000000E+00 0.  1.
</event>
<event>
 7    1  0.4687179E-006  0.3775541E+03  0.7561462E-02  0.1051841E+00
          2   -1    0    0  501    0  0.00000000000E+00  0.00000000000E+00  0.60085371795E+03  0.60085371795E+03  0.00000000000E+00 0.  1.
         -2   -1    0    0    0  501 -0.00000000000E+00 -0.00000000000E+00 -0.36792544376E+03  0.36792544376E+03  0.00000000000E+00 0. -1.
         23    2    1    2    0    0 -0.80818815444E+02 -0.36457522900E+03  0.38743914821E+03  0.54573443715E+03  0.90940660852E+02 0.  0.
          5    1    1    2  502    0  0.15547298606E+02  0.59305779968E+02  0.20942896145E+02  0.64922810556E+02  0.41800000000E+01 0. -1.
         -5    1    1    2    0  502  0.65271516838E+02  0.30526944903E+03 -0.17545377016E+03  0.35812191400E+03  0.41800000000E+01 0. -1.
        -11    1    3    3    0    0 -0.18486349195E+01 -0.18822605263E+03  0.15787907571E+03  0.24567919507E+03  0.00000000000E+00 0. -1.
         11    1    3    3    0    0 -0.78970180524E+02 -0.17634917637E+03  0.22956007250E+03  0.30005524208E+03  0.00000000000E+00 0.  1.
</event>
<event>
 7    1  0.4687179E-006  0.2043237E+03  0.7561462E-02  0.1146142E+00
          1   -1    0    0  501    0  0.00000000000E+00  0.00000000000E+00  0.11937846667E+04  0.11937846667E+04  0.00000000000E+00 0. -1.
         -1   -1    0    0    0  501 -0.00000000000E+00 -0.00000000000E+00 -0.42810898655E+02  0.42810898655E+02  0.00000000000E+00 0.  1.
         23    2    1    2    0    0 -0.77726549532E+01  0.19363439737E+03  0.65479991069E+03  0.68942976912E+03  0.94846135856E+02 0.  0.
          5    1    1    2  502    0  0.78470958192E+01 -0.19361649452E+03  0.50306194036E+03  0.53910825638E+03  0.41800000000E+01 0.  1.
         -5    1    1    2    0  502 -0.74440865990E-01 -0.17902852821E-01 -0.68880829778E+01  0.80575398890E+01  0.41800000000E+01 0.  1.
        -11    1    3    3    0    0 -0.42477445982E+02  0.66902042865E+02  0.32250217282E+03  0.33209617316E+03  0.00000000000E+00 0.  1.
         11    1    3    3    0    0  0.34704791029E+02  0.12673235450E+03  0.33229773787E+03  0.35733359595E+03  0.00000000000E+00 0. -1.
</event>
<event>
 7    1  0.4687179E-006  0.1368862E+03  0.7561462E-02  0.1217581E+00
         -2   -1    0    0    0  501 -0.00000000000E+00  0.00000000000E+00  0.19469752457E+02  0.19469752457E+02  0.00000000000E+00 0.  1.
          2   -1    0    0  501    0  0.00000000000E+00 -0.00000000000E+00 -0.10098298689E+04  0.10098298689E+04  0.00000000000E+00 0. -1.
         23    2    1    2    0    0  0.10912754252E+02  0.86342314958E+02 -0.52552760906E+03  0.54012595657E+03  0.89345942942E+02 0.  0.
          5    1    1    2  502    0  0.56191609477E+02 -0.36463239139E+02 -0.17271784416E+03  0.18529973253E+03  0.41800000000E+01 0. -1.
         -5    1    1    2    0  502 -0.67104363729E+02 -0.49879075818E+02 -0.29211466324E+03  0.30387393227E+03  0.41800000000E+01 0. -1.
        -11    1    3    3    0    0 -0.75387355245E+01  0.99811514260E+02 -0.45893562552E+03  0.46972447167E+03  0.00000000000E+00 0.  1.
         11    1    3    3    0    0  0.18451489777E+02 -0.13469199302E+02 -0.66591983537E+02  0.70401484900E+02  0.00000000000E+00 0. -1.
</event>
<event>
 7    1  0.4687179E-006  0.1081421E+03  0.7561462E-02  0.1264050E+00
          2   -1    0    0  501    0  0.00000000000E+00  0.00000000000E+00  0.11637606683E+03  0.11637606683E+03  0.00000000000E+00 0.  1.
         -2   -1    0    0    0  501 -0.00000000000E+00 -0.00000000000E+00 -0.13074419085E+03  0.13074419085E+03  0.00000000000E+00 0. -1.
         23    2    1    2    0    0 -0.56144245340E+02  0.22666157708E+01  0.21554258983E+02  0.10591437142E+03  0.87154771303E+02 0.  0.
          5    1    1    2  502    0  0.90396043231E+02  0.46588242809E+01  0.42281041394E+00  0.90613467234E+02  0.41800000000E+01 0. -1.
         -5    1    1    2    0  502 -0.34251797890E+02 -0.69254400517E+01 -0.36345193411E+02  0.50592419024E+02  0.41800000000E+01 0. -1.
        -11    1    3    3    0    0 -0.57919854861E+02 -0.25049073337E+02 -0.10272780498E+02  0.63935089593E+02  0.00000000000E+00 0. -1.
         11    1    3    3    0    0  0.17756095201E+01  0.27315689107E+02  0.31827039480E+02  0.41979281826E+02  0.00000000000E+00 0.  1.
</event>
<event>
 7    1  0.4687179E-006  0.1050740E+03  0.7561462E-02  0.1269974E+00
          1   -1    0    0  501    0  0.00000000000E+00  0.00000000000E+00  0.16957158523E+02  0.16957158523E+02  0.00000000000E+00 0. -1.
         -1   -1    0    0    0  501 -0.00000000000E+00 -0.00000000000E+00 -0.68767342441E+03  0.68767342441E+03  0.00000000000E+00 0.  1.
         23    2    1    2    0    0 -0.15583808648E+02 -0.13612764484E+02 -0.25916112180E+03  0.27632099458E+03  0.93598304169E+02 0.  0.
          5    1    1    2  502    0  0.55934743231E+02 -0.24098277053E+02 -0.17452760516E+03  0.18489667336E+03  0.41800000000E+01 0. -1.
         -5    1    1    2    0  502 -0.40350934583E+02  0.37711041537E+02 -0.23702753893E+03  0.24341291499E+03  0.41800000000E+01 0.  1.
        -11    1    3    3    0    0  0.28787986623E+02 -0.34278893692E+02 -0.95006525438E+02  0.10502395252E+03  0.00000000000E+00 0. -1.
         11    1    3    3    0    0 -0.44371795271E+02  0.20666129208E+02 -0.16415459636E+03  0.17129704206E+03  0.00000000000E+00 0.  1.
</event>
<event>
 7    1  0.4687179E-006  0.1820319E+03  0.7561462E-02  0.1165851E+00
         -2   -1    0    0    0  501 -0.00000000000E+00  0.00000000000E+00  0.53920309868E+02  0.53920309868E+02  0.00000000000E+00 0.  1.
          2   -1    0    0  501    0  0.00000000000E+00 -0.00000000000E+00 -0.69918051588E+03  0.69918051588E+03  0.00000000000E+00 0. -1.
         23    2    1    2    0    0 -0.54007092382E+02  0.11979502159E+03 -0.35911686288E+03  0.39342410736E+03  0.92466176625E+02 0.  0.
          5    1    1    2  502    0  0.29117027632E+01 -0.15341570388E+03 -0.17528957438E+03  0.23299949248E+03  0.41800000000E+01 0. -1.
         -5    1    1    2    0  502  0.51095389619E+02  0.33620682293E+02 -0.11085376875E+03  0.12667722591E+03  0.41800000000E+01 0.  1.
        -11    1    3    3    0    0  0.10425942122E+02  0.61464142889E+02 -0.82065887764E+02  0.10305993918E+03  0.00000000000E+00 0. -1.
         11    1    3    3    0    0 -0.64433034504E+02  0.58330878698E+02 -0.27705097512E+03  0.29036416818E+03  0.00000000000E+00 0.  1.
</event>
<event>
 7    1  0.4687179E-006  0.1198371E+03  0.7561462E-02  0.1243366E+00
         -1   -1    0    0    0  501 -0.00000000000E+00  0.00000000000E+00  0.55876779064E+02  0.55876779064E+02  0.00000000000E+00 0.  1.
          1   -1    0    0  501    0  0.00000000000E+00 -0.00000000000E+00 -0.27707299611E+03  0.27707299611E+03  0.00000000000E+00 0. -1.
         23    2    1    2    0    0 -0.95223416340E+01 -0.70292961520E+02 -0.10091541196E+03  0.15248731889E+03  0.89647568972E+02 0.  0.
          5    1    1    2  502    0 -0.48396051859E+02  0.43812882715E+02 -0.35759156104E+02  0.74551567204E+02  0.41800000000E+01 0. -1.
         -5    1    1    2    0  502  0.57918393493E+02  0.26480078804E+02 -0.84521648982E+02  0.10591088908E+03  0.41800000000E+01 0.  1.
        -11    1    3    3    0    0  0.43272356520E+01  0.19300240814E+02 -0.47813479260E+01  0.20349092163E+02  0.00000000000E+00 0.  1.
         11    1    3    3    0    0 -0.13849577286E+02 -0.89593202334E+02 -0.96134064031E+02  0.13213822673E+03  0.00000000000E+00 0. -1.
</event>
<event>
 7    1  0.4687179E-006  0.1470280E+03  0.7561462E-02  0.1204173E+00
         -2   -1    0    0    0  501 -0.00000000000E+00  0.00000000000E+00  0.12154654448E+03  0.12154654448E+03  0.00000000000E+00 0.  1.
          2   -1    0    0  501    0  0.00000000000E+00 -0.00000000000E+00 -0.25144312109E+03  0.25144312109E+03  0.00000000000E+00 0. -1.
         23    2    1    2    0    0  0.70766357614E+02 -0.11717831696E+03 -0.27954925293E+02  0.16138908754E+03  0.80785669477E+02 0.  0.
          5    1    1    2  502    0 -0.45530901060E+02  0.13337519853E+02 -0.92746737562E+02  0.10426112466E+03  0.41800000000E+01 0. -1.
         -5    1    1    2    0  502 -0.25235456554E+02  0.10384079711E+03 -0.91949137469E+01  0.10733945337E+03  0.41800000000E+01 0. -1.
        -11    1    3    3    0    0  0.63120459904E+02 -0.81983400795E+02  0.15855367707E+02  0.10467503594E+03  0.00000000000E+00 0.  1.
         11    1    3    3    0    0  0.76458977099E+01 -0.35194916166E+02 -0.43810293001E+02  0.56714051597E+02  0.00000000000E+00 0. -1.
</event>
<event>
 7    1  0.4687179E-006  0.1263668E+03  0.7561462E-02  0.1232948E+00
          1   -1    0    0  501    0  0.00000000000E+00  0.00000000000E+00  0.26494396294E+03  0.26494396294E+03  0.00000000000E+00 0. -1.
         -1   -1    0    0    0  501 -0.00000000000E+00 -0.00000000000E+00 -0.86369945844E+02  0.86369945844E+02  0.00000000000E+00 0.  1.
         23    2    1    2    0    0  0.71944218752E+02  0.66357444995E+02  0.12703542953E+03  0.18434110619E+03  0.90908536226E+02 0.  0.
          5    1    1    2  502    0  0.14288702418E+02 -0.62182590331E+02  0.48903456009E+02  0.80497589819E+02  0.41800000000E+01 0. -1.
         -5    1    1    2    0  502 -0.86232921170E+02 -0.41748546645E+01  0.26351315570E+01  0.86475212769E+02  0.41800000000E+01 0. -1.
        -11    1    3    3    0    0  0.21240424950E+01  0.16325471982E+02  0.88811484307E+02  0.90324483596E+02  0.00000000000E+00 0. -1.
         11    1    3    3    0    0  0.69820176257E+02  0.50031973014E+02  0.38223945219E+02  0.94016622596E+02  0.00000000000E+00 0.  1.
</event>
<event>
 7    1  0.4687179E-006  0.1013712E+03  0.7561462E-02  0.1277439E+00
          1   -1    0    0  501    0  0.00000000000E+00  0.00000000000E+00  0.11980425530E+04  0.11980425530E+04  0.00000000000E+00 0. -1.
         -1   -1    0    0    0  501 -0.00000000000E+00 -0.00000000000E+00 -0.11612646495E+02  0.11612646495E+02  0.00000000000E+00 0.  1.
         23    2    1    2    0    0  0.29027957675E+02  0.24808648693E+02  0.51321345140E+03  0.52385142508E+03  0.97847725991E+02 0.  0.
          5    1    1    2  502    0  0.22217870767E+02 -0.38811196502E+02  0.54644267998E+03  0.54828552567E+03  0.41800000000E+01 0. -1.
         -5    1    1    2    0  502 -0.51245828443E+02  0.14002547809E+02  0.12677377508E+03  0.13751824870E+03  0.41800000000E+01 0. -1.
        -11    1    3    3    0    0  0.50101813603E+02 -0.20837437016E+02  0.24088277480E+03  0.24691881602E+03  0.00000000000E+00 0. -1.
         11    1    3    3    0    0 -0.21073855928E+02  0.45646085709E+02  0.27233067659E+03  0.27693260906E+03  0.00000000000E+00 0.  1.
</event>
<event>
 7    1  0.4687179E-006  0.8489104E+02  0.7561462E-02  0.1315718E+00
          2   -1    0    0  501    0  0.00000000000E+00  0.00000000000E+00  0.57246750635E+02  0.57246750635E+02  0.00000000000E+00 0. -1.
         -2   -1    0    0    0  501 -0.00000000000E+00 -0.00000000000E+00 -0.32592595632E+03  0.32592595632E+03  0.00000000000E+00 0.  1.
         23    2    1    2    0    0 -0.47477304231E+02 -0.61429733488E+01 -0.25023374470E+02  0.10513061260E+03  0.90191163076E+02 0.  0.
          5    1    1    2  502    0  0.31383891699E+01  0.42104786998E+02 -0.20409793179E+03  0.20846126915E+03  0.41800000000E+01 0. -1.
         -5    1    1    2    0  502  0.44338915061E+02 -0.35961813649E+02 -0.39557899429E+02  0.69580825210E+02  0.41800000000E+01 0. -1.
        -11    1    3    3    0    0 -0.49422849556E+01  0.19720873718E+02 -0.46624858681E+02  0.50864688024E+02  0.00000000000E+00 0.  1.
         11    1    3    3    0    0 -0.42535019276E+02 -0.25863847067E+02  0.21601484211E+02  0.54265924575E+02  0.00000000000E+00 0. -1.
</event>
<event>
 7    1  0.4687179E-006  0.1061729E+03  0.7561462E-02  0.1267826E+00
          2   -1    0    0  501    0  0.00000000000E+00  0.00000000000E+00  0.26525285173E+03  0.26525285173E+03  0.00000000000E+00 0. -1.
         -2   -1    0    0    0  501 -0.00000000000E+00 -0.00000000000E+00 -0.60522063141E+02  0.60522063141E+02  0.00000000000E+00 0.  1.
         23    2    1    2    0    0  0.64050352691E+02  0.45340760700E+01  0.10324453156E+03  0.15236754694E+03  0.91833711339E+02 0.  0.
          5    1    1    2  502    0 -0.90064777118E+02  0.92094954251E+01  0.29147631433E+02  0.95202603438E+02  0.41800000000E+01 0.  1.
         -5    1    1    2    0  502  0.26014424426E+02 -0.13743571495E+02  0.72338625598E+02  0.78204764491E+02  0.41800000000E+01 0.  1.
        -11    1    3    3    0    0  0.42632362219E+02 -0.29458768434E+02  0.12766027310E+02  0.53369549364E+02  0.00000000000E+00 0.  1.
         11    1    3    3    0    0  0.21417990473E+02  0.33992844504E+02  0.90478504247E+02  0.98997997576E+02  0.00000000000E+00 0. -1.
</event>
<event>
 7    1  0.4687179E-006  0.1276702E+03  0.7561462E-02  0.1230954E+00
         -2   -1    0    0    0  501 -0.00000000000E+00  0.00000000000E+00  0.34809171016E+03  0.34809171016E+03  0.00000000000E+00 0. -1.
          2   -1    0    0  501    0  0.00000000000E+00 -0.00000000000E+00 -0.49102697107E+02  0.49102697107E+02  0.00000000000E+00 0.  1.
         23    2    1    2    0    0  0.63604597508E+02  0.30910808337E+02  0.14403905075E+03  0.18587185097E+03  0.93808709323E+02 0.  0.
          5    1    1    2  502    0 -0.41291568049E+02  0.43466189572E+02  0.38768473617E+02  0.71517621426E+02  0.41800000000E+01 0. -1.
         -5    1    1    2    0  502 -0.22313029459E+02 -0.74376997909E+02  0.11618148868E+03  0.13980493487E+03  0.41800000000E+01 0. -1.
        -11    1    3    3    0    0  0.33131075761E+02 -0.32945334588E+02  0.57301978389E+02  0.73936323816E+02  0.00000000000E+00 0.  1.
         11    1    3    3    0    0  0.30473521747E+02  0.63856142924E+02  0.86737072360E+02  0.11193552715E+03  0.00000000000E+00 0. -1.
</event>
<event>
 7    1  0.4687179E-006  0.1686549E+03  0.7561462E-02  0.1179258E+00
          1   -1    0    0  501    0  0.00000000000E+00  0.00000000000E+00  0.22855940852E+03  0.22855940852E+03  0.00000000000E+00 0. -1.
         -1   -1    0    0    0  501 -0.00000000000E+00 -0.00000000000E+00 -0.17617877481E+03  0.17617877481E+03  0.00000000000E+00 0.  1.
         23    2    1    2    0    0  0.22803745717E+02  0.14126365312E+03  0.11454786576E+03  0.20476158180E+03  0.91272456506E+02 0.  0.
          5    1    1    2  502    0  0.38961555334E+02 -0.10078846424E+03 -0.64615707091E+02  0.12597213708E+03  0.41800000000E+01 0. -1.
         -5    1    1    2    0  502 -0.61765301051E+02 -0.40475188886E+02  0.24484750454E+01  0.74004464455E+02  0.41800000000E+01 0. -1.
        -11    1    3    3    0    0  0.15505377103E+02  0.18634537347E+01 -0.92773708537E+01  0.18164767791E+02  0.00000000000E+00 0.  1.
         11    1    3    3    0    0  0.72983686133E+01  0.13940019939E+03  0.12382523662E+03  0.18659681401E+03  0.00000000000E+00 0. -1.
</event>
<event>
 7    1  0.4687179E-006  0.9496819E+02  0.7561462E-02  0.1291248E+00
         -2   -1    0    0    0  501 -0.00000000000E+00  0.00000000000E+00  0.45947099259E+02  0.45947099259E+02  0.00000000000E+00 0.  1.
          2   -1    0    0  501    0  0.00000000000E+00 -0.00000000000E+00 -0.95553602353E+03  0.95553602353E+03  0.00000000000E+00 0. -1.
         23    2    1    2    0    0  0.62475401285E+02  0.39867221976E+00 -0.36341072273E+03  0.37942445116E+03  0.89399250781E+02 0.  0.
          5    1    1    2  502    0 -0.29216180265E+02  0.31714353243E+02 -0.56878027528E+03  0.57042778626E+03  0.41800000000E+01 0. -1.
         -5    1    1    2    0  502 -0.33259221020E+02 -0.32113025462E+02  0.22602073733E+02  0.51630885371E+02  0.41800000000E+01 0.  1.
        -11    1    3    3    0    0  0.62551391346E+02  0.30847339427E+02 -0.31176657412E+03  0.31947242706E+03  0.00000000000E+00 0. -1.
         11    1    3    3    0    0 -0.75990060636E-01 -0.30448667207E+02 -0.51644148607E+02  0.59952024107E+02  0.00000000000E+00 0.  1.
</event>
<event>
 7    1  0.4687179E-006  0.7832160E+02  0.7561462E-02  0.1333883E+00
          2   -1    0    0  501    0  0.00000000000E+00  0.00000000000E+00  0.47352004231E+03  0.47352004231E+03  0.00000000000E+00 0. -1.
         -2   -1    0    0    0  501 -0.00000000000E+00 -0.00000000000E+00 -0.31596661707E+02  0.31596661707E+02  0.00000000000E+00 0.  1.
         23    2    1    2    0    0 -0.60626968827E+01 -0.36972020641E+02  0.27664319338E+03  0.29447678338E+03  0.93709299982E+02 0.  0.
          5    1    1    2  502    0  0.29214766388E+02 -0.63333956515E+01  0.15795739089E+03  0.16081549742E+03  0.41800000000E+01 0.  1.
         -5    1    1    2    0  502 -0.23152069505E+02  0.43305416292E+02  0.73227963393E+01  0.49824423216E+02  0.41800000000E+01 0.  1.
        -11    1    3    3    0    0  0.30622203398E+02 -0.21196291327E+02  0.40658635928E+02  0.55137344717E+02  0.00000000000E+00 0.  1.
         11    1    3    3    0    0 -0.36684900281E+02 -0.15775729313E+02  0.23598455745E+03  0.23933943866E+03  0.00000000000E+00 0. -1.
</event>
<event>
 7    1  0.4687179E-006  0.1109468E+03  0.7561462E-02  0.1258827E+00
         -2   -1    0    0    0  501 -0.00000000000E+00  0.00000000000E+00  0.85063685646E+02  0.85063685646E+02  0.00000000000E+00 0. -1.
          2   -1    0    0  501    0  0.00000000000E+00 -0.00000000000E+00 -0.17645949921E+03  0.17645949921E+03  0.00000000000E+00 0.  1.
         23    2    1    2    0    0 -0.47200301891E+02  0.10948373541E+02 -0.71995165670E+02  0.12598220737E+03  0.91326213716E+02 0.  0.
          5    1    1    2  502    0  0.59666405483E+02  0.38847861521E+02 -0.37962720313E+02  0.80795277223E+02  0.41800000000E+01 0.  1.
         -5    1    1    2    0  502 -0.12466103592E+02 -0.49796235062E+02  0.18562072417E+02  0.54745700265E+02  0.41800000000E+01 0.  1.
        -11    1    3    3    0    0 -0.49449921901E+02 -0.30145523279E+02 -0.59358205960E+02  0.82930356111E+02  0.00000000000E+00 0.  1.
         11    1    3    3    0    0  0.22496200095E+01  0.41093896820E+02 -0.12636959709E+02  0.43051851258E+02  0.00000000000E+00 0. -1.
</event>
<event>
 7    1  0.4687179E-006  0.1886579E+03  0.7561462E-02  0.1159677E+00
         -1   -1    0    0    0  501 -0.00000000000E+00  0.00000000000E+00  0.64613624690E+03  0.64613624690E+03  0.00000000000E+00 0.  1.
          1   -1    0    0  501    0  0.00000000000E+00 -0.00000000000E+00 -0.71227642390E+02  0.71227642390E+02  0.00000000000E+00 0. -1.
         23    2    1    2    0    0  0.18003549262E+03  0.40202261232E+02  0.28790867564E+03  0.35398375463E+03  0.91564690929E+02 0.  0.
          5    1    1    2  502    0 -0.10184719042E+03 -0.49856662001E+02  0.25336879048E+03  0.27761799893E+03  0.41800000000E+01 0.  1.
         -5    1    1    2    0  502 -0.78188302195E+02  0.96544007691E+01  0.33631138390E+02  0.85762135723E+02  0.41800000000E+01 0.  1.
        -11    1    3    3    0    0  0.13411961585E+03  0.35852129583E+02  0.13263068721E+03  0.19200090037E+03  0.00000000000E+00 0. -1.
         11    1    3    3    0    0  0.45915876763E+02  0.43501316494E+01  0.15527798844E+03  0.16198285427E+03  0.00000000000E+00 0.  1.
</event>
<event>
 7    1  0.4687179E-006  0.1602934E+03  0.7561462E-02  0.1188366E+00
          2   -1    0    0  501    0  0.00000000000E+00  0.00000000000E+00  0.80736630395E+03  0.80736630395E+03  0.00000000000E+00 0. -1.
         -2   -1    0    0    0  501 -0.00000000000E+00 -0.00000000000E+00 -0.34577897408E+02  0.34577897408E+02  0.00000000000E+00 0.  1.
         23    2    1    2    0    0  0.38887330459E+02 -0.12170063515E+03  0.37146051205E+03  0.40258619925E+03  0.88144578677E+02 0.  0.
          5    1    1    2  502    0 -0.12948776528E+02  0.14303607183E+03  0.30235309927E+03  0.33475641546E+03  0.41800000000E+01 0. -1.
         -5    1    1    2    0  502 -0.25938553931E+02 -0.21335436672E+02  0.98974795230E+02  0.10460158665E+03  0.41800000000E+01 0. -1.
        -11    1    3    3    0    0 -0.18156005444E+02 -0.29759843392E+02  0.17367911883E+03  0.17714323338E+03  0.00000000000E+00 0. -1.
         11    1    3    3    0    0  0.57043335903E+02 -0.91940791762E+02  0.19778139321E+03  0.22544296587E+03  0.00000000000E+00 0.  1.
</event>
<event>
 7    1  0.4687179E-006  0.1480306E+03  0.7561462E-02  0.1202914E+00
         -1   -1    0    0    0  501 -0.00000000000E+00  0.00000000000E+00  0.13890339787E+03  0.13890339787E+03  0.00000000000E+00 0.  1.
          1   -1    0    0  501    0  0.00000000000E+00 -0.00000000000E+00 -0.55271342648E+03  0.55271342648E+03  0.00000000000E+00 0. -1.
         23    2    1    2    0    0 -0.15110157808E+02 -0.11322413522E+03 -0.49124694222E+03  0.51229682610E+03  0.89869116649E+02 0.  0.
          5    1    1    2  502    0  0.43876625860E+02 -0.14323278915E+00  0.28363588008E+02  0.52413207660E+02  0.41800000000E+01 0. -1.
         -5    1    1    2    0  502 -0.28766468052E+02  0.11336736801E+03  0.49073325601E+02  0.12690679059E+03  0.41800000000E+01 0.  1.
        -11    1    3    3    0    0  0.28286704141E+02 -0.59556849738E+02 -0.33587677783E+03  0.34228696421E+03  0.00000000000E+00 0. -1.
         11    1    3    3    0    0 -0.43396861949E+02 -0.53667285479E+02 -0.15537016439E+03  0.17000986189E+03  0.00000000000E+00 0.  1.
</event>
<event>
 7    1  0.4687179E-006  0.1066964E+03  0.7561462E-02  0.1266813E+00
         -2   -1    0    0    0  501 -0.00000000000E+00  0.00000000000E+00  0.17282753555E+02  0.17282753555E+02  0.00000000000E+00 0. -1.
          2   -1    0    0  501    0  0.00000000000E+00 -0.00000000000E+00 -0.79186738797E+03  0.79186738797E+03  0.00000000000E+00 0.  1.
         23    2    1    2    0    0  0.34361148873E+00  0.40093033940E+02 -0.39064058637E+03  0.40335717128E+03  0.92137779787E+02 0.  0.
          5    1    1    2  502    0 -0.43021002723E+02  0.13387084458E+02 -0.62735578897E+02  0.77351444493E+02  0.41800000000E+01 0.  1.
         -5    1    1    2    0  502  0.42677391234E+02 -0.53480118398E+02 -0.32120846915E+03  0.32844152575E+03  0.41800000000E+01 0.  1.
        -11    1    3    3    0    0 -0.20100471639E+02 -0.24588675534E+02 -0.10083333946E+03  0.10571657520E+03  0.00000000000E+00 0.  1.
         11    1    3    3    0    0  0.20444083128E+02  0.64681709474E+02 -0.28980724691E+03  0.29764059609E+03  0.00000000000E+00 0. -1.
</event>
<event>
 7    1  0.4687179E-006  0.7305933E+02  0.7561462E-02  0.1349988E+00
          2   -1    0    0  501    0  0.00000000000E+00  0.00000000000E+00  0.82754403671E+02  0.82754403671E+02  0.00000000000E+00 0. -1.
         -2   -1    0    0    0  501 -0.00000000000E+00 -0.00000000000E+00 -0.16428631083E+03  0.16428631083E+03  0.00000000000E+00 0.  1.
         23    2    1    2    0    0  0.16554916719E+02  0.22610504302E+02  0.23147179106E+01  0.94919231380E+02  0.90658713836E+02 0.  0.
          5    1    1    2  502    0 -0.34287062873E+02  0.14953486296E+02  0.18241836567E+02  0.41826384427E+02  0.41800000000E+01 0. -1.
         -5    1    1    2    0  502  0.17732146155E+02 -0.37563990598E+02 -0.10208846164E+03  0.11029509869E+03  0.41800000000E+01 0.  1.
        -11    1    3    3    0    0  0.41642483518E+01 -0.20992607072E+02 -0.31699080867E+02  0.38247382183E+02  0.00000000000E+00 0. -1.
         11    1    3    3    0    0  0.12390668367E+02  0.43603111374E+02  0.34013798778E+02  0.56671849197E+02  0.00000000000E+00 0.  1.
</event>
<event>
 7    1  0.4687179E-006  0.2714839E+03  0.7561462E-02  0.1100433E+00
          1   -1    0    0  501    0  0.00000000000E+00  0.00000000000E+00  0.76611500487E+03  0.76611500487E+03  0.00000000000E+00 0. -1.
         -1   -1    0    0    0  501 -0.00000000000E+00 -0.00000000000E+00 -0.15271275240E+03  0.15271275240E+03  0.00000000000E+00 0.  1.
         23    2    1    2    0    0  0.18451265791E+03  0.18578070240E+03  0.55806789605E+03  0.62341304918E+03  0.92976679756E+02 0.  0.
          5    1    1    2  502    0 -0.11636412972E+02  0.62239964507E+00  0.38672931701E+02  0.40606176064E+02  0.41800000000E+01 0.  1.
         -5    1    1    2    0  502 -0.17287624494E+03 -0.18640310205E+03  0.16661424720E+02  0.25480853202E+03  0.41800000000E+01 0.  1.
        -11    1    3    3    0    0  0.41613388624E+02  0.10321316249E+03  0.25741899848E+03  0.28044459667E+03  0.00000000000E+00 0.  1.
         11    1    3    3    0    0  0.14289926929E+03  0.82567539918E+02  0.30064889756E+03  0.34296845251E+03  0.00000000000E+00 0. -1.
</event>
<event>
 7    1  0.4687179E-006  0.2535966E+03  0.7561462E-02  0.1111053E+00
         -2   -1    0    0    0  501 -0.00000000000E+00  0.00000000000E+00  0.37510236495E+03  0.37510236495E+03  0.00000000000E+00 0.  1.
          2   -1    0    0  501    0  0.00000000000E+00 -0.00000000000E+00 -0.19554912367E+03  0.19554912367E+03  0.00000000000E+00 0. -1.
         23    2    1    2    0    0 -0.51895843898E+02 -0.23444585283E+03  0.23915588408E+02  0.25835801054E+03  0.92297723238E+02 0.  0.
          5    1    1    2  502    0  0.86095483665E+02  0.14293184573E+03  0.65503678255E+02  0.17930462654E+03  0.41800000000E+01 0. -1.
         -5    1    1    2    0  502 -0.34199639768E+02  0.91514007099E+02  0.90133974612E+02  0.13298885154E+03  0.41800000000E+01 0. -1.
        -11    1    3    3    0    0 -0.14704041726E+02 -0.14333800161E+03  0.56390032588E+02  0.15473146843E+03  0.00000000000E+00 0.  1.
         11    1    3    3    0    0 -0.37191802172E+02 -0.91107851226E+02 -0.32474444179E+02  0.10362654210E+03  0.00000000000E+00 0. -1.
</event>
<event>
 7    1  0.4687179E-006  0.2041144E+03  0.7561462E-02  0.1146313E+00
          1   -1    0    0  501    0  0.00000000000E+00  0.00000000000E+00  0.11328664361E+03  0.11328664361E+03  0.00000000000E+00 0. -1.
         -1   -1    0    0    0  501 -0.00000000000E+00 -0.00000000000E+00 -0.46103822324E+03  0.46103822324E+03  0.00000000000E+00 0.  1.
         23    2    1    2    0    0  0.15014525762E+03  0.10514062276E+03 -0.42231272867E+02  0.19671516025E+03  0.57577989931E+02 0.  0.
          5    1    1    2  502    0 -0.10470561540E+03 -0.34330019936E+01 -0.10620089487E+03  0.14923522999E+03  0.41800000000E+01 0. -1.
         -5    1    1    2    0  502 -0.45439642220E+02 -0.10170762077E+03 -0.19931941189E+03  0.22837447661E+03  0.41800000000E+01 0. -1.
        -11    1    3    3    0    0  0.67457406045E+02  0.81725182871E+02 -0.27992994341E+02  0.10960435611E+03  0.00000000000E+00 0.  1.
         11    1    3    3    0    0  0.82687851574E+02  0.23415439892E+02 -0.14238278525E+02  0.87110804144E+02  0.00000000000E+00 0. -1.
</event>
<event>
 7    1  0.4687179E-006  0.1480696E+03  0.7561462E-02  0.1202865E+00
         -2   -1    0    0    0  501 -0.00000000000E+00  0.00000000000E+00  0.16058103198E+04  0.16058103198E+04  0.00000000000E+00 0.  1.
          2   -1    0    0  501    0  0.00000000000E+00 -0.00000000000E+00 -0.21107664717E+02  0.21107664717E+02  0.00000000000E+00 0. -1.
         23    2    1    2    0    0 -0.76137490740E+02 -0.11671129908E+03  0.51883880649E+03  0.54473010770E+03  0.90104041454E+02 0.  0.
          5    1    1    2  502    0  0.65516094787E+02  0.41294494478E+02  0.22740500120E+03  0.24026672870E+03  0.41800000000E+01 0.  1.
         -5    1    1    2    0  502  0.10621395953E+02  0.75416804605E+02  0.83845884736E+03  0.84192114808E+03  0.41800000000E+01 0.  1.
        -11    1    3    3    0    0 -0.49244666233E+02 -0.49086679873E+02  0.39514183908E+03  0.40121267712E+03  0.00000000000E+00 0.  1.
         11    1    3    3    0    0 -0.26892824507E+02 -0.67624619209E+02  0.12369696741E+03  0.14351743058E+03  0.00000000000E+00 0. -1.
</event>
<event>
 7    1  0.4687179E-006  0.1302524E+03  0.7561462E-02  0.1227082E+00
         -2   -1    0    0    0  501 -0.00000000000E+00  0.00000000000E+00  0.41403141374E+03  0.41403141374E+03  0.00000000000E+00 0. -1.
          2   -1    0    0  501    0  0.00000000000E+00 -0.00000000000E+00 -0.49897809589E+02  0.49897809589E+02  0.00000000000E+00 0.  1.
         23    2    1    2    0    0  0.91702181455E+02 -0.98615749880E+01  0.13641885003E+03  0.18823400557E+03  0.91188801201E+02 0.  0.
          5    1    1    2  502    0 -0.52100003859E+02  0.56644227560E+02  0.18627127826E+03  0.20158730224E+03  0.41800000000E+01 0.  1.
         -5    1    1    2    0  502 -0.39602177596E+02 -0.46782652572E+02  0.41443475868E+02  0.74107915529E+02  0.41800000000E+01 0.  1.
        -11    1    3    3    0    0  0.30715871970E+02 -0.42800086692E+02  0.91675202310E+02  0.10573388733E+03  0.00000000000E+00 0. -1.
         11    1    3    3    0    0  0.60986309485E+02  0.32938511704E+02  0.44743647715E+02  0.82500118235E+02  0.00000000000E+00 0.  1.
</event>
<event>
 7    1  0.4687179E-006  0.1890110E+03  0.7561462E-02  0.1159356E+00
         -1   -1    0    0    0  501 -0.00000000000E+00  0.00000000000E+00  0.11743114898E+03  0.11743114898E+03  0.00000000000E+00 0.  1.
          1   -1    0    0  501    0  0.00000000000E+00 -0.00000000000E+00 -0.44754806554E+03  0.44754806554E+03  0.00000000000E+00 0. -1.
         23    2    1    2    0    0 -0.21127380584E+02 -0.17075327361E+03 -0.28884722456E+03  0.34828808968E+03  0.90933094174E+02 0.  0.
          5    1    1    2  502    0  0.29242273577E+02 -0.23468472451E+01 -0.31243203231E+02  0.43060752479E+02  0.41800000000E+01 0.  1.
         -5    1    1    2    0  502 -0.81148929935E+01  0.17310012086E+03 -0.10026488759E+02  0.17363037236E+03  0.41800000000E+01 0.  1.
        -11    1    3    3    0    0 -0.28330537720E+02 -0.10017820837E+03 -0.24153736734E+03  0.26301823629E+03  0.00000000000E+00 0. -1.
         11    1    3    3    0    0  0.72031571368E+01 -0.70575065244E+02 -0.47309857223E+02  0.85269853392E+02  0.00000000000E+00 0.  1.
</event>
<event>
 7    1  0.4687179E-006  0.1670356E+03  0.7561462E-02  0.1180975E+00
          2   -1    0    0  501    0  0.00000000000E+00  0.00000000000E+00  0.75063901414E+03  0.75063901414E+03  0.00000000000E+00 0. -1.
         -2   -1    0    0    0  501 -0.00000000000E+00 -0.00000000000E+00 -0.61877639642E+02  0.61877639642E+02  0.00000000000E+00 0.  1.
         23    2    1    2    0    0 -0.25748513246E+01 -0.16605390695E+03  0.48785577374E+03  0.52339921014E+03  0.91449151627E+02 0.  0.
          5    1    1    2  502    0 -0.71802028792E+01  0.96241423771E+02  0.25317371191E+02  0.99861947942E+02  0.41800000000E+01 0.  1.
         -5    1    1    2    0  502  0.97550542038E+01  0.69812483175E+02  0.17558822957E+03  0.18925549570E+03  0.41800000000E+01 0.  1.
        -11    1    3    3    0    0  0.62561593579E+01 -0.10274918702E+03  0.16652592561E+03  0.19577389730E+03  0.00000000000E+00 0.  1.
         11    1    3    3    0    0 -0.88310106825E+01 -0.63304719921E+02  0.32132984813E+03  0.32762531284E+03  0.00000000000E+00 0. -1.
</event>
<event>
 7    1  0.4687179E-006  0.1022849E+03  0.7561462E-02  0.1275563E+00
         -1   -1    0    0    0  501 -0.00000000000E+00  0.00000000000E+00  0.10323678536E+04  0.10323678536E+04  0.00000000000E+00 0.  1.
          1   -1    0    0  501    0  0.00000000000E+00 -0.00000000000E+00 -0.15123743140E+02  0.15123743140E+02  0.00000000000E+00 0. -1.
         23    2    1    2    0    0  0.19947734571E+02 -0.58545001968E+02  0.44687228688E+03  0.46029758403E+03  0.91398007148E+02 0.  0.
          5    1    1    2  502    0 -0.29889500632E+02  0.71834967003E+02  0.17629936734E+03  0.19275005592E+03  0.41800000000E+01 0. -1.
         -5    1    1    2    0  502  0.99417660602E+01 -0.13289965035E+02  0.39407245622E+03  0.39444395677E+03  0.41800000000E+01 0. -1.
        -11    1    3    3    0    0 -0.32527011800E+02 -0.22906186188E+01  0.16003795969E+03  0.16332606030E+03  0.00000000000E+00 0.  1.
         11    1    3    3    0    0  0.52474746371E+02 -0.56254383349E+02  0.28683432719E+03  0.29697152373E+03  0.00000000000E+00 0. -1.
</event>
<event>
 7    1  0.4687179E-006  0.1052201E+03  0.7561462E-02  0.1269687E+00
         -1   -1    0    0    0  501 -0.00000000000E+00  0.00000000000E+00  0.19792290749E+03  0.19792290749E+03  0.00000000000E+00 0.  1.
          1   -1    0    0  501    0  0.00000000000E+00 -0.00000000000E+00 -0.29179017619E+03  0.29179017619E+03  0.00000000000E+00 0. -1.
         23    2    1    2    0    0 -0.14829345930E+02 -0.24045355944E+02 -0.26570228758E+03  0.28203952526E+03  0.90280117081E+02 0.  0.
          5    1    1    2  502    0  0.18780987118E+02 -0.44125570826E+02  0.67389263274E+02  0.82816524211E+02  0.41800000000E+01 0. -1.
         -5    1    1    2    0  502 -0.39516411878E+01  0.68170926770E+02  0.10444575561E+03  0.12485703420E+03  0.41800000000E+01 0.  1.
        -11    1    3    3    0    0  0.37385317577E+02 -0.27091336287E+01 -0.12334747715E+03  0.12891703337E+03  0.00000000000E+00 0.  1.
         11    1    3    3    0    0 -0.52214663508E+02 -0.21336222316E+02 -0.14235481043E+03  0.15312249189E+03  0.00000000000E+00 0. -1.
</event>
<event>
 7    1  0.4687179E-006  0.1779122E+03  0.7561462E-02  0.1169839E+00
         -2   -1    0    0    0  501 -0.00000000000E+00  0.00000000000E+00  0.16668448231E+03  0.16668448231E+03  0.00000000000E+00 0.  1.
          2   -1    0    0  501    0  0.00000000000E+00 -0.00000000000E+00 -0.21286040141E+03  0.21286040141E+03  0.00000000000E+00 0. -1.
         23    2    1    2    0    0 -0.13494092158E+03  0.78019277812E+02 -0.10772005009E+02  0.18125336763E+03  0.91873212421E+02 0.  0.
          5    1    1    2  502    0  0.16692723054E+02 -0.58194600548E+02 -0.48393918114E+02  0.77618955458E+02  0.41800000000E+01 0. -1.
         -5    1    1    2    0  502  0.11824819852E+03 -0.19824677264E+02  0.12990004023E+02  0.12067256062E+03  0.41800000000E+01 0.  1.
        -11    1    3    3    0    0  0.77106315386E+01  0.19518574270E+02  0.13813377622E+02  0.25124449877E+02  0.00000000000E+00 0.  1.
         11    1    3    3    0    0 -0.14265155312E+03  0.58500703541E+02 -0.24585382631E+02  0.15612891776E+03  0.00000000000E+00 0. -1.
</event>
<event>
 7    1  0.4687179E-006  0.1670711E+03  0.7561462E-02  0.1180937E+00
          1   -1    0    0  501    0  0.00000000000E+00  0.00000000000E+00  0.15130004687E+04  0.15130004687E+04  0.00000000000E+00 0. -1.
         -1   -1    0    0    0  501 -0.00000000000E+00 -0.00000000000E+00 -0.23241845136E+02  0.23241845136E+02  0.00000000000E+00 0.  1.
         23    2    1    2    0    0  0.13799904342E+03 -0.63378445351E+02  0.66784097299E+03  0.69110503415E+03  0.92488051712E+02 0.  0.
          5    1    1    2  502    0 -0.50493123118E+02  0.50973053600E+02  0.13870289522E+03  0.15621707083E+03  0.41800000000E+01 0.  1.
         -5    1    1    2    0  502 -0.87505920304E+02  0.12405391751E+02  0.68321475541E+03  0.68892020891E+03  0.41800000000E+01 0.  1.
        -11    1    3    3    0    0  0.10634848281E+03 -0.39031860260E+01  0.47680997985E+03  0.48854169887E+03  0.00000000000E+00 0.  1.
         11    1    3    3    0    0  0.31650560614E+02 -0.59475259325E+02  0.19103099314E+03  0.20256333528E+03  0.00000000000E+00 0. -1.
</event>
<event>
 7    1  0.4687179E-006  0.1285497E+03  0.7561462E-02  0.1229624E+00
         -2   -1    0    0    0  501 -0.00000000000E+00  0.00000000000E+00  0.63568339729E+02  0.63568339729E+02  0.00000000000E+00 0.  1.
          2   -1    0    0  501    0  0.00000000000E+00 -0.00000000000E+00 -0.30963909140E+03  0.30963909140E+03  0.00000000000E+00 0. -1.
         23    2    1    2    0    0  0.43901197021E+02  0.52003141824E+02 -0.18530696615E+03  0.21837994784E+03  0.93378199036E+02 0.  0.
          5    1    1    2  502    0 -0.85485688117E+02 -0.52521494304E+02 -0.39227173758E+02  0.10780794868E+03  0.41800000000E+01 0.  1.
         -5    1    1    2    0  502  0.41584491096E+02  0.51835247951E+00 -0.21536611765E+02  0.47019534614E+02  0.41800000000E+01 0.  1.
        -11    1    3    3    0    0 -0.29084726792E+02  0.10493628524E+02 -0.39985967255E+02  0.50546168495E+02  0.00000000000E+00 0.  1.
         11    1    3    3    0    0  0.72985923813E+02  0.41509513300E+02 -0.14532099889E+03  0.16783377934E+03  0.00000000000E+00 0. -1.
</event>
<event>
 7    1  0.4687179E-006  0.1480828E+03  0.7561462E-02  0.1202849E+00
         -1   -1    0    0    0  501 -0.00000000000E+00  0.00000000000E+00  0.34110368402E+02  0.34110368402E+02  0.00000000000E+00 0.  1.
          1   -1    0    0  501    0  0.00000000000E+00 -0.00000000000E+00 -0.98075490772E+03  0.98075490772E+03  0.00000000000E+00 0. -1.
         23    2    1    2    0    0 -0.67062627851E+02 -0.99079747390E+02 -0.59714485080E+03  0.61542491471E+03  0.88609595502E+02 0.  0.
          5    1    1    2  502    0  0.78594464146E+02  0.27253653562E+02 -0.30000951358E+03  0.31135676010E+03  0.41800000000E+01 0. -1.
         -5    1    1    2    0  502 -0.11531836295E+02  0.71826093828E+02 -0.49490174943E+02  0.88083601305E+02  0.41800000000E+01 0.  1.
        -11    1    3    3    0    0  0.60078711568E+01  0.82263388642E+01 -0.10664978005E+02  0.14748183712E+02  0.00000000000E+00 0.  1.
         11    1    3    3    0    0 -0.73070499007E+02 -0.10730608625E+03 -0.58647987279E+03  0.60067673100E+03  0.00000000000E+00 0. -1.
</event>
<event>
 7    1  0.4687179E-006  0.1179664E+03  0.7561462E-02  0.1246490E+00
          2   -1    0    0  501    0  0.00000000000E+00  0.00000000000E+00  0.90687307095E+02  0.90687307095E+02  0.00000000000E+00 0.  1.
         -2   -1    0    0    0  501 -0.00000000000E+00 -0.00000000000E+00 -0.22736245817E+03  0.22736245817E+03  0.00000000000E+00 0. -1.
         23    2    1    2    0    0  0.31499601686E+02  0.91762341308E+02 -0.57602362572E+02  0.14109510726E+03  0.84718622097E+02 0.  0.
          5    1    1    2  502    0 -0.28023122690E+02 -0.17637695449E+02  0.30060463455E+02  0.44916450986E+02  0.41800000000E+01 0.  1.
         -5    1    1    2    0  502 -0.34764789959E+01 -0.74124645859E+02 -0.10913325195E+03  0.13203820702E+03  0.41800000000E+01 0.  1.
        -11    1    3    3    0    0  0.60034380461E+02  0.52862853017E+02 -0.29461360732E+02  0.85244236418E+02  0.00000000000E+00 0.  1.
         11    1    3    3    0    0 -0.28534778775E+02  0.38899488291E+02 -0.28141001841E+02  0.55850870841E+02  0.00000000000E+00 0. -1.
</event>
<event>
 7    1  0.4687179E-006  0.1435185E+03  0.7561462E-02  0.1208671E+00
         -1   -1    0    0    0  501 -0.00000000000E+00  0.00000000000E+00  0.54289001449E+02  0.54289001449E+02  0.00000000000E+00 0.  1.
          1   -1    0    0  501    0  0.00000000000E+00 -0.00000000000E+00 -0.49085551107E+03  0.49085551107E+03  0.00000000000E+00 0. -1.
         23    2    1    2    0    0  0.54034289030E+02  0.10967398871E+03 -0.20700462971E+03  0.25653835781E+03  0.89514937935E+02 0.  0.
          5    1    1    2  502    0 -0.51574212236E+02 -0.34775501368E+01 -0.23918357704E+02  0.57110007512E+02  0.41800000000E+01 0. -1.
         -5    1    1    2    0  502 -0.24600767941E+01 -0.10619643858E+03 -0.20564352220E+03  0.23149614720E+03  0.41800000000E+01 0. -1.
        -11    1    3    3    0    0  0.43023302744E+02  0.41378411566E+02 -0.30650713382E+02  0.67101741807E+02  0.00000000000E+00 0.  1.
         11    1    3    3    0    0  0.11010986286E+02  0.68295577146E+02 -0.17635391633E+03  0.18943661600E+03  0.00000000000E+00 0. -1.
</event>
<event>
 7    1  0.4687179E-006  0.1130534E+03  0.7561462E-02  0.1255018E+00
         -2   -1    0    0    0  501 -0.00000000000E+00  0.00000000000E+00  0.11157224844E+04  0.11157224844E+04  0.00000000000E+00 0. -1.
          2   -1    0    0  501    0  0.00000000000E+00 -0.00000000000E+00 -0.19901550435E+02  0.19901550435E+02  0.00000000000E+00 0.  1.
         23    2    1    2    0    0  0.49709590382E+02 -0.84652532384E+02  0.40107494704E+03  0.42290476674E+03  0.91379614662E+02 0.  0.
          5    1    1    2  502    0 -0.17905289660E+02 -0.14567590094E+02  0.22740037260E+02  0.32671023454E+02  0.41800000000E+01 0.  1.
         -5    1    1    2    0  502 -0.31804300722E+02  0.99220122478E+02  0.67200594968E+03  0.68004824465E+03  0.41800000000E+01 0.  1.
        -11    1    3    3    0    0  0.20431597094E+02 -0.28808069284E+02  0.29498811476E+02  0.46016680608E+02  0.00000000000E+00 0.  1.
         11    1    3    3    0    0  0.29277993288E+02 -0.55844463100E+02  0.37157613556E+03  0.37688808613E+03  0.00000000000E+00 0. -1.
</event>
<event>
 7    1  0.4687179E-006  0.1000859E+03  0.7561462E-02  0.1280115E+00
          2   -1    0    0  501    0  0.00000000000E+00  0.00000000000E+00  0.27685439560E+03  0.27685439560E+03  0.00000000000E+00 0. -1.
         -2   -1    0    0    0  501 -0.00000000000E+00 -0.00000000000E+00 -0.50221954593E+02  0.50221954593E+02  0.00000000000E+00 0.  1.
         23    2    1    2    0    0  0.23578914375E+02  0.15594166107E+02  0.15266065814E+03  0.17902847543E+03  0.89144687172E+02 0.  0.
          5    1    1    2  502    0  0.22281772567E+01 -0.68148882930E+02  0.29525814462E+02  0.74420972435E+02  0.41800000000E+01 0.  1.
         -5    1    1    2    0  502 -0.25807091632E+02  0.52554716823E+02  0.44445968402E+02  0.73626902325E+02  0.41800000000E+01 0.  1.
        -11    1    3    3    0    0  0.34403618028E+02  0.36165121840E+02  0.14680256328E+03  0.15505649795E+03  0.00000000000E+00 0.  1.
         11    1    3    3    0    0 -0.10824703653E+02 -0.20570955733E+02  0.58580948647E+01  0.23971977482E+02  0.00000000000E+00 0. -1.
</event>
<event>
 7    1  0.4687179E-006  0.8009558E+02  0.7561462E-02  0.1328780E+00
          2   -1    0    0  501    0  0.00000000000E+00  0.00000000000E+00  0.47847905662E+03  0.47847905662E+03  0.00000000000E+00 0. -1.
         -2   -1    0    0    0  501 -0.00000000000E+00 -0.00000000000E+00 -0.32111465392E+02  0.32111465392E+02  0.00000000000E+00 0.  1.
         23    2    1    2    0    0  0.25828816363E+02 -0.55750034078E+02  0.20683522800E+03  0.23346380053E+03  0.89159074471E+02 0.  0.
          5    1    1    2  502    0  0.26285456264E+02  0.95342051151E+01  0.66938877389E+00  0.28279794191E+02  0.41800000000E+01 0.  1.
         -5    1    1    2    0  502 -0.52114272627E+02  0.46215828963E+02  0.23886297445E+03  0.24884692729E+03  0.41800000000E+01 0.  1.
        -11    1    3    3    0    0  0.78115385480E+01 -0.83695087883E+01 -0.71890261952E+01  0.13518539473E+02  0.00000000000E+00 0.  1.
         11    1    3    3    0    0  0.18017277815E+02 -0.47380525289E+02  0.21402425420E+03  0.21994526106E+03  0.00000000000E+00 0. -1.
</event>
<event>
 7    1  0.4687179E-006  0.1191474E+03  0.7561462E-02  0.1244510E+00
          1   -1    0    0  501    0  0.00000000000E+00  0.00000000000E+00  0.33522408887E+03  0.33522408887E+03  0.00000000000E+00 0. -1.
         -1   -1    0    0    0  501 -0.00000000000E+00 -0.00000000000E+00 -0.46693852036E+02  0.46693852036E+02  0.00000000000E+00 0.  1.
         23    2    1    2    0    0  0.95653721990E+01  0.49603734709E+02  0.15027143209E+03  0.18150532483E+03  0.88377897672E+02 0.  0.
          5    1    1    2  502    0 -0.36260544553E+02  0.33363487587E+02  0.19757429512E+02  0.53252021710E+02  0.41800000000E+01 0. -1.
         -5    1    1    2    0  502  0.26695172354E+02 -0.82967222296E+02  0.11850137523E+03  0.14716059437E+03  0.41800000000E+01 0.  1.
        -11    1    3    3    0    0 -0.34188082890E+02  0.46511574030E+02  0.91116463947E+02  0.10786269760E+03  0.00000000000E+00 0. -1.
         11    1    3    3    0    0  0.43753455089E+02  0.30921606787E+01  0.59154968148E+02  0.73642627238E+02  0.00000000000E+00 0.  1.
</event>
<event>
 7    1  0.4687179E-006  0.1033896E+03  0.7561462E-02  0.1273325E+00
          2   -1    0    0  501    0  0.00000000000E+00  0.00000000000E+00  0.10188290126E+03  0.10188290126E+03  0.00000000000E+00 0.  1.
         -2   -1    0    0    0  501 -0.00000000000E+00 -0.00000000000E+00 -0.11863997257E+03  0.11863997257E+03  0.00000000000E+00 0. -1.
         23    2    1    2    0    0  0.10453393796E+02 -0.79620621643E+00 -0.24540225720E+01  0.94181659542E+02  0.93564177873E+02 0.  0.
          5    1    1    2  502    0  0.20454925611E+02 -0.54152747106E+02 -0.23260745849E+02  0.62525664318E+02  0.41800000000E+01 0.  1.
         -5    1    1    2    0  502 -0.30908319407E+02  0.54948953323E+02  0.89576971146E+01  0.63815549966E+02  0.41800000000E+01 0.  1.
        -11    1    3    3    0    0  0.47883334132E+02 -0.36288177906E+01  0.18180527023E+02  0.51346991820E+02  0.00000000000E+00 0.  1.
         11    1    3    3    0    0 -0.37429940335E+02  0.28326115742E+01 -0.20634549595E+02  0.42834667722E+02  0.00000000000E+00 0. -1.
</event>
<event>
 7    1  0.4687179E-006  0.6897326E+02  0.7561462E-02  0.1363620E+00
         -2   -1    0    0    0  501 -0.00000000000E+00  0.00000000000E+00  0.10594489069E+03  0.10594489069E+03  0.00000000000E+00 0.  1.
          2   -1    0    0  501    0  0.00000000000E+00 -0.00000000000E+00 -0.15675172959E+03  0.15675172959E+03  0.00000000000E+00 0. -1.
         23    2    1    2    0    0  0.12906133669E+01 -0.25441487427E+02 -0.10419372258E+03  0.12432860290E+03  0.62867596634E+02 0.  0.
          5    1    1    2  502    0 -0.21632152015E+01  0.52434362656E+02  0.82863070796E+02  0.98172311722E+02  0.41800000000E+01 0.  1.
         -5    1    1    2    0  502  0.87260183463E+00 -0.26992875229E+02 -0.29476187114E+02  0.40195705665E+02  0.41800000000E+01 0.  1.
        -11    1    3    3    0    0 -0.21787704326E+02 -0.27173452831E+02 -0.27973678185E+02  0.44672444188E+02  0.00000000000E+00 0.  1.
         11    1    3    3    0    0  0.23078317693E+02  0.17319654035E+01 -0.76220044399E+02  0.79656158707E+02  0.00000000000E+00 0. -1.
</event>
<event>
 7    1  0.4687179E-006  0.8314955E+02  0.7561462E-02  0.1320344E+00
          2   -1    0    0  501    0  0.00000000000E+00  0.00000000000E+00  0.29211846380E+03  0.29211846380E+03  0.00000000000E+00 0. -1.
         -2   -1    0    0    0  501 -0.00000000000E+00 -0.00000000000E+00 -0.46107244508E+02  0.46107244508E+02  0.00000000000E+00 0.  1.
         23    2    1    2    0    0 -0.21042061559E+02 -0.25005627241E+02  0.13911360016E+03  0.17040858669E+03  0.92835569250E+02 0.  0.
          5    1    1    2  502    0 -0.23860733156E+02  0.56577171475E+02  0.19561188925E+02  0.64578815652E+02  0.41800000000E+01 0.  1.
         -5    1    1    2    0  502  0.44902794715E+02 -0.31571544233E+02  0.87336430202E+02  0.10323830597E+03  0.41800000000E+01 0.  1.
        -11    1    3    3    0    0 -0.11741295741E+01 -0.29344525247E+02  0.14601049432E+03  0.14893469775E+03  0.00000000000E+00 0. -1.
         11    1    3    3    0    0 -0.19867931984E+02  0.43388980054E+01 -0.68968941538E+01  0.21473888940E+02  0.00000000000E+00 0.  1.
</event>
<event>
 7    1  0.4687179E-006  0.1193506E+03  0.7561462E-02  0.1244172E+00
         -1   -1    0    0    0  501 -0.00000000000E+00  0.00000000000E+00  0.10555966078E+04  0.10555966078E+04  0.00000000000E+00 0.  1.
          1   -1    0    0  501    0  0.00000000000E+00 -0.00000000000E+00 -0.13977177521E+02  0.13977177521E+02  0.00000000000E+00 0. -1.
         23    2    1    2    0    0  0.90179297230E+01 -0.58307794770E+02  0.37832445849E+03  0.39201311216E+03  0.84046190995E+02 0.  0.
          5    1    1    2  502    0  0.51788967216E+02  0.54410281761E+02  0.30805091690E+03  0.31710473931E+03  0.41800000000E+01 0.  1.
         -5    1    1    2    0  502 -0.60806896939E+02  0.38975130093E+01  0.35524405489E+03  0.36045593387E+03  0.41800000000E+01 0.  1.
        -11    1    3    3    0    0 -0.31369925979E+02 -0.53095588090E+02  0.21309704111E+03  0.22184130062E+03  0.00000000000E+00 0. -1.
         11    1    3    3    0    0  0.40387855702E+02 -0.52122066798E+01  0.16522741738E+03  0.17017181153E+03  0.00000000000E+00 0.  1.
</event>
<event>
 7    1  0.4687179E-006  0.2816558E+03  0.7561462E-02  0.1094788E+00
          1   -1    0    0  501    0  0.00000000000E+00  0.00000000000E+00  0.26387874639E+04  0.26387874639E+04  0.00000000000E+00 0. -1.
         -1   -1    0    0    0  501 -0.00000000000E+00 -0.00000000000E+00 -0.31857559324E+02  0.31857559324E+02  0.00000000000E+00 0.  1.
         23    2    1    2    0    0 -0.14114312707E+03 -0.22270707979E+03  0.97601257340E+03  0.10148831164E+04  0.88698200705E+02 0.  0.
          5    1    1    2  502    0  0.55370276906E+02  0.10499433129E+02  0.29281126973E+03  0.29821471752E+03  0.41800000000E+01 0. -1.
         -5    1    1    2    0  502  0.85772850163E+02  0.21220764667E+03  0.13381060615E+04  0.13575471893E+04  0.41800000000E+01 0.  1.
        -11    1    3    3    0    0 -0.16758241784E+02 -0.10598159682E+03  0.35378738587E+03  0.36970048949E+03  0.00000000000E+00 0.  1.
         11    1    3    3    0    0 -0.12438488528E+03 -0.11672548298E+03  0.62222518753E+03  0.64518262691E+03  0.00000000000E+00 0. -1.
</event>
<event>
 7    1  0.4687179E-006  0.1124228E+03  0.7561462E-02  0.1256148E+00
         -3   -1    0    0    0  501 -0.00000000000E+00  0.00000000000E+00  0.43282666848E+02  0.43282666848E+02  0.00000000000E+00 0.  1.
          3   -1    0    0  501    0  0.00000000000E+00 -0.00000000000E+00 -0.32073802865E+03  0.32073802865E+03  0.00000000000E+00 0. -1.
         23    2    1    2    0    0  0.45801947734E+02 -0.34213346424E+01 -0.12007736518E+03  0.15780583862E+03  0.91512759371E+02 0.  0.
          5    1    1    2  502    0 -0.57443502878E+02 -0.50677650426E+02 -0.10383153621E+03  0.12909856927E+03  0.41800000000E+01 0. -1.
         -5    1    1    2    0  502  0.11641555143E+02  0.54098985069E+02 -0.53546460412E+02  0.77116287607E+02  0.41800000000E+01 0. -1.
        -11    1    3    3    0    0  0.30366773126E+02  0.37876001688E+02 -0.95988883319E+02  0.10756671481E+03  0.00000000000E+00 0. -1.
         11    1    3    3    0    0  0.15435174608E+02 -0.41297336331E+02 -0.24088481862E+02  0.50239123814E+02  0.00000000000E+00 0.  1.
</event>
<event>
 7    1  0.4687179E-006  0.1093402E+03  0.7561462E-02  0.1261797E+00
          1   -1    0    0  501    0  0.00000000000E+00  0.00000000000E+00  0.23432206337E+03  0.23432206337E+03  0.00000000000E+00 0. -1.
         -1   -1    0    0    0  501 -0.00000000000E+00 -0.00000000000E+00 -0.11384014734E+03  0.11384014734E+03  0.00000000000E+00 0.  1.
         23    2    1    2    0    0  0.58100509505E+02  0.16428121203E+02  0.14238274310E+03  0.17967068160E+03  0.91450292099E+02 0.  0.
          5    1    1    2  502    0 -0.30790054715E+02 -0.79112053080E+02 -0.45033453882E+02  0.96188506488E+02  0.41800000000E+01 0. -1.
         -5    1    1    2    0  502 -0.27310454790E+02  0.62683931877E+02  0.23132626819E+02  0.72303022620E+02  0.41800000000E+01 0.  1.
        -11    1    3    3    0    0  0.36652838508E+02 -0.22776058798E+01  0.23754427870E+01  0.36800282440E+02  0.00000000000E+00 0.  1.
         11    1    3    3    0    0  0.21447670997E+02  0.18705727083E+02  0.14000730031E+03  0.14287039917E+03  0.00000000000E+00 0. -1.
</event>
<event>
 7    1  0.4687179E-006  0.1095926E+03  0.7561462E-02  0.1261326E+00
         -1   -1    0    0    0  501 -0.00000000000E+00  0.00000000000E+00  0.54062072995E+02  0.54062072995E+02  0.00000000000E+00 0.  1.
          1   -1    0    0  501    0  0.00000000000E+00 -0.00000000000E+00 -0.28143902294E+03  0.28143902294E+03  0.00000000000E+00 0. -1.
         23    2    1    2    0    0 -0.50587614615E+02  0.21711792143E+02 -0.12837917523E+03  0.16674450459E+03  0.91060466211E+02 0.  0.
          5    1    1    2  502    0  0.28310697726E+02  0.39328870759E+02 -0.90962246001E+02  0.10314968870E+03  0.41800000000E+01 0.  1.
         -5    1    1    2    0  502  0.22276916889E+02 -0.61040662902E+02 -0.80355287127E+01  0.65606902650E+02  0.41800000000E+01 0.  1.
        -11    1    3    3    0    0 -0.37673300814E+02 -0.32469329891E+02 -0.49389187519E+02  0.70091560274E+02  0.00000000000E+00 0.  1.
         11    1    3    3    0    0 -0.12914313802E+02  0.54181122034E+02 -0.78989987713E+02  0.96652944315E+02  0.00000000000E+00 0. -1.
</event>
<event>
 7    1  0.4687179E-006  0.1032077E+03  0.7561462E-02  0.1273692E+00
          1   -1    0    0  501    0  0.00000000000E+00  0.00000000000E+00  0.22817932631E+03  0.22817932631E+03  0.00000000000E+00 0. -1.
         -1   -1    0    0    0  501 -0.00000000000E+00 -0.00000000000E+00 -0.18296803457E+03  0.18296803457E+03  0.00000000000E+00 0.  1.
         23    2    1    2    0    0 -0.11695570600E+02  0.91111815513E+02  0.16878471588E+03  0.21276220788E+03  0.91330868232E+02 0.  0.
          5    1    1    2  502    0 -0.27849988247E+02 -0.27749070361E+02 -0.11675527205E+03  0.12326758983E+03  0.41800000000E+01 0. -1.
         -5    1    1    2    0  502  0.39545558847E+02 -0.63362745152E+02 -0.68181520761E+01  0.75117563162E+02  0.41800000000E+01 0. -1.
        -11    1    3    3    0    0 -0.73270092069E+01  0.33366934950E+02 -0.16604563741E+00  0.34162332810E+02  0.00000000000E+00 0.  1.
         11    1    3    3    0    0 -0.43685613929E+01  0.57744880562E+02  0.16895076151E+03  0.17859987507E+03  0.00000000000E+00 0. -1.
</event>
<event>
 7    1  0.4687179E-006  0.1043810E+03  0.7561462E-02  0.1271344E+00
         -1   -1    0    0    0  501 -0.00000000000E+00  0.00000000000E+00  0.14421747213E+03  0.14421747213E+03  0.00000000000E+00 0.  1.
          1   -1    0    0  501    0  0.00000000000E+00 -0.00000000000E+00 -0.95135610685E+02  0.95135610685E+02  0.00000000000E+00 0. -1.
         23    2    1    2    0    0 -0.22580978227E+02 -0.38694569818E+02  0.23560874360E+02  0.10405315596E+03  0.90910803278E+02 0.  0.
          5    1    1    2  502    0 -0.44441495974E+01  0.81000190137E+02  0.24760679292E+02  0.84919637934E+02  0.41800000000E+01 0. -1.
         -5    1    1    2    0  502  0.27025127824E+02 -0.42305620318E+02  0.76030779505E+00  0.50380288927E+02  0.41800000000E+01 0. -1.
        -11    1    3    3    0    0 -0.37713651155E+02 -0.23478386701E+01 -0.22089945912E+02  0.43769824540E+02  0.00000000000E+00 0. -1.
         11    1    3    3    0    0  0.15132672928E+02 -0.36346731148E+02  0.45650820272E+02  0.60283331416E+02  0.00000000000E+00 0.  1.
</event>
<event>
 7    1  0.4687179E-006  0.8509797E+02  0.7561462E-02  0.1315177E+00
         -1   -1    0    0    0  501 -0.00000000000E+00  0.00000000000E+00  0.60846142419E+03  0.60846142419E+03  0.00000000000E+00 0.  1.
          1   -1    0    0  501    0  0.00000000000E+00 -0.00000000000E+00 -0.30123656246E+02  0.30123656246E+02  0.00000000000E+00 0. -1.
         23    2    1    2    0    0  0.68428193438E+02  0.38496434244E+02  0.21388899937E+03  0.24534826447E+03  0.91010294572E+02 0.  0.
          5    1    1    2  502    0 -0.70781464703E+02 -0.38310096828E+02  0.37397980812E+03  0.38256509060E+03  0.41800000000E+01 0. -1.
         -5    1    1    2    0  502  0.23532712645E+01 -0.18633741553E+00 -0.95310395526E+01  0.10671725363E+02  0.41800000000E+01 0. -1.
        -11    1    3    3    0    0  0.58410193389E+02  0.44223888050E+02  0.22028916462E+03  0.23215257702E+03  0.00000000000E+00 0.  1.
         11    1    3    3    0    0  0.10018000049E+02 -0.57274538060E+01 -0.64001652490E+01  0.13195687451E+02  0.00000000000E+00 0. -1.
</event>
<event>
 7    1  0.4687179E-006  0.1177712E+03  0.7561462E-02  0.1246820E+00
          2   -1    0    0  501    0  0.00000000000E+00  0.00000000000E+00  0.13973904435E+03  0.13973904435E+03  0.00000000000E+00 0. -1.
         -2   -1    0    0    0  501 -0.00000000000E+00 -0.00000000000E+00 -0.11648401436E+03  0.11648401436E+03  0.00000000000E+00 0.  1.
         23    2    1    2    0    0 -0.80894090980E+01 -0.65336149727E+02  0.12825592587E+02  0.11448372649E+03  0.92778105200E+02 0.  0.
          5    1    1    2  502    0  0.32692555501E+02 -0.16869849577E+02  0.36468465090E+02  0.51969379023E+02  0.41800000000E+01 0.  1.
         -5    1    1    2    0  502 -0.24603146403E+02  0.82205999304E+02 -0.26039027693E+02  0.89769953201E+02  0.41800000000E+01 0.  1.
        -11    1    3    3    0    0 -0.46471538679E+02 -0.14051095640E+02 -0.25173015975E+01  0.48614545181E+02  0.00000000000E+00 0.  1.
         11    1    3    3    0    0  0.38382129581E+02 -0.51285054087E+02  0.15342894184E+02  0.65869181305E+02  0.00000000000E+00 0. -1.
</event>
<event>
 7    1  0.4687179E-006  0.1024206E+03  0.7561462E-02  0.1275287E+00
          2   -1    0    0  501    0  0.00000000000E+00  0.00000000000E+00  0.25890783916E+03  0.25890783916E+03  0.00000000000E+00 0. -1.
         -2   -1    0    0    0  501 -0.00000000000E+00 -0.00000000000E+00 -0.69361660049E+02  0.69361660049E+02  0.00000000000E+00 0.  1.
         23    2    1    2    0    0 -0.34917257250E+02 -0.70795855455E+02  0.67811887158E+02  0.13670146329E+03  0.88642935553E+02 0.  0.
          5    1    1    2  502    0  0.45121450244E+02  0.88981545430E+02  0.40771485480E+02  0.10785845877E+03  0.41800000000E+01 0. -1.
         -5    1    1    2    0  502 -0.10204192995E+02 -0.18185689975E+02  0.80962806475E+02  0.83709577151E+02  0.41800000000E+01 0. -1.
        -11    1    3    3    0    0 -0.19141582347E+02 -0.11436068395E+02 -0.19722321149E+02  0.29768335301E+02  0.00000000000E+00 0.  1.
         11    1    3    3    0    0 -0.15775674902E+02 -0.59359787060E+02  0.87534208307E+02  0.10693312799E+03  0.00000000000E+00 0. -1.
</event>
<event>
 7    1  0.4687179E-006  0.6428467E+02  0.7561462E-02  0.1380683E+00
         -1   -1    0    0    0  501 -0.00000000000E+00  0.00000000000E+00  0.64712868141E+03  0.64712868141E+03  0.00000000000E+00 0.  1.
          1   -1    0    0  501    0  0.00000000000E+00 -0.00000000000E+00 -0.25127868551E+02  0.25127868551E+02  0.00000000000E+00 0. -1.
         23    2    1    2    0    0  0.84146216942E+01 -0.21792623812E+02  0.10987187155E+03  0.14455435675E+03  0.90985765839E+02 0.  0.
          5    1    1    2  502    0  0.24524527931E+01 -0.23094471122E+02  0.44769310471E+03  0.44831457429E+03  0.41800000000E+01 0. -1.
         -5    1    1    2    0  502 -0.10867074487E+02  0.44887094933E+02  0.64435836599E+02  0.79387618919E+02  0.41800000000E+01 0. -1.
        -11    1    3    3    0    0  0.13170229645E+02  0.15878227133E+02  0.10412881919E+03  0.10615264496E+03  0.00000000000E+00 0.  1.
         11    1    3    3    0    0 -0.47556079509E+01 -0.37670850945E+02  0.57430523624E+01  0.38401711789E+02  0.00000000000E+00 0. -1.
</event>
<event>
 7    1  0.4687179E-006  0.1447303E+03  0.7561462E-02  0.1207102E+00
         -2   -1    0    0    0  501 -0.00000000000E+00  0.00000000000E+00  0.10484235127E+03  0.10484235127E+03  0.00000000000E+00 0.  1.
          2   -1    0    0  501    0  0.00000000000E+00 -0.00000000000E+00 -0.41685230345E+03  0.41685230345E+03  0.00000000000E+00 0. -1.
         23    2    1    2    0    0 -0.40197477166E+02 -0.10963117396E+03 -0.31739188709E+03  0.35048529050E+03  0.92019005608E+02 0.  0.
          5    1    1    2  502    0  0.71348824746E+02  0.17266805730E+02  0.39460550330E+01  0.73633152336E+02  0.41800000000E+01 0. -1.
         -5    1    1    2    0  502 -0.31151347580E+02  0.92364368232E+02  0.14358798737E+01  0.97576211885E+02  0.41800000000E+01 0. -1.
        -11    1    3    3    0    0 -0.36596618136E+02 -0.74000500092E+02 -0.29907641369E+03  0.31026132163E+03  0.00000000000E+00 0. -1.
         11    1    3    3    0    0 -0.36008590302E+01 -0.35630673869E+02 -0.18315473400E+02  0.40223968874E+02  0.00000000000E+00 0.  1.
</event>
<event>
 7    1  0.4687179E-006  0.1224177E+03  0.7561462E-02  0.1239161E+00
         -2   -1    0    0    0  501 -0.00000000000E+00  0.00000000000E+00  0.95605176429E+03  0.95605176429E+03  0.00000000000E+00 0. -1.
          2   -1    0    0  501    0  0.00000000000E+00 -0.00000000000E+00 -0.17531091647E+02  0.17531091647E+02  0.00000000000E+00 0.  1.
         23    2    1    2    0    0  0.63679697721E+02  0.28651774942E+02  0.35885148577E+03  0.37647273530E+03  0.89896070413E+02 0.  0.
          5    1    1    2  502    0 -0.27548668853E+02  0.48488274512E+02  0.18198829052E+03  0.19038711145E+03  0.41800000000E+01 0.  1.
         -5    1    1    2    0  502 -0.36131028868E+02 -0.77140049454E+02  0.39768089635E+03  0.40672300918E+03  0.41800000000E+01 0.  1.
        -11    1    3    3    0    0 -0.16246299536E+02 -0.48620761666E+01  0.17814370411E+02  0.24595402546E+02  0.00000000000E+00 0.  1.
         11    1    3    3    0    0  0.79925997257E+02  0.33513851108E+02  0.34103711536E+03  0.35187733276E+03  0.00000000000E+00 0. -1.
</event>
<event>
 7    1  0.4687179E-006  0.1679869E+03  0.7561462E-02  0.1179964E+00
          1   -1    0    0  501    0  0.00000000000E+00  0.00000000000E+00  0.65182130534E+03  0.65182130534E+03  0.00000000000E+00 0. -1.
         -1   -1    0    0    0  501 -0.00000000000E+00 -0.00000000000E+00 -0.23420424158E+03  0.23420424158E+03  0.00000000000E+00 0.  1.
         23    2    1    2    0    0  0.83107357282E+02 -0.87204230172E+02  0.58813912883E+03  0.60780276322E+03  0.94895487379E+02 0.  0.
          5    1    1    2  502    0 -0.10946040519E+03 -0.13762686484E+02 -0.11703179860E+03  0.16088786818E+03  0.41800000000E+01 0. -1.
         -5    1    1    2    0  502  0.26353047907E+02  0.10096691666E+03 -0.53490266467E+02  0.11733491552E+03  0.41800000000E+01 0.  1.
        -11    1    3    3    0    0  0.61057658908E+02 -0.71749608459E+02  0.56344528951E+03  0.57126757154E+03  0.00000000000E+00 0. -1.
         11    1    3    3    0    0  0.22049698374E+02 -0.15454621713E+02  0.24693839320E+02  0.36535191679E+02  0.00000000000E+00 0.  1.
</event>
<event>
 7    1  0.4687179E-006  0.1224098E+03  0.7561462E-02  0.1239174E+00
         -2   -1    0    0    0  501 -0.00000000000E+00  0.00000000000E+00  0.17877224306E+03  0.17877224306E+03  0.00000000000E+00 0. -1.
          2   -1    0    0  501    0  0.00000000000E+00 -0.00000000000E+00 -0.19115715038E+03  0.19115715038E+03  0.00000000000E+00 0.  1.
         23    2    1    2    0    0  0.75926750354E+02 -0.70669455703E+02 -0.11614176791E+03  0.17712682526E+03  0.84415393058E+02 0.  0.
          5    1    1    2  502    0 -0.14808439549E+02  0.52510767509E+02 -0.16048279476E+02  0.57023593893E+02  0.41800000000E+01 0.  1.
         -5    1    1    2    0  502 -0.61118310805E+02  0.18158688194E+02  0.11980514007E+03  0.13577897429E+03  0.41800000000E+01 0.  1.
        -11    1    3    3    0    0  0.83219514579E+02 -0.79268297441E+02 -0.11905847198E+03  0.16548072497E+03  0.00000000000E+00 0.  1.
         11    1    3    3    0    0 -0.72927642248E+01  0.85988417383E+01  0.29167040750E+01  0.11646100289E+02  0.00000000000E+00 0. -1.
</event>
<event>
 7    1  0.4687179E-006  0.1057152E+03  0.7561462E-02  0.1268717E+00
          1   -1    0    0  501    0  0.00000000000E+00  0.00000000000E+00  0.30985706305E+02  0.30985706305E+02  0.00000000000E+00 0. -1.
         -1   -1    0    0    0  501 -0.00000000000E+00 -0.00000000000E+00 -0.57470912991E+03  0.57470912991E+03  0.00000000000E+00 0.  1.
         23    2    1    2    0    0  0.13358750481E+02  0.61040416236E+02 -0.15697653805E+03  0.19444502314E+03  0.96243674584E+02 0.  0.
          5    1    1    2  502    0  0.35164933718E+02 -0.36265390554E+02 -0.32444419848E+03  0.32837975188E+03  0.41800000000E+01 0. -1.
         -5    1    1    2    0  502 -0.48523684199E+02 -0.24775025682E+02 -0.62302687066E+02  0.82870061189E+02  0.41800000000E+01 0. -1.
        -11    1    3    3    0    0  0.63979931339E+01 -0.21927026639E+02 -0.87972480141E+01  0.24476935796E+02  0.00000000000E+00 0.  1.
         11    1    3    3    0    0  0.69607573468E+01  0.82967442874E+02 -0.14817929004E+03  0.16996808735E+03  0.00000000000E+00 0. -1.
</event>
<event>
 7    1  0.4687179E-006  0.1235329E+03  0.7561462E-02  0.1237380E+00
          1   -1    0    0  501    0  0.00000000000E+00  0.00000000000E+00  0.35278206618E+03  0.35278206618E+03  0.00000000000E+00 0. -1.
         -1   -1    0    0    0  501 -0.00000000000E+00 -0.00000000000E+00 -0.54380516808E+02  0.54380516808E+02  0.00000000000E+00 0.  1.
         23    2    1    2    0    0  0.69866741039E+02  0.41533907440E+02  0.16184604241E+03  0.20492098908E+03  0.95875144582E+02 0.  0.
          5    1    1    2  502    0 -0.82518771175E+00 -0.55010093010E+02  0.81541836998E+01  0.55774137192E+02  0.41800000000E+01 0. -1.
         -5    1    1    2    0  502 -0.69041553327E+02  0.13476185570E+02  0.12840132325E+03  0.14646745672E+03  0.41800000000E+01 0. -1.
        -11    1    3    3    0    0  0.75714469831E+01  0.56784804744E+02  0.10310336082E+03  0.11794975147E+03  0.00000000000E+00 0. -1.
         11    1    3    3    0    0  0.62295294056E+02 -0.15250897304E+02  0.58742681592E+02  0.86971237606E+02  0.00000000000E+00 0.  1.
</event>
<event>
 7    1  0.4687179E-006  0.6424427E+02  0.7561462E-02  0.1380837E+00
          3   -1    0    0  501    0  0.00000000000E+00  0.00000000000E+00  0.64590651353E+03  0.64590651353E+03  0.00000000000E+00 0. -1.
         -3   -1    0    0    0  501 -0.00000000000E+00 -0.00000000000E+00 -0.19856550301E+02  0.19856550301E+02  0.00000000000E+00 0.  1.
         23    2    1    2    0    0  0.67879186719E+01 -0.10516714315E+02  0.36141603386E+03  0.37278546620E+03  0.90502912442E+02 0.  0.
          5    1    1    2  502    0 -0.20533721481E+02  0.27528938744E+01  0.27355413121E+03  0.27436936280E+03  0.41800000000E+01 0. -1.
         -5    1    1    2    0  502  0.13745802809E+02  0.77638204402E+01 -0.89202018371E+01  0.18608234830E+02  0.41800000000E+01 0. -1.
        -11    1    3    3    0    0 -0.35233291147E+02  0.18656153460E+02  0.17444669823E+03  0.17894436954E+03  0.00000000000E+00 0. -1.
         11    1    3    3    0    0  0.42021209819E+02 -0.29172867775E+02  0.18696933562E+03  0.19384109665E+03  0.00000000000E+00 0.  1.
</event>
<event>
 7    1  0.4687179E-006  0.1209247E+03  0.7561462E-02  0.1241579E+00
         -1   -1    0    0    0  501 -0.00000000000E+00  0.00000000000E+00  0.13616590622E+03  0.13616590622E+03  0.00000000000E+00 0.  1.
          1   -1    0    0  501    0  0.00000000000E+00 -0.00000000000E+00 -0.12175991613E+03  0.12175991613E+03  0.00000000000E+00 0. -1.
         23    2    1    2    0    0 -0.37191295347E+02 -0.51572463868E+02 -0.19046327072E+02  0.11367122950E+03  0.92279327925E+02 0.  0.
          5    1    1    2  502    0 -0.41901472271E+02  0.21329788983E+02 -0.11084965522E+02  0.48487546207E+02  0.41800000000E+01 0.  1.
         -5    1    1    2    0  502  0.79092767618E+02  0.30242674886E+02  0.44537282682E+02  0.95767046641E+02  0.41800000000E+01 0.  1.
        -11    1    3    3    0    0  0.65048217588E+01 -0.64084039289E+02 -0.60862155173E-01  0.64413356549E+02  0.00000000000E+00 0.  1.
         11    1    3    3    0    0 -0.43696117106E+02  0.12511575421E+02 -0.18985464917E+02  0.49257872952E+02  0.00000000000E+00 0. -1.
</event>
<event>
 7    1  0.4687179E-006  0.1082541E+03  0.7561462E-02  0.1263838E+00
         -4   -1    0    0    0  501 -0.00000000000E+00  0.00000000000E+00  0.12520182511E+03  0.12520182511E+03  0.00000000000E+00 0. -1.
          4   -1    0    0  501    0  0.00000000000E+00 -0.00000000000E+00 -0.12287624158E+03  0.12287624158E+03  0.00000000000E+00 0.  1.
         23    2    1    2    0    0 -0.38218053163E+02 -0.73508448788E+00 -0.46018198956E+02  0.10863144992E+03  0.90675009453E+02 0.  0.
          5    1    1    2  502    0  0.64345604906E+02 -0.43326310548E+02  0.39998207108E+02  0.87377657489E+02  0.41800000000E+01 0. -1.
         -5    1    1    2    0  502 -0.26127551743E+02  0.44061395036E+02  0.83455753717E+01  0.52068959284E+02  0.41800000000E+01 0. -1.
        -11    1    3    3    0    0 -0.56809204306E+02  0.19391818934E+02 -0.62694101327E+01  0.60354236295E+02  0.00000000000E+00 0.  1.
         11    1    3    3    0    0  0.18591151143E+02 -0.20126903421E+02 -0.39748788824E+02  0.48277213622E+02  0.00000000000E+00 0. -1.
</event>
<event>
 7    1  0.4687179E-006  0.1477336E+03  0.7561462E-02  0.1203286E+00
          1   -1    0    0  501    0  0.00000000000E+00  0.00000000000E+00  0.28161683934E+03  0.28161683934E+03  0.00000000000E+00 0. -1.
         -1   -1    0    0    0  501 -0.00000000000E+00 -0.00000000000E+00 -0.11462778035E+03  0.11462778035E+03  0.00000000000E+00 0.  1.
         23    2    1    2    0    0 -0.89398778254E+02  0.80493321600E+02  0.16326028602E+03  0.22265610331E+03  0.91926617337E+02 0.  0.
          5    1    1    2  502    0  0.33308428125E+02  0.22610521982E+02  0.33371344106E+02  0.52457660031E+02  0.41800000000E+01 0.  1.
         -5    1    1    2    0  502  0.56090350129E+02 -0.10310384358E+03 -0.29642571133E+02  0.12113085636E+03  0.41800000000E+01 0.  1.
        -11    1    3    3    0    0 -0.81304809579E+02  0.92444137919E+02  0.10247203552E+03  0.16017774115E+03  0.00000000000E+00 0.  1.
         11    1    3    3    0    0 -0.80939686752E+01 -0.11950816319E+02  0.60788250497E+02  0.62478362159E+02  0.00000000000E+00 0. -1.
</event>
<event>
 7    1  0.4687179E-006  0.6925696E+02  0.7561462E-02  0.1362638E+00
         -2   -1    0    0    0  501 -0.00000000000E+00  0.00000000000E+00  0.81724539843E+02  0.81724539843E+02  0.00000000000E+00 0.  1.
          2   -1    0    0  501    0  0.00000000000E+00 -0.00000000000E+00 -0.20917925560E+03  0.20917925560E+03  0.00000000000E+00 0. -1.
         23    2    1    2    0    0 -0.19131077437E+02  0.21268460420E+02 -0.13125526685E+03  0.16252869651E+03  0.91483805012E+02 0.  0.
          5    1    1    2  502    0 -0.10185936957E+02  0.35738124950E-01 -0.56682552546E+02  0.57742001629E+02  0.41800000000E+01 0. -1.
         -5    1    1    2    0  502  0.29317014393E+02 -0.21304198545E+02  0.60483103643E+02  0.70633097305E+02  0.41800000000E+01 0. -1.
        -11    1    3    3    0    0 -0.47098338787E+02 -0.10954920551E+02 -0.43902211794E+02  0.65312081587E+02  0.00000000000E+00 0. -1.
         11    1    3    3    0    0  0.27967261350E+02  0.32223380971E+02 -0.87353055059E+02  0.97216614922E+02  0.00000000000E+00 0.  1.
</event>
<event>
 7    1  0.4687179E-006  0.2230946E+03  0.7561462E-02  0.1131597E+00
          1   -1    0    0  501    0  0.00000000000E+00  0.00000000000E+00  0.31289691531E+03  0.31289691531E+03  0.00000000000E+00 0. -1.
         -1   -1    0    0    0  501 -0.00000000000E+00 -0.00000000000E+00 -0.18579945945E+03  0.18579945945E+03  0.00000000000E+00 0.  1.
         23    2    1    2    0    0  0.13523153426E+03 -0.14282659833E+03  0.15043143646E+03  0.26443428265E+03  0.92783984166E+02 0.  0.
          5    1    1    2  502    0 -0.68888137226E+02  0.15024791094E+03 -0.74190275449E+01  0.16550687165E+03  0.41800000000E+01 0.  1.
         -5    1    1    2    0  502 -0.66343397029E+02 -0.74213126093E+01 -0.15914953058E+02  0.68755220464E+02  0.41800000000E+01 0.  1.
        -11    1    3    3    0    0  0.14008565227E+02 -0.72445660598E+02  0.75173868318E+02  0.10533624313E+03  0.00000000000E+00 0. -1.
         11    1    3    3    0    0  0.12122296903E+03 -0.70380937734E+02  0.75257568141E+02  0.15909803952E+03  0.00000000000E+00 0.  1.
</event>
<event>
 7    1  0.4687179E-006  0.1812023E+03  0.7561462E-02  0.1166644E+00
         -2   -1    0    0    0  501 -0.00000000000E+00  0.00000000000E+00  0.39251763814E+02  0.39251763814E+02  0.00000000000E+00 0.  1.
          2   -1    0    0  501    0  0.00000000000E+00 -0.00000000000E+00 -0.11976864323E+04  0.11976864323E+04  0.00000000000E+00 0. -1.
         23    2    1    2    0    0  0.23941848201E+02  0.15492966701E+03 -0.88088598432E+03  0.89929222108E+03  0.90498440397E+02 0.  0.
          5    1    1    2  502    0  0.23817169847E+02 -0.16241518888E+01 -0.11401104482E+02  0.26783446983E+02  0.41800000000E+01 0. -1.
         -5    1    1    2    0  502 -0.47759018048E+02 -0.15330551512E+03 -0.26614757966E+03  0.31086252803E+03  0.41800000000E+01 0.  1.
        -11    1    3    3    0    0  0.44955185453E+02  0.14910767381E+03 -0.81903981625E+03  0.83371475199E+03  0.00000000000E+00 0. -1.
         11    1    3    3    0    0 -0.21013337252E+02  0.58219932005E+01 -0.61846168066E+02  0.65577469086E+02  0.00000000000E+00 0.  1.
</event>
<event>
 7    1  0.4687179E-006  0.1922159E+03  0.7561462E-02  0.1156478E+00
          1   -1    0    0  501    0  0.00000000000E+00  0.00000000000E+00  0.44073845889E+02  0.44073845889E+02  0.00000000000E+00 0. -1.
         -1   -1    0    0    0  501 -0.00000000000E+00 -0.00000000000E+00 -0.10034289219E+04  0.10034289219E+04  0.00000000000E+00 0.  1.
         23    2    1    2    0    0 -0.72158232944E+02  0.16412521712E+03 -0.47266728852E+03  0.51397031907E+03  0.92775135530E+02 0.  0.
          5    1    1    2  502    0  0.61758134979E+02 -0.31143974421E+02 -0.27249512397E+03  0.28116735118E+03  0.41800000000E+01 0. -1.
         -5    1    1    2    0  502  0.10400097966E+02 -0.13298124270E+03 -0.21419266348E+03  0.25236509750E+03  0.41800000000E+01 0. -1.
        -11    1    3    3    0    0 -0.62158268675E+01  0.45860024088E+02 -0.41923542268E+02  0.62444869360E+02  0.00000000000E+00 0. -1.
         11    1    3    3    0    0 -0.65942406077E+02  0.11826519303E+03 -0.43074374625E+03  0.45152544971E+03  0.00000000000E+00 0.  1.
</event>
<event>
 7    1  0.4687179E-006  0.1086804E+03  0.7561462E-02  0.1263033E+00
         -1   -1    0    0    0  501 -0.00000000000E+00  0.00000000000E+00  0.26880636327E+02  0.26880636327E+02  0.00000000000E+00 0.  1.
          1   -1    0    0  501    0  0.00000000000E+00 -0.00000000000E+00 -0.59325404809E+03  0.59325404809E+03  0.00000000000E+00 0. -1.
         23    2    1    2    0    0  0.49509664796E+02  0.34453283308E+02 -0.19318002745E+03  0.22194152788E+03  0.91111377754E+02 0.  0.
          5    1    1    2  502    0  0.26732656988E+02  0.17154122501E+02 -0.19462854258E+03  0.19724766375E+03  0.41800000000E+01 0.  1.
         -5    1    1    2    0  502 -0.76242321783E+02 -0.51607405809E+02 -0.17856484173E+03  0.20094549278E+03  0.41800000000E+01 0.  1.
        -11    1    3    3    0    0  0.40132134644E+02 -0.14988206331E+02 -0.33097798761E+02  0.54135929316E+02  0.00000000000E+00 0.  1.
         11    1    3    3    0    0  0.93775301512E+01  0.49441489639E+02 -0.16008222869E+03  0.16780559857E+03  0.00000000000E+00 0. -1.
</event>
<event>
 7    1  0.4687179E-006  0.2117599E+03  0.7561462E-02  0.1140180E+00
         -1   -1    0    0    0  501 -0.00000000000E+00  0.00000000000E+00  0.33543449657E+02  0.33543449657E+02  0.00000000000E+00 0.  1.
          1   -1    0    0  501    0  0.00000000000E+00 -0.00000000000E+00 -0.16754493958E+04  0.16754493958E+04  0.00000000000E+00 0. -1.
         23    2    1    2    0    0 -0.20277686270E+03 -0.56004423551E+02 -0.82474579100E+03  0.85596864935E+03  0.90673906872E+02 0.  0.
          5    1    1    2  502    0  0.41273749232E+02  0.43950767598E+01 -0.40789544417E+02  0.58344651933E+02  0.41800000000E+01 0. -1.
         -5    1    1    2    0  502  0.16150311347E+03  0.51609346791E+02 -0.77637061071E+03  0.79467954416E+03  0.41800000000E+01 0. -1.
        -11    1    3    3    0    0 -0.15544686791E+03 -0.54909288841E+02 -0.74672926270E+03  0.76471128573E+03  0.00000000000E+00 0. -1.
         11    1    3    3    0    0 -0.47329994791E+02 -0.10951347097E+01 -0.78016528299E+02  0.91257363619E+02  0.00000000000E+00 0.  1.
</event>
<event>
 7    1  0.4687179E-006  0.8073932E+02  0.7561462E-02  0.1326966E+00
          1   -1    0    0  501    0  0.00000000000E+00  0.00000000000E+00  0.40012976751E+03  0.40012976751E+03  0.00000000000E+00 0. -1.
         -1   -1    0    0    0  501 -0.00000000000E+00 -0.00000000000E+00 -0.36324653980E+02  0.36324653980E+02  0.00000000000E+00 0.  1.
         23    2    1    2    0    0  0.43034724483E+02  0.63303063694E+01  0.22545289091E+03  0.24492873400E+03  0.85258538733E+02 0.  0.
          5    1    1    2  502    0  0.97613696484E+01  0.47972667473E+01  0.13689334755E+03  0.13738835143E+03  0.41800000000E+01 0.  1.
         -5    1    1    2    0  502 -0.52796094132E+02 -0.11127573117E+02  0.14588750660E+01  0.54137336058E+02  0.41800000000E+01 0.  1.
        -11    1    3    3    0    0 -0.17171255434E+02 -0.23028834248E+02  0.66569131072E+02  0.72502609827E+02  0.00000000000E+00 0.  1.
         11    1    3    3    0    0  0.60205979917E+02  0.29359140618E+02  0.15888375984E+03  0.17242612417E+03  0.00000000000E+00 0. -1.
</event>
<event>
 7    1  0.4687179E-006  0.6212053E+02  0.7561462E-02  0.1389142E+00
          1   -1    0    0  501    0  0.00000000000E+00  0.00000000000E+00  0.15591261995E+03  0.15591261995E+03  0.00000000000E+00 0. -1.
         -1   -1    0    0    0  501 -0.00000000000E+00 -0.00000000000E+00 -0.80734772632E+02  0.80734772632E+02  0.00000000000E+00 0.  1.
         23    2    1    2    0    0  0.27231795424E+02  0.20711293496E+02  0.64224844770E+02  0.10650053263E+03  0.77762487123E+02 0.  0.
          5    1    1    2  502    0 -0.48547983391E+02 -0.15376639431E+02 -0.46129406145E+02  0.68838522957E+02  0.41800000000E+01 0.  1.
         -5    1    1    2    0  502  0.21316187967E+02 -0.53346540652E+01  0.57082408697E+02  0.61308337003E+02  0.41800000000E+01 0.  1.
        -11    1    3    3    0    0  0.40805764873E+00  0.23775544833E+02 -0.11276447367E+02  0.26317319552E+02  0.00000000000E+00 0.  1.
         11    1    3    3    0    0  0.26823737776E+02 -0.30642513373E+01  0.75501292137E+02  0.80183213074E+02  0.00000000000E+00 0. -1.
</event>
<event>
 7    1  0.4687179E-006  0.1098185E+03  0.7561462E-02  0.1260906E+00
         -2   -1    0    0    0  501 -0.00000000000E+00  0.00000000000E+00  0.34641966454E+02  0.34641966454E+02  0.00000000000E+00 0.  1.
          2   -1    0    0  501    0  0.00000000000E+00 -0.00000000000E+00 -0.44630439333E+03  0.44630439333E+03  0.00000000000E+00 0. -1.
         23    2    1    2    0    0  0.19378289374E+02 -0.34309789021E+02 -0.27072521771E+03  0.28842772524E+03  0.91354964072E+02 0.  0.
          5    1    1    2  502    0 -0.59551517713E+02  0.58846908811E+02 -0.87220010448E+02  0.12097166842E+03  0.41800000000E+01 0.  1.
         -5    1    1    2    0  502  0.40173228340E+02 -0.24537119790E+02 -0.53717198712E+02  0.71546966116E+02  0.41800000000E+01 0.  1.
        -11    1    3    3    0    0  0.49743696876E+02 -0.12874157511E+02 -0.87507456249E+02  0.10147775229E+03  0.00000000000E+00 0.  1.
         11    1    3    3    0    0 -0.30365407502E+02 -0.21435631510E+02 -0.18321776146E+03  0.18694997295E+03  0.00000000000E+00 0. -1.
</event>
<event>
 7    1  0.4687179E-006  0.9726625E+02  0.7561462E-02  0.1286152E+00
         -2   -1    0    0    0  501 -0.00000000000E+00  0.00000000000E+00  0.37716363104E+02  0.37716363104E+02  0.00000000000E+00 0.  1.
          2   -1    0    0  501    0  0.00000000000E+00 -0.00000000000E+00 -0.41371169793E+03  0.41371169793E+03  0.00000000000E+00 0. -1.
         23    2    1    2    0    0 -0.52278014320E+02 -0.30546879839E+02 -0.18383987294E+03  0.21428416555E+03  0.91948366352E+02 0.  0.
          5    1    1    2  502    0  0.28863125096E+02  0.55887873529E+02 -0.19232052602E+03  0.20238871393E+03  0.41800000000E+01 0. -1.
         -5    1    1    2    0  502  0.23414889225E+02 -0.25340993690E+02  0.16506413194E+00  0.34755181553E+02  0.41800000000E+01 0. -1.
        -11    1    3    3    0    0  0.12981281494E+02  0.12930199988E+02 -0.49756234099E+01  0.18985799148E+02  0.00000000000E+00 0.  1.
         11    1    3    3    0    0 -0.65259295815E+02 -0.43477079827E+02 -0.17886424953E+03  0.19529836640E+03  0.00000000000E+00 0. -1.
</event>
<event>
 7    1  0.4687179E-006  0.8988659E+02  0.7561462E-02  0.1303127E+00
         -1   -1    0    0    0  501 -0.00000000000E+00  0.00000000000E+00  0.41874047990E+02  0.41874047990E+02  0.00000000000E+00 0.  1.
          1   -1    0    0  501    0  0.00000000000E+00 -0.00000000000E+00 -0.33853693412E+03  0.33853693412E+03  0.00000000000E+00 0. -1.
         23    2    1    2    0    0 -0.50152087075E+02 -0.97645876370E-01 -0.14102684827E+03  0.17453324450E+03  0.89766586919E+02 0.  0.
          5    1    1    2  502    0 -0.13094032201E+01  0.53258658453E+02 -0.33665233360E+02  0.63158685660E+02  0.41800000000E+01 0.  1.
         -5    1    1    2    0  502  0.51461490295E+02 -0.53161012577E+02 -0.12197080450E+03  0.14271905196E+03  0.41800000000E+01 0.  1.
        -11    1    3    3    0    0 -0.86663543574E+01  0.56503474050E+01  0.12020047936E+02  0.15859182704E+02  0.00000000000E+00 0.  1.
         11    1    3    3    0    0 -0.41485732717E+02 -0.57479932814E+01 -0.15304689621E+03  0.15867406179E+03  0.00000000000E+00 0. -1.
</event>
<event>
 7    1  0.4687179E-006  0.1819738E+03  0.7561462E-02  0.1165906E+00
          1   -1    0    0  501    0  0.00000000000E+00  0.00000000000E+00  0.48261888531E+03  0.48261888531E+03  0.00000000000E+00 0. -1.
         -1   -1    0    0    0  501 -0.00000000000E+00 -0.00000000000E+00 -0.86388015163E+02  0.86388015163E+02  0.00000000000E+00 0.  1.
         23    2    1    2    0    0  0.10329955253E+03  0.12061326104E+03  0.28387582461E+03  0.33773054718E+03  0.90873991924E+02 0.  0.
          5    1    1    2  502    0 -0.12624216108E+02 -0.93028568622E+02  0.97205711654E+02  0.13520395035E+03  0.41800000000E+01 0.  1.
         -5    1    1    2    0  502 -0.90675336419E+02 -0.27584692415E+02  0.15149333879E+02  0.96072402943E+02  0.41800000000E+01 0.  1.
        -11    1    3    3    0    0  0.55041232628E+02  0.12118407441E+02  0.14165935260E+03  0.15245906095E+03  0.00000000000E+00 0.  1.
         11    1    3    3    0    0  0.48258319899E+02  0.10849485360E+03  0.14221647201E+03  0.18527148622E+03  0.00000000000E+00 0. -1.
</event>
<event>
 7    1  0.4687179E-006  0.1864576E+03  0.7561462E-02  0.1161696E+00
         -2   -1    0    0    0  501 -0.00000000000E+00  0.00000000000E+00  0.17670674173E+03  0.17670674173E+03  0.00000000000E+00 0.  1.
          2   -1    0    0  501    0  0.00000000000E+00 -0.00000000000E+00 -0.22477808327E+03  0.22477808327E+03  0.00000000000E+00 0. -1.
         23    2    1    2    0    0  0.51029531863E+02  0.15005725358E+03 -0.90889849597E+02  0.19508192515E+03  0.68372511188E+02 0.  0.
          5    1    1    2  502    0 -0.58001248474E+02 -0.86725305321E+01  0.24142437153E+02  0.63558534298E+02  0.41800000000E+01 0.  1.
         -5    1    1    2    0  502  0.69717166107E+01 -0.14138472305E+03  0.18676070896E+02  0.14284436555E+03  0.41800000000E+01 0.  1.
        -11    1    3    3    0    0  0.24235254770E+01  0.10857269842E+03 -0.53795610613E+02  0.12119353134E+03  0.00000000000E+00 0.  1.
         11    1    3    3    0    0  0.48606006386E+02  0.41484555162E+02 -0.37094238984E+02  0.73888393809E+02  0.00000000000E+00 0. -1.
</event>
<event>
 7    1  0.4687179E-006  0.1465225E+03  0.7561462E-02  0.1204812E+00
          2   -1    0    0  501    0  0.00000000000E+00  0.00000000000E+00  0.90476391373E+03  0.90476391373E+03  0.00000000000E+00 0. -1.
         -2   -1    0    0    0  501 -0.00000000000E+00 -0.00000000000E+00 -0.32015774977E+02  0.32015774977E+02  0.00000000000E+00 0.  1.
         23    2    1    2    0    0  0.74815419711E+02 -0.10450990525E+03  0.47321977169E+03  0.49884081454E+03  0.91572586565E+02 0.  0.
          5    1    1    2  502    0 -0.75067748753E+02  0.72772057857E+02  0.39107182771E+03  0.40482784753E+03  0.41800000000E+01 0.  1.
         -5    1    1    2    0  502  0.25232904208E+00  0.31737847392E+02  0.84565393510E+01  0.33111026635E+02  0.41800000000E+01 0.  1.
        -11    1    3    3    0    0 -0.14077438601E+02 -0.50404480131E+02  0.19124512322E+03  0.19827627959E+03  0.00000000000E+00 0.  1.
         11    1    3    3    0    0  0.88892858312E+02 -0.54105425117E+02  0.28197464847E+03  0.30056453494E+03  0.00000000000E+00 0. -1.
</event>
<event>
 6    1  0.4687179E-006  0.1168048E+03  0.7561462E-02  0.1248463E+00
          2   -1    0    0  501    0  0.00000000000E+00  0.00000000000E+00  0.73632635597E+02  0.73632635597E+02  0.00000000000E+00 0. -1.
         -2   -1    0    0    0  501 -0.00000000000E+00 -0.00000000000E+00 -0.30498467461E+03  0.30498467461E+03  0.00000000000E+00 0.  1.
          5    1    1    2  502    0 -0.34429830677E+02  0.97706529395E+01 -0.35487599523E+02  0.50573916392E+02  0.41800000000E+01 0.  1.
         -5    1    1    2    0  502  0.11067450213E+03  0.33596639452E+00 -0.99404068741E+02  0.14882069606E+03  0.41800000000E+01 0.  1.
        -11    1    1    2    0    0 -0.69218111801E+02  0.57728530900E+01 -0.12662085530E+03  0.14442061429E+03  0.00000000000E+00 0.  1.
         11    1    1    2    0    0 -0.70265596506E+01 -0.15879472424E+02  0.30160484552E+02  0.34802083464E+02  0.00000000000E+00 0. -1.
</event>
<event>
 7    1  0.4687179E-006  0.1445711E+03  0.7561462E-02  0.1207307E+00
          4   -1    0    0  501    0  0.00000000000E+00  0.00000000000E+00  0.22170554778E+03  0.22170554778E+03  0.00000000000E+00 0. -1.
         -4   -1    0    0    0  501 -0.00000000000E+00 -0.00000000000E+00 -0.10816581730E+03  0.10816581730E+03  0.00000000000E+00 0.  1.
         23    2    1    2    0    0  0.97215697948E+02 -0.49601787675E+02  0.69004090009E+02  0.15799929072E+03  0.91054830523E+02 0.  0.
          5    1    1    2  502    0 -0.11809428469E+03  0.44704059118E+02  0.46891856154E+01  0.12642853254E+03  0.41800000000E+01 0. -1.
         -5    1    1    2    0  502  0.20878586745E+02  0.48977285576E+01  0.39846454854E+02  0.45443541828E+02  0.41800000000E+01 0. -1.
        -11    1    3    3    0    0  0.26444800449E+02 -0.63538146670E+02  0.43873221890E+02  0.81616684275E+02  0.00000000000E+00 0.  1.
         11    1    3    3    0    0  0.70770897498E+02  0.13936358995E+02  0.25130868119E+02  0.76382606444E+02  0.00000000000E+00 0. -1.
</event>
<event>
 7    1  0.4687179E-006  0.5770105E+02  0.7561462E-02  0.1407741E+00
         -2   -1    0    0    0  501 -0.00000000000E+00  0.00000000000E+00  0.31697368503E+02  0.31697368503E+02  0.00000000000E+00 0.  1.
          2   -1    0    0  501    0  0.00000000000E+00 -0.00000000000E+00 -0.44739875581E+03  0.44739875581E+03  0.00000000000E+00 0. -1.
         23    2    1    2    0    0 -0.86940509046E+01  0.26799187302E+02 -0.26844556645E+03  0.28384003731E+03  0.87797276020E+02 0.  0.
          5    1    1    2  502    0  0.23219106555E+01 -0.61903619180E+01 -0.16611542377E+03  0.16629948366E+03  0.41800000000E+01 0.  1.
         -5    1    1    2    0  502  0.63721402491E+01 -0.20608825384E+02  0.18859602911E+02  0.28956603341E+02  0.41800000000E+01 0.  1.
        -11    1    3    3    0    0 -0.21743774885E+02 -0.24451677622E+02 -0.55520466119E+02  0.64445313584E+02  0.00000000000E+00 0.  1.
         11    1    3    3    0    0  0.13049723981E+02  0.51250864924E+02 -0.21292510033E+03  0.21939472373E+03  0.00000000000E+00 0. -1.
</event>
<event>
 7    1  0.4687179E-006  0.2722608E+03  0.7561462E-02  0.1099993E+00
         -1   -1    0    0    0  501 -0.00000000000E+00  0.00000000000E+00  0.52942248386E+02  0.52942248386E+02  0.00000000000E+00 0.  1.
          1   -1    0    0  501    0  0.00000000000E+00 -0.00000000000E+00 -0.14975807307E+04  0.14975807307E+04  0.00000000000E+00 0. -1.
         23    2    1    2    0    0  0.15318697698E+03 -0.20545263822E+03 -0.81675385490E+03  0.86091306212E+03  0.91691900213E+02 0.  0.
          5    1    1    2  502    0 -0.17511159717E+03  0.17732789709E+03 -0.54652233411E+03  0.60067744142E+03  0.41800000000E+01 0.  1.
         -5    1    1    2    0  502  0.21924620191E+02  0.28124741137E+02 -0.81362293271E+02  0.88932475513E+02  0.41800000000E+01 0.  1.
        -11    1    3    3    0    0  0.25921014748E+02 -0.64201575353E+02 -0.11857102732E+03  0.13730560732E+03  0.00000000000E+00 0.  1.
         11    1    3    3    0    0  0.12726596223E+03 -0.14125106287E+03 -0.69818282758E+03  0.72360745479E+03  0.00000000000E+00 0. -1.
</event>
<event>
 7    1  0.4687179E-006  0.9857219E+02  0.7561462E-02  0.1283327E+00
          1   -1    0    0  501    0  0.00000000000E+00  0.00000000000E+00  0.17877458853E+02  0.17877458853E+02  0.00000000000E+00 0. -1.
         -1   -1    0    0    0  501 -0.00000000000E+00 -0.00000000000E+00 -0.66669861216E+03  0.66669861216E+03  0.00000000000E+00 0.  1.
         23    2    1    2    0    0  0.11434462978E+02  0.13188275627E+01 -0.25326553699E+03  0.26955307515E+03  0.91558406765E+02 0.  0.
          5    1    1    2  502    0  0.47075718982E+02  0.27617095292E+02 -0.12135399103E+03  0.13312809924E+03  0.41800000000E+01 0. -1.
         -5    1    1    2    0  502 -0.58510181960E+02 -0.28935922854E+02 -0.27420162529E+03  0.28189489661E+03  0.41800000000E+01 0. -1.
        -11    1    3    3    0    0  0.43369642037E+02 -0.71592274682E+01 -0.21289225587E+03  0.21738282590E+03  0.00000000000E+00 0.  1.
         11    1    3    3    0    0 -0.31935179059E+02  0.84780550309E+01 -0.40373281117E+02  0.52170249250E+02  0.00000000000E+00 0. -1.
</event>
<event>
 7    1  0.4687179E-006  0.1551226E+03  0.7561462E-02  0.1194316E+00
          1   -1    0    0  501    0  0.00000000000E+00  0.00000000000E+00  0.23291294697E+03  0.23291294697E+03  0.00000000000E+00 0. -1.
         -1   -1    0    0    0  501 -0.00000000000E+00 -0.00000000000E+00 -0.13967146544E+03  0.13967146544E+03  0.00000000000E+00 0.  1.
         23    2    1    2    0    0 -0.97818820391E+02 -0.15876468868E+02  0.28670519871E+02  0.13837148325E+03  0.92217594749E+02 0.  0.
          5    1    1    2  502    0 -0.39331310650E+02  0.79867400544E+01  0.86109540070E+02  0.95095033021E+02  0.41800000000E+01 0. -1.
         -5    1    1    2    0  502  0.13715013104E+03  0.78897288140E+01 -0.21538578412E+02  0.13911789614E+03  0.41800000000E+01 0.  1.
        -11    1    3    3    0    0  0.14815434027E+02  0.86837065140E+01  0.14008979027E+02  0.22162024673E+02  0.00000000000E+00 0.  1.
         11    1    3    3    0    0 -0.11263425442E+03 -0.24560175382E+02  0.14661540844E+02  0.11620945858E+03  0.00000000000E+00 0. -1.
</event>
<event>
 7    1  0.4687179E-006  0.1256435E+03  0.7561462E-02  0.1234067E+00
         -4   -1    0    0    0  501 -0.00000000000E+00  0.00000000000E+00  0.54649483817E+02  0.54649483817E+02  0.00000000000E+00 0.  1.
          4   -1    0    0  501    0  0.00000000000E+00 -0.00000000000E+00 -0.36238611256E+03  0.36238611256E+03  0.00000000000E+00 0. -1.
         23    2    1    2    0    0  0.67775908464E+02  0.55015821719E+02 -0.16839099416E+03  0.21043025946E+03  0.91132062274E+02 0.  0.
          5    1    1    2  502    0 -0.72445872748E+02 -0.90786796608E+02 -0.10611436470E+03  0.15737972459E+03  0.41800000000E+01 0. -1.
         -5    1    1    2    0  502  0.46699642843E+01  0.35770974890E+02 -0.33231269888E+02  0.49225612331E+02  0.41800000000E+01 0. -1.
        -11    1    3    3    0    0  0.68590268096E+02  0.31950089438E+02 -0.52094127699E+02  0.91865288511E+02  0.00000000000E+00 0.  1.
         11    1    3    3    0    0 -0.81435963170E+00  0.23065732281E+02 -0.11629686646E+03  0.11856497095E+03  0.00000000000E+00 0. -1.
</event>
<event>
 7    1  0.4687179E-006  0.1196807E+03  0.7561462E-02  0.1243625E+00
          3   -1    0    0  501    0  0.00000000000E+00  0.00000000000E+00  0.24862662908E+02  0.24862662908E+02  0.00000000000E+00 0. -1.
         -3   -1    0    0    0  501 -0.00000000000E+00 -0.00000000000E+00 -0.74437555799E+03  0.74437555799E+03  0.00000000000E+00 0.  1.
         23    2    1    2    0    0  0.95578398993E+01 -0.76128194811E+02 -0.40271930170E+03  0.42010671757E+03  0.91760360954E+02 0.  0.
          5    1    1    2  502    0 -0.52660368404E+02  0.70861947102E+02 -0.27447186890E+03  0.28835188427E+03  0.41800000000E+01 0.  1.
         -5    1    1    2    0  502  0.43102528505E+02  0.52662477094E+01 -0.42321724488E+02  0.60779619052E+02  0.41800000000E+01 0.  1.
        -11    1    3    3    0    0 -0.32115157705E+02 -0.45239698558E+02 -0.29940045837E+03  0.30449736970E+03  0.00000000000E+00 0.  1.
         11    1    3    3    0    0  0.41672997604E+02 -0.30888496253E+02 -0.10331884333E+03  0.11560934788E+03  0.00000000000E+00 0. -1.
</event>
<event>
 7    1  0.4687179E-006  0.1182026E+03  0.7561462E-02  0.1246092E+00
          2   -1    0    0  501    0  0.00000000000E+00  0.00000000000E+00  0.34337587360E+03  0.34337587360E+03  0.00000000000E+00 0. -1.
         -2   -1    0    0    0  501 -0.00000000000E+00 -0.00000000000E+00 -0.47791190571E+02  0.47791190571E+02  0.00000000000E+00 0.  1.
         23    2    1    2    0    0 -0.66185616233E+02 -0.13816965280E+02  0.12198257579E+03  0.16673863930E+03  0.91381511877E+02 0.  0.
          5    1    1    2  502    0 -0.62785498003E+01  0.53131168936E+02  0.38287243256E+02  0.65922125999E+02  0.41800000000E+01 0. -1.
         -5    1    1    2    0  502  0.72464166033E+02 -0.39314203656E+02  0.13531486399E+03  0.15850629888E+03  0.41800000000E+01 0. -1.
        -11    1    3    3    0    0 -0.44383579212E+02  0.28390983911E+02  0.10278138276E+03  0.11549875632E+03  0.00000000000E+00 0. -1.
         11    1    3    3    0    0 -0.21802037021E+02 -0.42207949192E+02  0.19201193033E+02  0.51239882973E+02  0.00000000000E+00 0.  1.
</event>
<event>
 7    1  0.4687179E-006  0.1635571E+03  0.7561462E-02  0.1184738E+00
          2   -1    0    0  501    0  0.00000000000E+00  0.00000000000E+00  0.62576794249E+02  0.62576794249E+02  0.00000000000E+00 0. -1.
         -2   -1    0    0    0  501 -0.00000000000E+00 -0.00000000000E+00 -0.49707342247E+03  0.49707342247E+03  0.00000000000E+00 0.  1.
         23    2    1    2    0    0  0.41099156910E+02 -0.13172200888E+03 -0.18232136673E+03  0.24615420044E+03  0.91164583604E+02 0.  0.
          5    1    1    2  502    0 -0.54918444146E+02  0.14082340396E+03 -0.25473902195E+03  0.29623758762E+03  0.41800000000E+01 0. -1.
         -5    1    1    2    0  502  0.13819287236E+02 -0.91013950875E+01  0.25637604666E+01  0.17258428665E+02  0.41800000000E+01 0. -1.
        -11    1    3    3    0    0  0.64631198356E+02 -0.88004344211E+02 -0.15466269456E+03  0.18932117021E+03  0.00000000000E+00 0.  1.
         11    1    3    3    0    0 -0.23532041446E+02 -0.43717664666E+02 -0.27658672176E+02  0.56833030229E+02  0.00000000000E+00 0. -1.
</event>
<event>
 7    1  0.4687179E-006  0.9810557E+02  0.7561462E-02  0.1284331E+00
         -2   -1    0    0    0  501 -0.00000000000E+00  0.00000000000E+00  0.61551920405E+02  0.61551920405E+02  0.00000000000E+00 0.  1.
          2   -1    0    0  501    0  0.00000000000E+00 -0.00000000000E+00 -0.28238904175E+03  0.28238904175E+03  0.00000000000E+00 0. -1.
         23    2    1    2    0    0 -0.60854105015E+01 -0.94109042142E+01 -0.19967826629E+03  0.21657804310E+03  0.83120643567E+02 0.  0.
          5    1    1    2  502    0  0.20399088097E+02 -0.52521262390E+02 -0.28428229593E+02  0.63247469799E+02  0.41800000000E+01 0. -1.
         -5    1    1    2    0  502 -0.14313677595E+02  0.61932166604E+02  0.72693745379E+01  0.64115449252E+02  0.41800000000E+01 0. -1.
        -11    1    3    3    0    0  0.32535700475E+02  0.82161931598E+01 -0.13575921960E+03  0.13984506907E+03  0.00000000000E+00 0. -1.
         11    1    3    3    0    0 -0.38621110977E+02 -0.17627097374E+02 -0.63919046682E+02  0.76732974031E+02  0.00000000000E+00 0.  1.
</event>
<event>
 7    1  0.4687179E-006  0.1750869E+03  0.7561462E-02  0.1172644E+00
          1   -1    0    0  501    0  0.00000000000E+00  0.00000000000E+00  0.61297658915E+03  0.61297658915E+03  0.00000000000E+00 0.  1.
         -1   -1    0    0    0  501 -0.00000000000E+00 -0.00000000000E+00 -0.56889250170E+02  0.56889250170E+02  0.00000000000E+00 0. -1.
         23    2    1    2    0    0  0.92655616597E+02 -0.11812515365E+03  0.30293650010E+03  0.35005936777E+03  0.90732698922E+02 0.  0.
          5    1    1    2  502    0 -0.84658738401E+02  0.35725380379E+02  0.60545273071E+02  0.11012087578E+03  0.41800000000E+01 0. -1.
         -5    1    1    2    0  502 -0.79968781959E+01  0.82399773274E+02  0.19260556581E+03  0.20968559578E+03  0.41800000000E+01 0. -1.
        -11    1    3    3    0    0 -0.86910563375E+01 -0.55472944908E+02  0.10310405484E+03  0.11740199403E+03  0.00000000000E+00 0. -1.
         11    1    3    3    0    0  0.10134667293E+03 -0.62652208746E+02  0.19983244526E+03  0.23265737374E+03  0.00000000000E+00 0.  1.
</event>
<event>
 7    1  0.4687179E-006  0.8410912E+02  0.7561462E-02  0.1317779E+00
         -1   -1    0    0    0  501 -0.00000000000E+00  0.00000000000E+00  0.42606153808E+03  0.42606153808E+03  0.00000000000E+00 0.  1.
          1   -1    0    0  501    0  0.00000000000E+00 -0.00000000000E+00 -0.38644337570E+02  0.38644337570E+02  0.00000000000E+00 0. -1.
         23    2    1    2    0    0  0.13415221857E+02 -0.47154937578E+02  0.81793976974E+02  0.13085528715E+03  0.89606334540E+02 0.  0.
          5    1    1    2  502    0  0.14713315662E+02  0.31858933077E+02  0.10360934511E+02  0.36827905704E+02  0.41800000000E+01 0. -1.
         -5    1    1    2    0  502 -0.28128537519E+02  0.15296004501E+02  0.29526228903E+03  0.29702268280E+03  0.41800000000E+01 0. -1.
        -11    1    3    3    0    0  0.20186931228E+02 -0.72031048875E+02  0.70201137727E+02  0.10258744530E+03  0.00000000000E+00 0. -1.
         11    1    3    3    0    0 -0.67717093716E+01  0.24876111297E+02  0.11592839247E+02  0.28267841850E+02  0.00000000000E+00 0.  1.
</event>
<event>
 7    1  0.4687179E-006  0.1065298E+03  0.7561462E-02  0.1267134E+00
         -1   -1    0    0    0  501 -0.00000000000E+00  0.00000000000E+00  0.78258570488E+02  0.78258570488E+02  0.00000000000E+00 0.  1.
          1   -1    0    0  501    0  0.00000000000E+00 -0.00000000000E+00 -0.17953297180E+03  0.17953297180E+03  0.00000000000E+00 0. -1.
         23    2    1    2    0    0 -0.31552265760E+02  0.36160983521E+02 -0.36718552412E+02  0.10906904524E+03  0.90800012857E+02 0.  0.
          5    1    1    2  502    0 -0.32867502142E+01 -0.69937716378E+02 -0.29658114314E+01  0.70202245951E+02  0.41800000000E+01 0. -1.
         -5    1    1    2    0  502  0.34839015974E+02  0.33776732857E+02 -0.61590037465E+02  0.78520251091E+02  0.41800000000E+01 0. -1.
        -11    1    3    3    0    0 -0.24222301964E+02  0.62418950881E+02 -0.44888764662E+02  0.80609221150E+02  0.00000000000E+00 0. -1.
         11    1    3    3    0    0 -0.73299637962E+01 -0.26257967360E+02  0.81702122496E+01  0.28459824092E+02  0.00000000000E+00 0.  1.
</event>
<event>
 7    1  0.4687179E-006  0.1308076E+03  0.7561462E-02  0.1226262E+00
          1   -1    0    0  501    0  0.00000000000E+00  0.00000000000E+00  0.41437509271E+03  0.41437509271E+03  0.00000000000E+00 0. -1.
         -1   -1    0    0    0  501 -0.00000000000E+00 -0.00000000000E+00 -0.60675410963E+02  0.60675410963E+02  0.00000000000E+00 0.  1.
         23    2    1    2    0    0  0.31809613634E+02  0.81568912240E+02  0.29629254504E+03  0.32249765720E+03  0.92466900513E+02 0.  0.
          5    1    1    2  502    0 -0.56611923009E+02 -0.68729512407E+01  0.39487788017E+01  0.57316773632E+02  0.41800000000E+01 0.  1.
         -5    1    1    2    0  502  0.24802309375E+02 -0.74695961000E+02  0.53458357905E+02  0.95236072840E+02  0.41800000000E+01 0. -1.
        -11    1    3    3    0    0  0.86626508930E+01 -0.19814593915E+02  0.33460645953E+02  0.39840613450E+02  0.00000000000E+00 0.  1.
         11    1    3    3    0    0  0.23146962741E+02  0.10138350616E+03  0.26283189909E+03  0.28265704375E+03  0.00000000000E+00 0. -1.
</event>
<event>
 7    1  0.4687179E-006  0.9449449E+02  0.7561462E-02  0.1292319E+00
         -1   -1    0    0    0  501 -0.00000000000E+00  0.00000000000E+00  0.28026382139E+03  0.28026382139E+03  0.00000000000E+00 0.  1.
          1   -1    0    0  501    0  0.00000000000E+00 -0.00000000000E+00 -0.54953314934E+02  0.54953314934E+02  0.00000000000E+00 0. -1.
         23    2    1    2    0    0  0.13110257145E+02  0.13955092295E+02  0.22163516661E+02  0.95877012158E+02  0.91293792484E+02 0.  0.
          5    1    1    2  502    0 -0.14709468552E+02 -0.58960398111E+02  0.47463267297E+02  0.77220017826E+02  0.41800000000E+01 0. -1.
         -5    1    1    2    0  502  0.15992114063E+01  0.45005305816E+02  0.15568372250E+03  0.16212010634E+03  0.41800000000E+01 0. -1.
        -11    1    3    3    0    0  0.20221183544E+02  0.45882515027E+02 -0.87174950531E+01  0.50892987426E+02  0.00000000000E+00 0.  1.
         11    1    3    3    0    0 -0.71109263986E+01 -0.31927422732E+02  0.30881011715E+02  0.44984024732E+02  0.00000000000E+00 0. -1.
</event>
<event>
 7    1  0.4687179E-006  0.1765333E+03  0.7561462E-02  0.1171201E+00
          2   -1    0    0  501    0  0.00000000000E+00  0.00000000000E+00  0.16446660830E+03  0.16446660830E+03  0.00000000000E+00 0.  1.
         -2   -1    0    0    0  501 -0.00000000000E+00 -0.00000000000E+00 -0.23184254471E+03  0.23184254471E+03  0.00000000000E+00 0. -1.
         23    2    1    2    0    0  0.65578947237E+02 -0.13968108222E+03  0.10670486098E+02  0.18288532397E+03  0.97579605453E+02 0.  0.
          5    1    1    2  502    0 -0.91138303961E+02  0.14557503519E+03 -0.71372775340E+02  0.18603716505E+03  0.41800000000E+01 0.  1.
         -5    1    1    2    0  502  0.25559356723E+02 -0.58939529735E+01 -0.66736471742E+01  0.27386663988E+02  0.41800000000E+01 0.  1.
        -11    1    3    3    0    0  0.18546378509E+02 -0.28733676679E+02  0.45989216614E+02  0.57311433205E+02  0.00000000000E+00 0.  1.
         11    1    3    3    0    0  0.47032568729E+02 -0.11094740554E+03 -0.35318730516E+02  0.12557389077E+03  0.00000000000E+00 0. -1.
</event>
<event>
 7    1  0.4687179E-006  0.3186131E+03  0.7561462E-02  0.1076289E+00
         -1   -1    0    0    0  501 -0.00000000000E+00  0.00000000000E+00  0.11591288494E+03  0.11591288494E+03  0.00000000000E+00 0.  1.
          1   -1    0    0  501    0  0.00000000000E+00 -0.00000000000E+00 -0.95688161912E+03  0.95688161912E+03  0.00000000000E+00 0. -1.
         23    2    1    2    0    0  0.20129528654E+03 -0.22837548110E+03 -0.54149605941E+03  0.62781515956E+03  0.90877607050E+02 0.  0.
          5    1    1    2  502    0 -0.75861800416E+02  0.91971368305E+01 -0.67314185611E+02  0.10192287316E+03  0.41800000000E+01 0.  1.
         -5    1    1    2    0  502 -0.12543348613E+03  0.21917834427E+03 -0.23215848915E+03  0.34305647133E+03  0.41800000000E+01 0.  1.
        -11    1    3    3    0    0  0.15845643147E+03 -0.20570617899E+03 -0.38817046578E+03  0.46701154510E+03  0.00000000000E+00 0.  1.
         11    1    3    3    0    0  0.42838855069E+02 -0.22669302110E+02 -0.15332559363E+03  0.16080361447E+03  0.00000000000E+00 0. -1.
</event>
<event>
 7    1  0.7618047E-006  0.1400318E+03  0.7561462E-02  0.1213286E+00
          2   -1    0    0  501    0  0.00000000000E+00  0.00000000000E+00  0.79062328772E+03  0.79062328772E+03  0.00000000000E+00 0. -1.
         -2   -1    0    0    0  501 -0.00000000000E+00 -0.00000000000E+00 -0.29678740149E+02  0.29678740149E+02  0.00000000000E+00 0.  1.
         23    2    1    2    0    0 -0.10444248663E+03  0.20711764484E+02  0.37306432580E+03  0.39907057255E+03  0.93504654922E+02 0.  0.
          5    1    1    2  502    0 -0.20310784814E+02  0.17722276348E+02  0.31481646741E+02  0.41655414297E+02  0.41800000000E+01 0. -1.
         -5    1    1    2    0  502  0.12475327145E+03 -0.38434040832E+02  0.35639857504E+03  0.37957604103E+03  0.41800000000E+01 0. -1.
        -11    1    3    3    0    0 -0.64706113831E+02 -0.17521343759E+02  0.99312190500E+02  0.11981982238E+03  0.00000000000E+00 0.  1.
         11    1    3    3    0    0 -0.39736372801E+02  0.38233108243E+02  0.27375213530E+03  0.27925075017E+03  0.00000000000E+00 0. -1.
</event>
<event>
 7    1  0.4687179E-006  0.1731634E+03  0.7561462E-02  0.1174589E+00
         -1   -1    0    0    0  501 -0.00000000000E+00  0.00000000000E+00  0.40448683078E+02  0.40448683078E+02  0.00000000000E+00 0.  1.
          1   -1    0    0  501    0  0.00000000000E+00 -0.00000000000E+00 -0.82469264633E+03  0.82469264633E+03  0.00000000000E+00 0. -1.
         23    2    1    2    0    0  0.57986651437E+02  0.13452619443E+03 -0.36553766454E+03  0.40424786653E+03  0.91317055701E+02 0.  0.
          5    1    1    2  502    0  0.39281005950E+02 -0.28926288014E+02 -0.11067406557E+03  0.12102044768E+03  0.41800000000E+01 0. -1.
         -5    1    1    2    0  502 -0.97267657387E+02 -0.10559990641E+03 -0.30803223314E+03  0.33987301520E+03  0.41800000000E+01 0. -1.
        -11    1    3    3    0    0  0.46104933056E+02  0.48595611722E+02 -0.25546092646E+03  0.26409748821E+03  0.00000000000E+00 0. -1.
         11    1    3    3    0    0  0.11881718381E+02  0.85930582707E+02 -0.11007673808E+03  0.14015037831E+03  0.00000000000E+00 0.  1.
</event>
<event>
 7    1  0.4687179E-006  0.3762733E+03  0.7561462E-02  0.1052320E+00
          1   -1    0    0  501    0  0.00000000000E+00  0.00000000000E+00  0.52388394012E+03  0.52388394012E+03  0.00000000000E+00 0. -1.
         -1   -1    0    0    0  501 -0.00000000000E+00 -0.00000000000E+00 -0.38908196189E+03  0.38908196189E+03  0.00000000000E+00 0.  1.
         23    2    1    2    0    0 -0.15271022122E+03 -0.33512339071E+03  0.30701025603E+03  0.48759005672E+03  0.88660405136E+02 0.  0.
          5    1    1    2  502    0  0.70798093482E+02  0.22928480094E+03 -0.16506539111E+03  0.29128670708E+03  0.41800000000E+01 0.  1.
         -5    1    1    2    0  502  0.81912127740E+02  0.10583858977E+03 -0.71428866957E+01  0.13408913821E+03  0.41800000000E+01 0.  1.
        -11    1    3    3    0    0  0.22689570167E+01 -0.80728023146E+02  0.59855419238E+02  0.10052279890E+03  0.00000000000E+00 0.  1.
         11    1    3    3    0    0 -0.15497917824E+03 -0.25439536756E+03  0.24715483679E+03  0.38706725782E+03  0.00000000000E+00 0. -1.
</event>
<event>
 7    1  0.4687179E-006  0.9964652E+02  0.7561462E-02  0.1281041E+00
          1   -1    0    0  501    0  0.00000000000E+00  0.00000000000E+00  0.23323961834E+02  0.23323961834E+02  0.00000000000E+00 0. -1.
         -1   -1    0    0    0  501 -0.00000000000E+00 -0.00000000000E+00 -0.68133539152E+03  0.68133539152E+03  0.00000000000E+00 0.  1.
         23    2    1    2    0    0  0.78415932536E+01  0.12975465031E+01 -0.11914695468E+03  0.15140914015E+03  0.93088971952E+02 0.  0.
          5    1    1    2  502    0  0.46805247143E+01  0.52169606477E+02 -0.12298230089E+03  0.13373740645E+03  0.41800000000E+01 0. -1.
         -5    1    1    2    0  502 -0.12522117968E+02 -0.53467152980E+02 -0.41588217411E+03  0.41951280676E+03  0.41800000000E+01 0. -1.
        -11    1    3    3    0    0  0.46928264617E+02  0.16487141735E+02 -0.79003113311E+02  0.93357269537E+02  0.00000000000E+00 0. -1.
         11    1    3    3    0    0 -0.39086671363E+02 -0.15189595232E+02 -0.40143841371E+02  0.58051870612E+02  0.00000000000E+00 0.  1.
</event>
<event>
 7    1  0.4687179E-006  0.1068565E+03  0.7561462E-02  0.1266504E+00
         -1   -1    0    0    0  501 -0.00000000000E+00  0.00000000000E+00  0.32972276962E+02  0.32972276962E+02  0.00000000000E+00 0.  1.
          1   -1    0    0  501    0  0.00000000000E+00 -0.00000000000E+00 -0.45702727507E+03  0.45702727507E+03  0.00000000000E+00 0. -1.
         23    2    1    2    0    0 -0.96362680298E+01  0.38253713943E+02 -0.25017684777E+03  0.27220342589E+03  0.99749915337E+02 0.  0.
          5    1    1    2  502    0 -0.27518464682E+02  0.30012331029E+02 -0.10912077058E+03  0.11654535977E+03  0.41800000000E+01 0.  1.
         -5    1    1    2    0  502  0.37154732712E+02 -0.68266044971E+02 -0.64757379751E+02  0.10125076637E+03  0.41800000000E+01 0.  1.
        -11    1    3    3    0    0 -0.29794974078E+02 -0.18259495382E+02 -0.37645017859E+02  0.51364355554E+02  0.00000000000E+00 0.  1.
         11    1    3    3    0    0  0.20158706048E+02  0.56513209325E+02 -0.21253182992E+03  0.22083907033E+03  0.00000000000E+00 0. -1.
</event>
<event>
 7    1  0.4687179E-006  0.1084390E+03  0.7561462E-02  0.1263488E+00
          1   -1    0    0  501    0  0.00000000000E+00  0.00000000000E+00  0.66906430788E+02  0.66906430788E+02  0.00000000000E+00 0. -1.
         -1   -1    0    0    0  501 -0.00000000000E+00 -0.00000000000E+00 -0.33897155084E+03  0.33897155084E+03  0.00000000000E+00 0.  1.
         23    2    1    2    0    0  0.35142690205E+02 -0.17885625878E+02  0.53208674006E+01  0.99092543716E+02  0.90753051201E+02 0.  0.
          5    1    1    2  502    0 -0.56286424709E+02 -0.39924863509E+02 -0.13771195170E+03  0.15409156490E+03  0.41800000000E+01 0.  1.
         -5    1    1    2    0  502  0.21143734504E+02  0.57810489386E+02 -0.13967403575E+03  0.15269387301E+03  0.41800000000E+01 0.  1.
        -11    1    3    3    0    0  0.25090595210E+02 -0.48073975050E+02 -0.20644554343E+02  0.58024500594E+02  0.00000000000E+00 0.  1.
         11    1    3    3    0    0  0.10052094995E+02  0.30188349173E+02  0.25965421743E+02  0.41068043122E+02  0.00000000000E+00 0. -1.
</event>
<event>
 7    1  0.4687179E-006  0.8501831E+02  0.7561462E-02  0.1315385E+00
         -1   -1    0    0    0  501 -0.00000000000E+00  0.00000000000E+00  0.23785372613E+03  0.23785372613E+03  0.00000000000E+00 0.  1.
          1   -1    0    0  501    0  0.00000000000E+00 -0.00000000000E+00 -0.67131253309E+02  0.67131253309E+02  0.00000000000E+00 0. -1.
         23    2    1    2    0    0  0.34312561965E+02 -0.51657774721E+02  0.56345565767E+02  0.12449801000E+03  0.92081779488E+02 0.  0.
          5    1    1    2  502    0 -0.16164117163E+02  0.26935255640E+01  0.12574843460E+03  0.12688055394E+03  0.41800000000E+01 0. -1.
         -5    1    1    2    0  502 -0.18148444802E+02  0.48964249157E+02 -0.11371527548E+02  0.53606415502E+02  0.41800000000E+01 0. -1.
        -11    1    3    3    0    0 -0.25877408268E+02 -0.11090809615E+02  0.41915344122E+02  0.50492993469E+02  0.00000000000E+00 0.  1.
         11    1    3    3    0    0  0.60189970232E+02 -0.40566965106E+02  0.14430221645E+02  0.74005016527E+02  0.00000000000E+00 0. -1.
</event>
<event>
 7    1  0.4687179E-006  0.9994045E+02  0.7561462E-02  0.1280421E+00
         -1   -1    0    0    0  501 -0.00000000000E+00  0.00000000000E+00  0.16514823777E+03  0.16514823777E+03  0.00000000000E+00 0.  1.
          1   -1    0    0  501    0  0.00000000000E+00 -0.00000000000E+00 -0.10596364889E+03  0.10596364889E+03  0.00000000000E+00 0. -1.
         23    2    1    2    0    0 -0.43991367313E+02 -0.83276047663E+01 -0.16017377206E+02  0.11844593968E+03  0.10848177200E+03 0.  0.
          5    1    1    2  502    0  0.39590432350E+02  0.38485298183E+02  0.99228741833E+02  0.11363246066E+03  0.41800000000E+01 0.  1.
         -5    1    1    2    0  502  0.44009349628E+01 -0.30157693416E+02 -0.24026775755E+02  0.39033486315E+02  0.41800000000E+01 0.  1.
        -11    1    3    3    0    0 -0.64788436263E+02  0.29026672405E+02  0.42727813818E+01  0.71122048937E+02  0.00000000000E+00 0.  1.
         11    1    3    3    0    0  0.20797068950E+02 -0.37354277171E+02 -0.20290158588E+02  0.47323890747E+02  0.00000000000E+00 0. -1.
</event>
<event>
 7    1  0.4687179E-006  0.1905770E+03  0.7561462E-02  0.1157942E+00
          1   -1    0    0  501    0  0.00000000000E+00  0.00000000000E+00  0.32735584205E+02  0.32735584205E+02  0.00000000000E+00 0. -1.
         -1   -1    0    0    0  501 -0.00000000000E+00 -0.00000000000E+00 -0.15739144639E+04  0.15739144639E+04  0.00000000000E+00 0.  1.
         23    2    1    2    0    0  0.68313403428E+02 -0.14657740742E+03 -0.33470321196E+03  0.38297454314E+03  0.92149894952E+02 0.  0.
          5    1    1    2  502    0 -0.70689317797E+02  0.16499566904E+02 -0.50763165867E+03  0.51281243028E+03  0.41800000000E+01 0.  1.
         -5    1    1    2    0  502  0.23759143685E+01  0.13007784052E+03 -0.69884400905E+03  0.71086307468E+03  0.41800000000E+01 0.  1.
        -11    1    3    3    0    0  0.41156235435E+02 -0.14808366247E+02 -0.13718546415E+03  0.14398949615E+03  0.00000000000E+00 0.  1.
         11    1    3    3    0    0  0.27157167993E+02 -0.13176904117E+03 -0.19751774781E+03  0.23898504699E+03  0.00000000000E+00 0. -1.
</event>
<event>
 7    1  0.4687179E-006  0.1373279E+03  0.7561462E-02  0.1216970E+00
         -1   -1    0    0    0  501 -0.00000000000E+00  0.00000000000E+00  0.60739997921E+03  0.60739997921E+03  0.00000000000E+00 0.  1.
          1   -1    0    0  501    0  0.00000000000E+00 -0.00000000000E+00 -0.41614877207E+02  0.41614877207E+02  0.00000000000E+00 0. -1.
         23    2    1    2    0    0  0.10056345947E+03 -0.63848276242E+01  0.15554862150E+03  0.20845275396E+03  0.95411747605E+02 0.  0.
          5    1    1    2  502    0  0.12493424764E+02  0.38329538923E+02  0.74077848740E+02  0.84440744255E+02  0.41800000000E+01 0. -1.
         -5    1    1    2    0  502 -0.11305688424E+03 -0.31944711298E+02  0.33615863177E+03  0.35612135820E+03  0.41800000000E+01 0. -1.
        -11    1    3    3    0    0  0.32018682513E+02  0.25536214514E+02  0.11621637803E+03  0.12322151113E+03  0.00000000000E+00 0.  1.
         11    1    3    3    0    0  0.68544776959E+02 -0.31921042138E+02  0.39332243463E+02  0.85231242836E+02  0.00000000000E+00 0. -1.
</event>
<event>
 7    1  0.4687179E-006  0.1647005E+03  0.7561462E-02  0.1183490E+00
         -1   -1    0    0    0  501 -0.00000000000E+00  0.00000000000E+00  0.12353421631E+04  0.12353421631E+04  0.00000000000E+00 0.  1.
          1   -1    0    0  501    0  0.00000000000E+00 -0.00000000000E+00 -0.22888787197E+02  0.22888787197E+02  0.00000000000E+00 0. -1.
         23    2    1    2    0    0  0.10249177052E+03  0.74412268480E+02  0.62987877909E+03  0.64906564847E+03  0.92180209104E+02 0.  0.
          5    1    1    2  502    0  0.14040121069E+02 -0.52619403903E+02  0.12401895494E+03  0.13551420682E+03  0.41800000000E+01 0.  1.
         -5    1    1    2    0  502 -0.11653189159E+03 -0.21792864577E+02  0.45855564186E+03  0.47365109499E+03  0.41800000000E+01 0.  1.
        -11    1    3    3    0    0 -0.41705869164E+00 -0.17902715551E+02  0.90255662065E+02  0.92015029734E+02  0.00000000000E+00 0.  1.
         11    1    3    3    0    0  0.10290882921E+03  0.92314984031E+02  0.53962311702E+03  0.55705061873E+03  0.00000000000E+00 0. -1.
</event>
<event>
 7    1  0.4687179E-006  0.7837786E+02  0.7561462E-02  0.1333719E+00
         -1   -1    0    0    0  501 -0.00000000000E+00  0.00000000000E+00  0.14947250496E+03  0.14947250496E+03  0.00000000000E+00 0.  1.
          1   -1    0    0  501    0  0.00000000000E+00 -0.00000000000E+00 -0.15994092063E+03  0.15994092063E+03  0.00000000000E+00 0. -1.
         23    2    1    2    0    0  0.22119007389E+02  0.19278797270E+02 -0.91454551503E+02  0.13204781741E+03  0.90618809196E+02 0.  0.
          5    1    1    2  502    0 -0.20259901484E+01 -0.35662296971E+02 -0.39867556737E+02  0.53691699000E+02  0.41800000000E+01 0. -1.
         -5    1    1    2    0  502 -0.20093017240E+02  0.16383499700E+02  0.12085369257E+03  0.12367390918E+03  0.41800000000E+01 0.  1.
        -11    1    3    3    0    0 -0.15752224902E+02 -0.29101631459E+02 -0.24489672026E+02  0.41167724966E+02  0.00000000000E+00 0. -1.
         11    1    3    3    0    0  0.37871232291E+02  0.48380428729E+02 -0.66964879477E+02  0.90880092444E+02  0.00000000000E+00 0.  1.
</event>
<event>
 7    1  0.4687179E-006  0.9236652E+02  0.7561462E-02  0.1297220E+00
          2   -1    0    0  501    0  0.00000000000E+00  0.00000000000E+00  0.42516856424E+03  0.42516856424E+03  0.00000000000E+00 0. -1.
         -2   -1    0    0    0  501 -0.00000000000E+00 -0.00000000000E+00 -0.49604842851E+02  0.49604842851E+02  0.00000000000E+00 0.  1.
         23    2    1    2    0    0  0.20028612159E+02 -0.50876481614E+02  0.30209289813E+03  0.31974509730E+03  0.89371396212E+02 0.  0.
          5    1    1    2  502    0  0.28898941280E+02  0.78773763602E+01 -0.23386470520E+02  0.38230894167E+02  0.41800000000E+01 0. -1.
         -5    1    1    2    0  502 -0.48927553438E+02  0.42999105254E+02  0.96857293783E+02  0.11679741563E+03  0.41800000000E+01 0. -1.
        -11    1    3    3    0    0  0.41177293185E+02 -0.87723591307E+01  0.61171174332E+02  0.74259250790E+02  0.00000000000E+00 0.  1.
         11    1    3    3    0    0 -0.21148681026E+02 -0.42104122484E+02  0.24092172379E+03  0.24548584651E+03  0.00000000000E+00 0. -1.
</event>
<event>
 7    1  0.4687179E-006  0.1393723E+03  0.7561462E-02  0.1214176E+00
          1   -1    0    0  501    0  0.00000000000E+00  0.00000000000E+00  0.26947752564E+03  0.26947752564E+03  0.00000000000E+00 0. -1.
         -1   -1    0    0    0  501 -0.00000000000E+00 -0.00000000000E+00 -0.10522013225E+03  0.10522013225E+03  0.00000000000E+00 0.  1.
         23    2    1    2    0    0  0.86211745036E+02  0.75720021140E+02  0.14160521268E+03  0.20344534854E+03  0.90399043139E+02 0.  0.
          5    1    1    2  502    0  0.15945159437E+02 -0.84127781788E+01  0.43323713185E+02  0.47110927292E+02  0.41800000000E+01 0.  1.
         -5    1    1    2    0  502 -0.10215690447E+03 -0.67307242961E+02 -0.20671532477E+02  0.12414138207E+03  0.41800000000E+01 0.  1.
        -11    1    3    3    0    0 -0.15099275856E+01  0.44789288818E+02  0.80564202969E+02  0.92189755798E+02  0.00000000000E+00 0. -1.
         11    1    3    3    0    0  0.87721672621E+02  0.30930732322E+02  0.61041009709E+02  0.11125559274E+03  0.00000000000E+00 0.  1.
</event>
<event>
 7    1  0.4687179E-006  0.1435758E+03  0.7561462E-02  0.1208597E+00
          1   -1    0    0  501    0  0.00000000000E+00  0.00000000000E+00  0.41447294171E+03  0.41447294171E+03  0.00000000000E+00 0. -1.
         -1   -1    0    0    0  501 -0.00000000000E+00 -0.00000000000E+00 -0.86083021250E+02  0.86083021250E+02  0.00000000000E+00 0.  1.
         23    2    1    2    0    0 -0.10833954454E+03 -0.18304104604E+02  0.29921931096E+03  0.33152624621E+03  0.91131546233E+02 0.  0.
          5    1    1    2  502    0  0.95965934834E+02  0.62903841322E+02  0.39495732889E+02  0.12142380005E+03  0.41800000000E+01 0.  1.
         -5    1    1    2    0  502  0.12373609707E+02 -0.44599736718E+02 -0.10325123384E+02  0.47605916706E+02  0.41800000000E+01 0.  1.
        -11    1    3    3    0    0 -0.35910779501E+02  0.22840004787E+02  0.18692884635E+03  0.19171239788E+03  0.00000000000E+00 0.  1.
         11    1    3    3    0    0 -0.72428765040E+02 -0.41144109390E+02  0.11229046460E+03  0.13981384832E+03  0.00000000000E+00 0. -1.
</event>
<event>
 7    1  0.4687179E-006  0.1222082E+03  0.7561462E-02  0.1239498E+00
          2   -1    0    0  501    0  0.00000000000E+00  0.00000000000E+00  0.52991808764E+03  0.52991808764E+03  0.00000000000E+00 0. -1.
         -2   -1    0    0    0  501 -0.00000000000E+00 -0.00000000000E+00 -0.28986329426E+02  0.28986329426E+02  0.00000000000E+00 0.  1.
         23    2    1    2    0    0 -0.62470416759E+02  0.14867223473E+02  0.23692404765E+03  0.25978924589E+03  0.85052105316E+02 0.  0.
          5    1    1    2  502    0  0.94442904374E+02  0.13504622720E+02  0.15635246649E+03  0.18320863298E+03  0.41800000000E+01 0. -1.
         -5    1    1    2    0  502 -0.31972487615E+02 -0.28371846192E+02  0.10765524407E+03  0.11590653820E+03  0.41800000000E+01 0. -1.
        -11    1    3    3    0    0  0.15744895372E+02 -0.15475505890E+02  0.61342572520E+02  0.65194357242E+02  0.00000000000E+00 0.  1.
         11    1    3    3    0    0 -0.78215312132E+02  0.30342729363E+02  0.17558147513E+03  0.19459488865E+03  0.00000000000E+00 0. -1.
</event>
<event>
 7    1  0.4687179E-006  0.1330304E+03  0.7561462E-02  0.1223027E+00
         -1   -1    0    0    0  501 -0.00000000000E+00  0.00000000000E+00  0.43933805154E+02  0.43933805154E+02  0.00000000000E+00 0.  1.
          1   -1    0    0  501    0  0.00000000000E+00 -0.00000000000E+00 -0.58739493263E+03  0.58739493263E+03  0.00000000000E+00 0. -1.
         23    2    1    2    0    0 -0.95398212567E+02 -0.71357813949E+01 -0.39147659534E+03  0.41247090061E+03  0.87900971616E+02 0.  0.
          5    1    1    2  502    0  0.13369534439E+01 -0.33777318415E+02 -0.96133896396E+02  0.10198967163E+03  0.41800000000E+01 0.  1.
         -5    1    1    2    0  502  0.94061259123E+02  0.40913099810E+02 -0.55850635732E+02  0.11686816553E+03  0.41800000000E+01 0.  1.
        -11    1    3    3    0    0 -0.81344546646E+02 -0.42146250164E+02 -0.25891655767E+03  0.27464709266E+03  0.00000000000E+00 0. -1.
         11    1    3    3    0    0 -0.14053665920E+02  0.35010468769E+02 -0.13256003767E+03  0.13782380795E+03  0.00000000000E+00 0.  1.
</event>
<event>
 7    1  0.4687179E-006  0.1425121E+03  0.7561462E-02  0.1209988E+00
          1   -1    0    0  501    0  0.00000000000E+00  0.00000000000E+00  0.13140817207E+03  0.13140817207E+03  0.00000000000E+00 0. -1.
         -1   -1    0    0    0  501 -0.00000000000E+00 -0.00000000000E+00 -0.25088422179E+03  0.25088422179E+03  0.00000000000E+00 0.  1.
         23    2    1    2    0    0 -0.12004349106E+03 -0.19682761949E+02  0.26357928861E+02  0.15488660030E+03  0.92180625280E+02 0.  0.
          5    1    1    2  502    0  0.78432036943E+01 -0.13341502752E+02  0.19246589431E+02  0.25048256319E+02  0.41800000000E+01 0.  1.
         -5    1    1    2    0  502  0.11220028736E+03  0.33024264702E+02 -0.16508056801E+03  0.20235753724E+03  0.41800000000E+01 0.  1.
        -11    1    3    3    0    0 -0.11323583680E+03  0.17128383788E+02  0.13559206055E+02  0.11532384114E+03  0.00000000000E+00 0. -1.
         11    1    3    3    0    0 -0.68076542562E+01 -0.36811145738E+02  0.12798722806E+02  0.39562759161E+02  0.00000000000E+00 0.  1.
</event>
<event>
 7    1  0.4687179E-006  0.1200529E+03  0.7561462E-02  0.1243010E+00
         -1   -1    0    0    0  501 -0.00000000000E+00  0.00000000000E+00  0.54272149531E+03  0.54272149531E+03  0.00000000000E+00 0.  1.
          1   -1    0    0  501    0  0.00000000000E+00 -0.00000000000E+00 -0.27403891500E+02  0.27403891500E+02  0.00000000000E+00 0. -1.
         23    2    1    2    0    0  0.14760906485E+02 -0.52655228492E+02  0.22066927347E+03  0.24538779114E+03  0.92356820750E+02 0.  0.
          5    1    1    2  502    0 -0.26399103849E+02  0.90793611738E+02  0.22937160620E+03  0.24813141427E+03  0.41800000000E+01 0.  1.
         -5    1    1    2    0  502  0.11638197364E+02 -0.38138383246E+02  0.65276724143E+02  0.76606181404E+02  0.41800000000E+01 0.  1.
        -11    1    3    3    0    0  0.25395926557E+02  0.19758022320E+02  0.47345563428E+02  0.57244518585E+02  0.00000000000E+00 0. -1.
         11    1    3    3    0    0 -0.10635020073E+02 -0.72413250812E+02  0.17332371004E+03  0.18814327255E+03  0.00000000000E+00 0.  1.
</event>
<event>
 7    1  0.4687179E-006  0.9146634E+02  0.7561462E-02  0.1299339E+00
         -4   -1    0    0    0  501 -0.00000000000E+00  0.00000000000E+00  0.39647427830E+02  0.39647427830E+02  0.00000000000E+00 0.  1.
          4   -1    0    0  501    0  0.00000000000E+00 -0.00000000000E+00 -0.36952301861E+03  0.36952301861E+03  0.00000000000E+00 0. -1.
         23    2    1    2    0    0  0.13029267238E+01 -0.47938629906E+02 -0.18676807934E+03  0.21314212223E+03  0.90815411424E+02 0.  0.
          5    1    1    2  502    0  0.23833022210E+02 -0.18314422542E+02  0.59568457052E+01  0.30925514247E+02  0.41800000000E+01 0.  1.
         -5    1    1    2    0  502 -0.25135948934E+02  0.66253052448E+02 -0.14906435715E+03  0.16510280997E+03  0.41800000000E+01 0.  1.
        -11    1    3    3    0    0  0.32876603131E+02 -0.33317518520E+02 -0.37800116137E+02  0.60164581390E+02  0.00000000000E+00 0.  1.
         11    1    3    3    0    0 -0.31573676408E+02 -0.14621111386E+02 -0.14896796320E+03  0.15297754084E+03  0.00000000000E+00 0. -1.
</event>
<event>
 7    1  0.4687179E-006  0.1100153E+03  0.7561462E-02  0.1260542E+00
          1   -1    0    0  501    0  0.00000000000E+00  0.00000000000E+00  0.32988563166E+03  0.32988563166E+03  0.00000000000E+00 0. -1.
         -1   -1    0    0    0  501 -0.00000000000E+00 -0.00000000000E+00 -0.51340504467E+02  0.51340504467E+02  0.00000000000E+00 0.  1.
         23    2    1    2    0    0 -0.84282550165E+01 -0.32505144703E+02  0.10560580254E+03  0.16516364394E+03  0.12246968537E+03 0.  0.
          5    1    1    2  502    0  0.36658313939E+01  0.63147169550E+02  0.30722165262E+02  0.70443787379E+02  0.41800000000E+01 0. -1.
         -5    1    1    2    0  502  0.47624236226E+01 -0.30642024847E+02  0.14221715939E+03  0.14561870481E+03  0.41800000000E+01 0. -1.
        -11    1    3    3    0    0  0.44455729095E+02  0.21830099955E+02  0.54957062011E+02  0.73980698687E+02  0.00000000000E+00 0.  1.
         11    1    3    3    0    0 -0.52883984111E+02 -0.54335244658E+02  0.50648740533E+02  0.91182945253E+02  0.00000000000E+00 0. -1.
</event>
<event>
 7    1  0.4687179E-006  0.1407879E+03  0.7561462E-02  0.1212273E+00
          2   -1    0    0  501    0  0.00000000000E+00  0.00000000000E+00  0.60013693995E+03  0.60013693995E+03  0.00000000000E+00 0. -1.
         -2   -1    0    0    0  501 -0.00000000000E+00 -0.00000000000E+00 -0.43307319864E+02  0.43307319864E+02  0.00000000000E+00 0.  1.
         23    2    1    2    0    0 -0.96663463487E+02 -0.66955298482E+02  0.28078122192E+03  0.31836656558E+03  0.93232710605E+02 0.  0.
          5    1    1    2  502    0  0.87022279259E+02  0.90544285047E+02  0.14660958664E+03  0.19308803157E+03  0.41800000000E+01 0. -1.
         -5    1    1    2    0  502  0.96411842280E+01 -0.23588986564E+02  0.12943881153E+03  0.13198966266E+03  0.41800000000E+01 0. -1.
        -11    1    3    3    0    0 -0.43394079166E+02 -0.63245479721E+02  0.23766185754E+03  0.24973224730E+03  0.00000000000E+00 0. -1.
         11    1    3    3    0    0 -0.53269384320E+02 -0.37098187608E+01  0.43119364384E+02  0.68634318282E+02  0.00000000000E+00 0.  1.
</event>
<event>
 7    1  0.4687179E-006  0.9991474E+02  0.7561462E-02  0.1280475E+00
          1   -1    0    0  501    0  0.00000000000E+00  0.00000000000E+00  0.92949750669E+02  0.92949750669E+02  0.00000000000E+00 0. -1.
         -1   -1    0    0    0  501 -0.00000000000E+00 -0.00000000000E+00 -0.20115286484E+03  0.20115286484E+03  0.00000000000E+00 0.  1.
         23    2    1    2    0    0  0.25997065417E+02  0.61582055147E+02  0.13314040297E+02  0.10733480384E+03  0.82917425907E+02 0.  0.
          5    1    1    2  502    0  0.22844242226E+02 -0.31237376722E+02 -0.12308651656E+03  0.12909452376E+03  0.41800000000E+01 0. -1.
         -5    1    1    2    0  502 -0.48841307643E+02 -0.30344678425E+02  0.15693620906E+01  0.57673287910E+02  0.41800000000E+01 0. -1.
        -11    1    3    3    0    0 -0.27213314625E+02  0.33261624295E+02  0.18595607250E+02  0.46826240001E+02  0.00000000000E+00 0.  1.
         11    1    3    3    0    0  0.53210380042E+02  0.28320430852E+02 -0.52815669538E+01  0.60508563835E+02  0.00000000000E+00 0. -1.
</event>
<event>
 7    1  0.4687179E-006  0.8703166E+02  0.7561462E-02  0.1310203E+00
          2   -1    0    0  501    0  0.00000000000E+00  0.00000000000E+00  0.55120025177E+03  0.55120025177E+03  0.00000000000E+00 0. -1.
         -2   -1    0    0    0  501 -0.00000000000E+00 -0.00000000000E+00 -0.27887186354E+02  0.27887186354E+02  0.00000000000E+00 0.  1.
         23    2    1    2    0    0 -0.25563868584E+02 -0.58130510404E+02  0.28146979031E+03  0.29949539165E+03  0.80246988408E+02 0.  0.
          5    1    1    2  502    0 -0.10994751165E+02  0.27418291497E+02 -0.31073595006E+01  0.29996255514E+02  0.41800000000E+01 0. -1.
         -5    1    1    2    0  502  0.36558619749E+02  0.30712218908E+02  0.24495063461E+03  0.24959579096E+03  0.41800000000E+01 0. -1.
        -11    1    3    3    0    0  0.25066611763E+02 -0.27102390289E+02  0.62233146743E+02  0.72359098517E+02  0.00000000000E+00 0.  1.
         11    1    3    3    0    0 -0.50630480347E+02 -0.31028120115E+02  0.21923664356E+03  0.22713629314E+03  0.00000000000E+00 0. -1.
</event>
<event>
 7    1  0.4687179E-006  0.1186717E+03  0.7561462E-02  0.1245304E+00
         -1   -1    0    0    0  501 -0.00000000000E+00  0.00000000000E+00  0.41494614200E+03  0.41494614200E+03  0.00000000000E+00 0.  1.
          1   -1    0    0  501    0  0.00000000000E+00 -0.00000000000E+00 -0.55943633614E+02  0.55943633614E+02  0.00000000000E+00 0. -1.
         23    2    1    2    0    0  0.60947316292E+02  0.80383969992E+02  0.11263874038E+03  0.17674815513E+03  0.91521945517E+02 0.  0.
          5    1    1    2  502    0 -0.46614237482E+02 -0.86519267416E+02  0.79437639437E+02  0.12643686855E+03  0.41800000000E+01 0. -1.
         -5    1    1    2    0  502 -0.14333078811E+02  0.61352974239E+01  0.16692612857E+03  0.16770475193E+03  0.41800000000E+01 0. -1.
        -11    1    3    3    0    0 -0.12572239879E+02  0.33140715763E+02  0.16495002230E+01  0.35483645639E+02  0.00000000000E+00 0.  1.
         11    1    3    3    0    0  0.73519556172E+02  0.47243254229E+02  0.11098924016E+03  0.14126450949E+03  0.00000000000E+00 0. -1.
</event>
<event>
 7    1  0.4687179E-006  0.1254409E+03  0.7561462E-02  0.1234382E+00
         -1   -1    0    0    0  501 -0.00000000000E+00  0.00000000000E+00  0.11989602374E+03  0.11989602374E+03  0.00000000000E+00 0.  1.
          1   -1    0    0  501    0  0.00000000000E+00 -0.00000000000E+00 -0.23849284924E+03  0.23849284924E+03  0.00000000000E+00 0. -1.
         23    2    1    2    0    0 -0.44982206822E+02  0.92823004612E+01 -0.15603498863E+03  0.18855100731E+03  0.95367733791E+02 0.  0.
          5    1    1    2  502    0 -0.55725978132E+02  0.12320536372E+02 -0.68688437037E+01  0.57635350862E+02  0.41800000000E+01 0. -1.
         -5    1    1    2    0  502  0.10070818495E+03 -0.21602836833E+02  0.44307006823E+02  0.11220251481E+03  0.41800000000E+01 0.  1.
        -11    1    3    3    0    0  0.20392110849E+02  0.14453514579E+02 -0.73607167886E+01  0.26056139779E+02  0.00000000000E+00 0.  1.
         11    1    3    3    0    0 -0.65374317670E+02 -0.51712141179E+01 -0.14867427184E+03  0.16249486753E+03  0.00000000000E+00 0. -1.
</event>
<event>
 7    1  0.4687179E-006  0.1888404E+03  0.7561462E-02  0.1159511E+00
          2   -1    0    0  501    0  0.00000000000E+00  0.00000000000E+00  0.53444143978E+03  0.53444143978E+03  0.00000000000E+00 0.  1.
         -2   -1    0    0    0  501 -0.00000000000E+00 -0.00000000000E+00 -0.80617061153E+02  0.80617061153E+02  0.00000000000E+00 0. -1.
         23    2    1    2    0    0 -0.11951122555E+03  0.95779133925E+02  0.34523003318E+03  0.38945520730E+03  0.95052654627E+02 0.  0.
          5    1    1    2  502    0  0.14395128764E+03 -0.95769292752E+02  0.95457456194E+02  0.19754323322E+03  0.41800000000E+01 0. -1.
         -5    1    1    2    0  502 -0.24440062084E+02 -0.98411726562E-02  0.13136889247E+02  0.28060060417E+02  0.41800000000E+01 0. -1.
        -11    1    3    3    0    0 -0.80345198367E+02  0.43389766540E+01  0.14296235830E+03  0.16405003356E+03  0.00000000000E+00 0. -1.
         11    1    3    3    0    0 -0.39166027186E+02  0.91440157271E+02  0.20226767488E+03  0.22540517374E+03  0.00000000000E+00 0.  1.
</event>
<event>
 7    1  0.4687179E-006  0.1127922E+03  0.7561462E-02  0.1255485E+00
          3   -1    0    0  501    0  0.00000000000E+00  0.00000000000E+00  0.11433849753E+03  0.11433849753E+03  0.00000000000E+00 0. -1.
         -3   -1    0    0    0  501 -0.00000000000E+00 -0.00000000000E+00 -0.22348791636E+03  0.22348791636E+03  0.00000000000E+00 0.  1.
         23    2    1    2    0    0  0.10356893176E+03  0.24118149145E+02  0.31217403292E+01  0.13893366386E+03  0.89356639068E+02 0.  0.
          5    1    1    2  502    0 -0.88904648668E+02 -0.12240780394E+02 -0.50921387867E+01  0.89984862821E+02  0.41800000000E+01 0. -1.
         -5    1    1    2    0  502 -0.14664283096E+02 -0.11877368751E+02 -0.10717902038E+03  0.10890788721E+03  0.41800000000E+01 0. -1.
        -11    1    3    3    0    0  0.97557538703E+02  0.35277448199E+02  0.31030432277E+02  0.10828139007E+03  0.00000000000E+00 0. -1.
         11    1    3    3    0    0  0.60113930608E+01 -0.11159299054E+02 -0.27908691947E+02  0.30652273784E+02  0.00000000000E+00 0.  1.
</event>
<event>
 7    1  0.4687179E-006  0.1346339E+03  0.7561462E-02  0.1220737E+00
          3   -1    0    0  501    0  0.00000000000E+00  0.00000000000E+00  0.21961443752E+03  0.21961443752E+03  0.00000000000E+00 0. -1.
         -3   -1    0    0    0  501 -0.00000000000E+00 -0.00000000000E+00 -0.11290313655E+03  0.11290313655E+03  0.00000000000E+00 0.  1.
         23    2    1    2    0    0  0.20979588802E+02  0.84946375921E+02  0.12575067749E+03  0.17867979179E+03  0.91963064184E+02 0.  0.
          5    1    1    2  502    0 -0.54907821507E+02 -0.92283802788E+02 -0.38097235893E+02  0.11401772188E+03  0.41800000000E+01 0.  1.
         -5    1    1    2    0  502  0.33928232705E+02  0.73374268672E+01  0.19057859367E+02  0.39820060412E+02  0.41800000000E+01 0.  1.
        -11    1    3    3    0    0 -0.35878275164E+02  0.22324562026E+02  0.38617605085E+02  0.57244703868E+02  0.00000000000E+00 0.  1.
         11    1    3    3    0    0  0.56857863966E+02  0.62621813895E+02  0.87133072409E+02  0.12143508792E+03  0.00000000000E+00 0. -1.
</event>
<event>
 7    1  0.4687179E-006  0.9932096E+02  0.7561462E-02  0.1281730E+00
         -1   -1    0    0    0  501 -0.00000000000E+00  0.00000000000E+00  0.23725383897E+03  0.23725383897E+03  0.00000000000E+00 0.  1.
          1   -1    0    0  501    0  0.00000000000E+00 -0.00000000000E+00 -0.67775209869E+02  0.67775209869E+02  0.00000000000E+00 0. -1.
         23    2    1    2    0    0  0.37264046999E+02  0.50040529615E+02  0.44648189926E+02  0.11761748741E+03  0.89150146825E+02 0.  0.
          5    1    1    2  502    0  0.36484525939E+02  0.12817152864E+02  0.17207709962E+02  0.42532078749E+02  0.41800000000E+01 0.  1.
         -5    1    1    2    0  502 -0.73748572938E+02 -0.62857682479E+02  0.10762272921E+03  0.14487948267E+03  0.41800000000E+01 0.  1.
        -11    1    3    3    0    0  0.93349956838E+01  0.17797867771E+02  0.66654564284E+02  0.69618511773E+02  0.00000000000E+00 0.  1.
         11    1    3    3    0    0  0.27929051315E+02  0.32242661844E+02 -0.22006374358E+02  0.47998975641E+02  0.00000000000E+00 0. -1.
</event>
<event>
 7    1  0.4687179E-006  0.6867894E+02  0.7561462E-02  0.1364644E+00
         -2   -1    0    0    0  501 -0.00000000000E+00  0.00000000000E+00  0.43767521880E+02  0.43767521880E+02  0.00000000000E+00 0.  1.
          2   -1    0    0  501    0  0.00000000000E+00 -0.00000000000E+00 -0.35484393457E+03  0.35484393457E+03  0.00000000000E+00 0. -1.
         23    2    1    2    0    0 -0.30138447449E+02  0.43361898891E+02 -0.18762243069E+03  0.21509632790E+03  0.90970728733E+02 0.  0.
          5    1    1    2  502    0  0.66621857784E+01 -0.35735069396E+02  0.17355232484E+02  0.40497609790E+02  0.41800000000E+01 0.  1.
         -5    1    1    2    0  502  0.23476261671E+02 -0.76268294947E+01 -0.14080921449E+03  0.14301751877E+03  0.41800000000E+01 0.  1.
        -11    1    3    3    0    0 -0.33034582818E+01  0.48328547215E+02 -0.18050605738E+03  0.18689301234E+03  0.00000000000E+00 0.  1.
         11    1    3    3    0    0 -0.26834989167E+02 -0.49666483242E+01 -0.71163733156E+01  0.28203315556E+02  0.00000000000E+00 0. -1.
</event>
<event>
 7    1  0.4687179E-006  0.7572178E+02  0.7561462E-02  0.1341650E+00
         -1   -1    0    0    0  501 -0.00000000000E+00  0.00000000000E+00  0.35693831494E+03  0.35693831494E+03  0.00000000000E+00 0.  1.
          1   -1    0    0  501    0  0.00000000000E+00 -0.00000000000E+00 -0.51243914693E+02  0.51243914693E+02  0.00000000000E+00 0. -1.
         23    2    1    2    0    0  0.29550987182E+02 -0.45521909893E+02  0.45545953497E+02  0.11444662989E+03  0.89878206980E+02 0.  0.
          5    1    1    2  502    0 -0.44332745742E+02  0.60893747906E+02  0.26130170552E+03  0.27197333433E+03  0.41800000000E+01 0.  1.
         -5    1    1    2    0  502  0.14781758560E+02 -0.15371838013E+02 -0.11532587689E+01  0.21762265411E+02  0.41800000000E+01 0.  1.
        -11    1    3    3    0    0  0.14747942967E+02 -0.23054505769E+02  0.71809240378E+02  0.76847765495E+02  0.00000000000E+00 0.  1.
         11    1    3    3    0    0  0.14803044215E+02 -0.22467404124E+02 -0.26263286881E+02  0.37598864396E+02  0.00000000000E+00 0. -1.
</event>
<event>
 7    1  0.4687179E-006  0.8588090E+02  0.7561462E-02  0.1313145E+00
          2   -1    0    0  501    0  0.00000000000E+00  0.00000000000E+00  0.17142985557E+03  0.17142985557E+03  0.00000000000E+00 0. -1.
         -2   -1    0    0    0  501 -0.00000000000E+00 -0.00000000000E+00 -0.76766560368E+02  0.76766560368E+02  0.00000000000E+00 0.  1.
         23    2    1    2    0    0 -0.33393157691E+02 -0.66735101531E+01  0.61174123896E+02  0.11435015078E+03  0.90410424353E+02 0.  0.
          5    1    1    2  502    0  0.31101884997E+02 -0.35399164147E+02  0.65478017913E+02  0.80779151409E+02  0.41800000000E+01 0. -1.
         -5    1    1    2    0  502  0.22912726938E+01  0.42072674300E+02 -0.31988846610E+02  0.53067113740E+02  0.41800000000E+01 0. -1.
        -11    1    3    3    0    0 -0.17844473494E+02  0.34094001953E+02 -0.88046298970E+00  0.38491575942E+02  0.00000000000E+00 0.  1.
         11    1    3    3    0    0 -0.15548684197E+02 -0.40767512106E+02  0.62054586886E+02  0.75858574842E+02  0.00000000000E+00 0. -1.
</event>
<event>
 7    1  0.4687179E-006  0.8997063E+02  0.7561462E-02  0.1302923E+00
          1   -1    0    0  501    0  0.00000000000E+00  0.00000000000E+00  0.63172758080E+03  0.63172758080E+03  0.00000000000E+00 0. -1.
         -1   -1    0    0    0  501 -0.00000000000E+00 -0.00000000000E+00 -0.19786697118E+02  0.19786697118E+02  0.00000000000E+00 0.  1.
         23    2    1    2    0    0 -0.34294650922E+02  0.82456291828E+01  0.25116317828E+03  0.26804156332E+03  0.86713459535E+02 0.  0.
          5    1    1    2  502    0 -0.13885603281E+02 -0.30077975358E+02  0.20713865822E+02  0.39294162638E+02  0.41800000000E+01 0.  1.
         -5    1    1    2    0  502  0.48180254203E+02  0.21832346175E+02  0.34006383958E+03  0.34417855195E+03  0.41800000000E+01 0.  1.
        -11    1    3    3    0    0  0.18671609103E+02  0.30722285305E+02  0.10335703470E+03  0.10943109440E+03  0.00000000000E+00 0.  1.
         11    1    3    3    0    0 -0.52966260025E+02 -0.22476656122E+02  0.14780614358E+03  0.15861046892E+03  0.00000000000E+00 0. -1.
</event>
<event>
 7    1  0.4687179E-006  0.1368013E+03  0.7561462E-02  0.1217699E+00
         -1   -1    0    0    0  501 -0.00000000000E+00  0.00000000000E+00  0.29240660856E+02  0.29240660856E+02  0.00000000000E+00 0.  1.
          1   -1    0    0  501    0  0.00000000000E+00 -0.00000000000E+00 -0.83170025671E+03  0.83170025671E+03  0.00000000000E+00 0. -1.
         23    2    1    2    0    0 -0.86039296609E+02  0.23786259808E+02 -0.55359496977E+03  0.56845512224E+03  0.93302136777E+02 0.  0.
          5    1    1    2  502    0  0.61341997184E+02 -0.73864404195E+02 -0.13644721053E+03  0.16689548972E+03  0.41800000000E+01 0.  1.
         -5    1    1    2    0  502  0.24697299425E+02  0.50078144387E+02 -0.11241741555E+03  0.12559030561E+03  0.41800000000E+01 0.  1.
        -11    1    3    3    0    0 -0.11443902620E+02 -0.28297970620E+02 -0.69838310015E+02  0.76217633092E+02  0.00000000000E+00 0. -1.
         11    1    3    3    0    0 -0.74595393989E+02  0.52084230427E+02 -0.48375665975E+03  0.49223748915E+03  0.00000000000E+00 0.  1.
</event>
<event>
 7    1  0.4687179E-006  0.2000441E+03  0.7561462E-02  0.1149702E+00
         -3   -1    0    0    0  501 -0.00000000000E+00  0.00000000000E+00  0.13134768520E+03  0.13134768520E+03  0.00000000000E+00 0.  1.
          3   -1    0    0  501    0  0.00000000000E+00 -0.00000000000E+00 -0.39398200591E+03  0.39398200591E+03  0.00000000000E+00 0. -1.
         23    2    1    2    0    0 -0.16721907791E+03 -0.81092533124E+02 -0.20907606166E+03  0.29499293193E+03  0.93647271108E+02 0.  0.
          5    1    1    2  502    0  0.12157515004E+03  0.92477701169E+02  0.76825970755E+01  0.15300044777E+03  0.41800000000E+01 0.  1.
         -5    1    1    2    0  502  0.45643927874E+02 -0.11385168046E+02 -0.61240856120E+02  0.77336311403E+02  0.41800000000E+01 0.  1.
        -11    1    3    3    0    0 -0.13507489382E+03 -0.27936438649E+02 -0.10330681661E+03  0.17233098939E+03  0.00000000000E+00 0.  1.
         11    1    3    3    0    0 -0.32144184086E+02 -0.53156094474E+02 -0.10576924505E+03  0.12266194254E+03  0.00000000000E+00 0. -1.
</event>
<event>
 7    1  0.4687179E-006  0.1019304E+03  0.7561462E-02  0.1276288E+00
          1   -1    0    0  501    0  0.00000000000E+00  0.00000000000E+00  0.18935288499E+03  0.18935288499E+03  0.00000000000E+00 0. -1.
         -1   -1    0    0    0  501 -0.00000000000E+00 -0.00000000000E+00 -0.88857291218E+02  0.88857291218E+02  0.00000000000E+00 0.  1.
         23    2    1    2    0    0  0.34785585958E+02 -0.53181467782E+02  0.79731142595E+02  0.13637965318E+03  0.90576206564E+02 0.  0.
          5    1    1    2  502    0 -0.11368359552E+01 -0.40423405595E+02  0.37147210050E+01  0.40824204439E+02  0.41800000000E+01 0.  1.
         -5    1    1    2    0  502 -0.33648750003E+02  0.93604873378E+02  0.17049730174E+02  0.10100631859E+03  0.41800000000E+01 0.  1.
        -11    1    3    3    0    0  0.61070457998E+01 -0.12015326376E+02 -0.20360702117E+02  0.24417663013E+02  0.00000000000E+00 0.  1.
         11    1    3    3    0    0  0.28678540158E+02 -0.41166141406E+02  0.10009184471E+03  0.11196199016E+03  0.00000000000E+00 0. -1.
</event>
<event>
 7    1  0.4687179E-006  0.1027175E+03  0.7561462E-02  0.1274683E+00
          2   -1    0    0  501    0  0.00000000000E+00  0.00000000000E+00  0.16347815010E+03  0.16347815010E+03  0.00000000000E+00 0.  1.
         -2   -1    0    0    0  501 -0.00000000000E+00 -0.00000000000E+00 -0.11636505756E+03  0.11636505756E+03  0.00000000000E+00 0. -1.
         23    2    1    2    0    0  0.45201383749E+02 -0.45945582612E+02  0.79778288889E+02  0.13538914269E+03  0.88382594021E+02 0.  0.
          5    1    1    2  502    0 -0.68546037063E+02 -0.22930174650E+01  0.17525525926E+02  0.70911448900E+02  0.41800000000E+01 0. -1.
         -5    1    1    2    0  502  0.23344653314E+02  0.48238600077E+02 -0.50190722281E+02  0.73542616073E+02  0.41800000000E+01 0. -1.
        -11    1    3    3    0    0  0.13084776064E+02  0.11327527962E+02 -0.13056256826E+02  0.21679254984E+02  0.00000000000E+00 0. -1.
         11    1    3    3    0    0  0.32116607685E+02 -0.57273110574E+02  0.92834545716E+02  0.11370988771E+03  0.00000000000E+00 0.  1.
</event>
<event>
 7    1  0.4687179E-006  0.9626866E+02  0.7561462E-02  0.1288344E+00
         -1   -1    0    0    0  501 -0.00000000000E+00  0.00000000000E+00  0.11387312287E+03  0.11387312287E+03  0.00000000000E+00 0.  1.
          1   -1    0    0  501    0  0.00000000000E+00 -0.00000000000E+00 -0.16945633816E+03  0.16945633816E+03  0.00000000000E+00 0. -1.
         23    2    1    2    0    0  0.49025350182E+01 -0.85996406012E+02 -0.38825052173E+02  0.13055269000E+03  0.90095524265E+02 0.  0.
          5    1    1    2  502    0 -0.31515524538E+02  0.63539158034E+02 -0.62850416469E+02  0.94858316140E+02  0.41800000000E+01 0.  1.
         -5    1    1    2    0  502  0.26612989520E+02  0.22457247978E+02  0.46092253354E+02  0.57918454893E+02  0.41800000000E+01 0.  1.
        -11    1    3    3    0    0  0.11587008209E+01 -0.69123172649E+02 -0.67789529302E+02  0.96823426234E+02  0.00000000000E+00 0. -1.
         11    1    3    3    0    0  0.37438341973E+01 -0.16873233363E+02  0.28964477129E+02  0.33729263763E+02  0.00000000000E+00 0.  1.
</event>
<event>
 7    1  0.4687179E-006  0.1439251E+03  0.7561462E-02  0.1208143E+00
         -2   -1    0    0    0  501 -0.00000000000E+00  0.00000000000E+00  0.16556568466E+03  0.16556568466E+03  0.00000000000E+00 0.  1.
          2   -1    0    0  501    0  0.00000000000E+00 -0.00000000000E+00 -0.15796445149E+03  0.15796445149E+03  0.00000000000E+00 0. -1.
         23    2    1    2    0    0 -0.70513003098E+02 -0.94457278676E+02  0.23090033137E+02  0.15095237167E+03  0.91428703279E+02 0.  0.
          5    1    1    2  502    0 -0.17034037672E+02  0.77989183538E+02 -0.22723981150E+02  0.83104289346E+02  0.41800000000E+01 0. -1.
         -5    1    1    2    0  502  0.87547040770E+02  0.16468095137E+02  0.72351811827E+01  0.89473475130E+02  0.41800000000E+01 0. -1.
        -11    1    3    3    0    0 -0.64637489783E+01 -0.17223489508E+02  0.44680454759E+02  0.48319475154E+02  0.00000000000E+00 0.  1.
         11    1    3    3    0    0 -0.64049254120E+02 -0.77233789167E+02 -0.21590421622E+02  0.10263289652E+03  0.00000000000E+00 0. -1.
</event>
<event>
 7    1  0.4687179E-006  0.9329834E+02  0.7561462E-02  0.1295055E+00
          1   -1    0    0  501    0  0.00000000000E+00  0.00000000000E+00  0.27394903387E+03  0.27394903387E+03  0.00000000000E+00 0. -1.
         -1   -1    0    0    0  501 -0.00000000000E+00 -0.00000000000E+00 -0.52243820458E+02  0.52243820458E+02  0.00000000000E+00 0.  1.
         23    2    1    2    0    0  0.12702053463E+02 -0.45438747479E+02  0.10995657038E+03  0.15194882632E+03  0.93658830422E+02 0.  0.
          5    1    1    2  502    0 -0.46759995154E+02  0.33445079584E+02  0.12329616307E+03  0.13610469030E+03  0.41800000000E+01 0.  1.
         -5    1    1    2    0  502  0.34057941691E+02  0.11993667894E+02 -0.11547520034E+02  0.38139337707E+02  0.41800000000E+01 0.  1.
        -11    1    3    3    0    0  0.47148264147E+01 -0.68262435669E+02  0.43134612870E+02  0.80886244437E+02  0.00000000000E+00 0.  1.
         11    1    3    3    0    0  0.79872270483E+01  0.22823688191E+02  0.66821957511E+02  0.71062581885E+02  0.00000000000E+00 0. -1.
</event>
<event>
 7    1  0.4687179E-006  0.1091736E+03  0.7561462E-02  0.1262108E+00
          1   -1    0    0  501    0  0.00000000000E+00  0.00000000000E+00  0.36124908955E+02  0.36124908955E+02  0.00000000000E+00 0. -1.
         -1   -1    0    0    0  501 -0.00000000000E+00 -0.00000000000E+00 -0.40225235404E+03  0.40225235404E+03  0.00000000000E+00 0.  1.
         23    2    1    2    0    0  0.27514279763E+02 -0.49460576375E+02 -0.12904732923E+03  0.16799470815E+03  0.91463788356E+02 0.  0.
          5    1    1    2  502    0  0.38845409820E+02 -0.10339842490E+02 -0.80061780699E+02  0.89684108600E+02  0.41800000000E+01 0. -1.
         -5    1    1    2    0  502 -0.66359689582E+02  0.59800418865E+02 -0.15701833515E+03  0.18069844624E+03  0.41800000000E+01 0.  1.
        -11    1    3    3    0    0 -0.22213022194E+02 -0.75145916055E+01 -0.88002056440E+02  0.91072769693E+02  0.00000000000E+00 0.  1.
         11    1    3    3    0    0  0.49727301957E+02 -0.41945984769E+02 -0.41045272790E+02  0.76921938461E+02  0.00000000000E+00 0. -1.
</event>
<event>
 7    1  0.4687179E-006  0.1365174E+03  0.7561462E-02  0.1218093E+00
         -2   -1    0    0    0  501 -0.00000000000E+00  0.00000000000E+00  0.12279889779E+03  0.12279889779E+03  0.00000000000E+00 0. -1.
          2   -1    0    0  501    0  0.00000000000E+00 -0.00000000000E+00 -0.20025182034E+03  0.20025182034E+03  0.00000000000E+00 0.  1.
         23    2    1    2    0    0  0.10988154449E+03 -0.14705956906E+02 -0.57756692556E+02  0.15474772335E+03  0.91218437602E+02 0.  0.
          5    1    1    2  502    0 -0.86247316225E+02 -0.45221964193E+02  0.85307181761E+01  0.97846160651E+02  0.41800000000E+01 0. -1.
         -5    1    1    2    0  502 -0.23634228264E+02  0.59927921099E+02 -0.28226948177E+02  0.70456834134E+02  0.41800000000E+01 0. -1.
        -11    1    3    3    0    0  0.74787303684E+02 -0.73388996382E+01  0.12205225937E+02  0.76131253637E+02  0.00000000000E+00 0. -1.
         11    1    3    3    0    0  0.35094240804E+02 -0.73670572676E+01 -0.69961918493E+02  0.78616469710E+02  0.00000000000E+00 0.  1.
</event>
<event>
 7    1  0.4687179E-006  0.1214978E+03  0.7561462E-02  0.1240646E+00
          1   -1    0    0  501    0  0.00000000000E+00  0.00000000000E+00  0.96661524394E+02  0.96661524394E+02  0.00000000000E+00 0. -1.
         -1   -1    0    0    0  501 -0.00000000000E+00 -0.00000000000E+00 -0.26123675072E+03  0.26123675072E+03  0.00000000000E+00 0.  1.
         23    2    1    2    0    0 -0.40362522363E+02  0.49030273066E+02  0.30564427438E+02  0.11756274617E+03  0.94094177153E+02 0.  0.
          5    1    1    2  502    0  0.80034691000E+00 -0.79528420123E+02 -0.16119458815E+03  0.17979593380E+03  0.41800000000E+01 0.  1.
         -5    1    1    2    0  502  0.39562175453E+02  0.30498147057E+02 -0.33945065616E+02  0.60539595144E+02  0.41800000000E+01 0.  1.
        -11    1    3    3    0    0 -0.58320252558E+02  0.66307715882E+02  0.27302631504E+02  0.92430507577E+02  0.00000000000E+00 0.  1.
         11    1    3    3    0    0  0.17957730195E+02 -0.17277442816E+02  0.32617959347E+01  0.25132238594E+02  0.00000000000E+00 0. -1.
</event>
<event>
 7    1  0.4687179E-006  0.2831242E+03  0.7561462E-02  0.1093995E+00
          1   -1    0    0  501    0  0.00000000000E+00  0.00000000000E+00  0.11648719652E+04  0.11648719652E+04  0.00000000000E+00 0. -1.
         -1   -1    0    0    0  501 -0.00000000000E+00 -0.00000000000E+00 -0.94000031900E+02  0.94000031900E+02  0.00000000000E+00 0.  1.
         23    2    1    2    0    0  0.20986614265E+03 -0.15783436829E+03  0.84837805661E+03  0.89277138811E+03  0.91323265653E+02 0.  0.
          5    1    1    2  502    0 -0.21987551059E+03  0.12224525922E+03  0.17855844948E+03  0.30852833880E+03  0.41800000000E+01 0. -1.
         -5    1    1    2    0  502  0.10009367944E+02  0.35589109070E+02  0.43935427189E+02  0.57572270177E+02  0.41800000000E+01 0. -1.
        -11    1    3    3    0    0  0.10630539189E+03 -0.13421491422E+03  0.49498720739E+03  0.52376217411E+03  0.00000000000E+00 0.  1.
         11    1    3    3    0    0  0.10356075076E+03 -0.23619454063E+02  0.35339084922E+03  0.36900921400E+03  0.00000000000E+00 0. -1.
</event>
<event>
 7    1  0.4687179E-006  0.1261440E+03  0.7561462E-02  0.1233292E+00
          2   -1    0    0  501    0  0.00000000000E+00  0.00000000000E+00  0.22769642384E+03  0.22769642384E+03  0.00000000000E+00 0. -1.
         -2   -1    0    0    0  501 -0.00000000000E+00 -0.00000000000E+00 -0.76672157987E+02  0.76672157987E+02  0.00000000000E+00 0.  1.
         23    2    1    2    0    0 -0.46409602817E+02  0.55486711737E+02  0.90866023000E+02  0.14786209686E+03  0.91509229800E+02 0.  0.
          5    1    1    2  502    0  0.80935293634E+01  0.35832456439E+02 -0.58312442959E+01  0.37429212682E+02  0.41800000000E+01 0.  1.
         -5    1    1    2    0  502  0.38316073453E+02 -0.91319168175E+02  0.65989487148E+02  0.11907727229E+03  0.41800000000E+01 0.  1.
        -11    1    3    3    0    0 -0.29631585763E+02  0.80667360892E+02  0.72745044456E+02  0.11259260847E+03  0.00000000000E+00 0. -1.
         11    1    3    3    0    0 -0.16778017053E+02 -0.25180649155E+02  0.18120978544E+02  0.35269488393E+02  0.00000000000E+00 0.  1.
</event>
<event>
 7    1  0.4687179E-006  0.1036130E+03  0.7561462E-02  0.1272877E+00
          1   -1    0    0  501    0  0.00000000000E+00  0.00000000000E+00  0.62035073683E+02  0.62035073683E+02  0.00000000000E+00 0. -1.
         -1   -1    0    0    0  501 -0.00000000000E+00 -0.00000000000E+00 -0.23274313313E+03  0.23274313313E+03  0.00000000000E+00 0.  1.
         23    2    1    2    0    0  0.18359079867E+02  0.15286712025E+02 -0.18791943759E+02  0.96544568608E+02  0.91635021685E+02 0.  0.
          5    1    1    2  502    0 -0.13893892343E+02  0.48883393903E+02 -0.11027234086E+03  0.12149110257E+03  0.41800000000E+01 0. -1.
         -5    1    1    2    0  502 -0.44651875241E+01 -0.64170105929E+02 -0.41643774830E+02  0.76742535641E+02  0.41800000000E+01 0. -1.
        -11    1    3    3    0    0  0.35981071871E+02  0.44763178350E+02 -0.72161879377E-01  0.57431566897E+02  0.00000000000E+00 0. -1.
         11    1    3    3    0    0 -0.17621992005E+02 -0.29476466324E+02 -0.18719781879E+02  0.39113001710E+02  0.00000000000E+00 0.  1.
</event>
<event>
 7    1  0.4687179E-006  0.1091286E+03  0.7561462E-02  0.1262192E+00
          1   -1    0    0  501    0  0.00000000000E+00  0.00000000000E+00  0.70792237859E+02  0.70792237859E+02  0.00000000000E+00 0. -1.
         -1   -1    0    0    0  501 -0.00000000000E+00 -0.00000000000E+00 -0.33922988663E+03  0.33922988663E+03  0.00000000000E+00 0.  1.
         23    2    1    2    0    0 -0.20649843401E+02  0.81355984401E+02 -0.35535853071E+02  0.13264910768E+03  0.96373111834E+02 0.  0.
          5    1    1    2  502    0  0.53776070159E+02 -0.69506776096E+02 -0.75196197411E+02  0.11573676231E+03  0.41800000000E+01 0. -1.
         -5    1    1    2    0  502 -0.33126226758E+02 -0.11849208305E+02 -0.15770559829E+03  0.16163625450E+03  0.41800000000E+01 0. -1.
        -11    1    3    3    0    0 -0.96446351578E+01  0.83141177226E+02 -0.61849288570E+02  0.10407117197E+03  0.00000000000E+00 0.  1.
         11    1    3    3    0    0 -0.11005208243E+02 -0.17851928254E+01  0.26313435499E+02  0.28577935714E+02  0.00000000000E+00 0. -1.
</event>
<event>
 7    1  0.4687179E-006  0.1989276E+03  0.7561462E-02  0.1150647E+00
         -2   -1    0    0    0  501 -0.00000000000E+00  0.00000000000E+00  0.15027777703E+03  0.15027777703E+03  0.00000000000E+00 0.  1.
          2   -1    0    0  501    0  0.00000000000E+00 -0.00000000000E+00 -0.40045887763E+03  0.40045887763E+03  0.00000000000E+00 0. -1.
         23    2    1    2    0    0  0.15823054988E+03 -0.10136714600E+03 -0.24858970037E+03  0.32499010539E+03  0.92247082731E+02 0.  0.
          5    1    1    2  502    0 -0.42112147422E+02  0.34675758439E+02  0.57456588641E+02  0.79338346101E+02  0.41800000000E+01 0. -1.
         -5    1    1    2    0  502 -0.11611840245E+03  0.66691387563E+02 -0.59047988880E+02  0.14640820317E+03  0.41800000000E+01 0. -1.
        -11    1    3    3    0    0  0.80875042076E+02 -0.10403136077E+03 -0.15031877879E+03  0.19989755303E+03  0.00000000000E+00 0.  1.
         11    1    3    3    0    0  0.77355507801E+02  0.26642147626E+01 -0.98270921581E+02  0.12509255236E+03  0.00000000000E+00 0. -1.
</event>
<event>
 7    1  0.4687179E-006  0.1368827E+03  0.7561462E-02  0.1217586E+00
         -4   -1    0    0    0  501 -0.00000000000E+00  0.00000000000E+00  0.18934183704E+03  0.18934183704E+03  0.00000000000E+00 0. -1.
          4   -1    0    0  501    0  0.00000000000E+00 -0.00000000000E+00 -0.13583573841E+03  0.13583573841E+03  0.00000000000E+00 0.  1.
         23    2    1    2    0    0  0.83044893132E+02 -0.79529593778E+02  0.46702803459E+02  0.15513126516E+03  0.93076028150E+02 0.  0.
          5    1    1    2  502    0 -0.45549560263E+02 -0.15648966576E+02 -0.34765268932E+02  0.59546191473E+02  0.41800000000E+01 0. -1.
         -5    1    1    2    0  502 -0.37495332869E+02  0.95178560354E+02  0.41568564103E+02  0.11050011882E+03  0.41800000000E+01 0. -1.
        -11    1    3    3    0    0 -0.49086255867E+01 -0.91841898624E+01 -0.21200641887E+02  0.23620143204E+02  0.00000000000E+00 0.  1.
         11    1    3    3    0    0  0.87953518719E+02 -0.70345403916E+02  0.67903445346E+02  0.13151112195E+03  0.00000000000E+00 0. -1.
</event>
<event>
 7    1  0.4687179E-006  0.1170277E+03  0.7561462E-02  0.1248083E+00
         -1   -1    0    0    0  501 -0.00000000000E+00  0.00000000000E+00  0.43940003299E+02  0.43940003299E+02  0.00000000000E+00 0.  1.
          1   -1    0    0  501    0  0.00000000000E+00 -0.00000000000E+00 -0.45045816999E+03  0.45045816999E+03  0.00000000000E+00 0. -1.
         23    2    1    2    0    0  0.55763446985E+02  0.70254958746E+02 -0.19082563702E+03  0.22941475012E+03  0.90395700001E+02 0.  0.
          5    1    1    2  502    0 -0.49565099176E+02 -0.80354859317E+02 -0.22835892801E+03  0.24714140664E+03  0.41800000000E+01 0.  1.
         -5    1    1    2    0  502 -0.61983478097E+01  0.10099900572E+02  0.12666398341E+02  0.17842016536E+02  0.41800000000E+01 0.  1.
        -11    1    3    3    0    0  0.52213461095E+02 -0.42588641370E+01 -0.70335450358E+02  0.87700963623E+02  0.00000000000E+00 0. -1.
         11    1    3    3    0    0  0.35499858903E+01  0.74513822883E+02 -0.12049018667E+03  0.14171378650E+03  0.00000000000E+00 0.  1.
</event>
<event>
 7    1  0.4687179E-006  0.1080809E+03  0.7561462E-02  0.1264166E+00
         -2   -1    0    0    0  501 -0.00000000000E+00  0.00000000000E+00  0.22764191032E+02  0.22764191032E+02  0.00000000000E+00 0. -1.
          2   -1    0    0  501    0  0.00000000000E+00 -0.00000000000E+00 -0.85383123832E+03  0.85383123832E+03  0.00000000000E+00 0.  1.
         23    2    1    2    0    0  0.85381089813E+02  0.11411133892E+02 -0.33674640648E+03  0.35946825509E+03  0.91646820299E+02 0.  0.
          5    1    1    2  502    0 -0.66863493780E+02  0.37828807871E+02 -0.14794165377E+03  0.16675116439E+03  0.41800000000E+01 0. -1.
         -5    1    1    2    0  502 -0.18517596033E+02 -0.49239941763E+02 -0.34637898704E+03  0.35037600987E+03  0.41800000000E+01 0. -1.
        -11    1    3    3    0    0  0.59167650746E+02  0.11310796208E+02 -0.32535818656E+03  0.33088773711E+03  0.00000000000E+00 0.  1.
         11    1    3    3    0    0  0.26213439067E+02  0.10033768336E+00 -0.11388219911E+02  0.28580517982E+02  0.00000000000E+00 0. -1.
</event>
<event>
 7    1  0.4687179E-006  0.1116359E+03  0.7561462E-02  0.1257570E+00
          3   -1    0    0  501    0  0.00000000000E+00  0.00000000000E+00  0.62859230460E+02  0.62859230460E+02  0.00000000000E+00 0. -1.
         -3   -1    0    0    0  501 -0.00000000000E+00 -0.00000000000E+00 -0.33362066504E+03  0.33362066504E+03  0.00000000000E+00 0.  1.
         23    2    1    2    0    0  0.86239028400E+02  0.29286354852E+02 -0.82557731531E+02  0.15283476647E+03  0.90817543488E+02 0.  0.
          5    1    1    2  502    0 -0.11839384084E+02 -0.50365785522E+02 -0.15179509522E+02  0.54081173028E+02  0.41800000000E+01 0. -1.
         -5    1    1    2    0  502 -0.74399644316E+02  0.21079430670E+02 -0.17302419353E+03  0.18956395601E+03  0.41800000000E+01 0. -1.
        -11    1    3    3    0    0  0.11090686716E+02  0.12894851350E+02 -0.73436742341E+02  0.75380605256E+02  0.00000000000E+00 0.  1.
         11    1    3    3    0    0  0.75148341684E+02  0.16391503502E+02 -0.91209891908E+01  0.77454161210E+02  0.00000000000E+00 0. -1.
</event>
<event>
 7    1  0.4687179E-006  0.1853546E+03  0.7561462E-02  0.1162719E+00
          2   -1    0    0  501    0  0.00000000000E+00  0.00000000000E+00  0.70135037118E+03  0.70135037118E+03  0.00000000000E+00 0.  1.
         -2   -1    0    0    0  501 -0.00000000000E+00 -0.00000000000E+00 -0.57590730657E+02  0.57590730657E+02  0.00000000000E+00 0. -1.
         23    2    1    2    0    0  0.56854499695E+02 -0.15090263334E+03  0.40099468857E+03  0.44178748200E+03  0.91517212068E+02 0.  0.
          5    1    1    2  502    0 -0.85461571181E+02  0.14237769403E+03  0.23159990721E+03  0.28501066178E+03  0.41800000000E+01 0.  1.
         -5    1    1    2    0  502  0.28607071486E+02  0.85249393125E+01  0.11165044748E+02  0.32142958070E+02  0.41800000000E+01 0.  1.
        -11    1    3    3    0    0  0.50264789797E+02 -0.42412566891E+02  0.22961224401E+03  0.23884546787E+03  0.00000000000E+00 0.  1.
         11    1    3    3    0    0  0.65897098982E+01 -0.10849006645E+03  0.17138244456E+03  0.20294201413E+03  0.00000000000E+00 0. -1.
</event>
<event>
 7    1  0.4687179E-006  0.1717908E+03  0.7561462E-02  0.1175993E+00
          1   -1    0    0  501    0  0.00000000000E+00  0.00000000000E+00  0.36568746433E+03  0.36568746433E+03  0.00000000000E+00 0. -1.
         -1   -1    0    0    0  501 -0.00000000000E+00 -0.00000000000E+00 -0.10635395487E+03  0.10635395487E+03  0.00000000000E+00 0.  1.
         23    2    1    2    0    0  0.14952047141E+03  0.51936732357E+01  0.20133756336E+03  0.26859160193E+03  0.96027540809E+02 0.  0.
          5    1    1    2  502    0 -0.94668371300E+02  0.57262467742E+02  0.22569913066E+02  0.11299541633E+03  0.41800000000E+01 0.  1.
         -5    1    1    2    0  502 -0.54852100114E+02 -0.62456140978E+02  0.35426033031E+02  0.90454400938E+02  0.41800000000E+01 0.  1.
        -11    1    3    3    0    0  0.12457430793E+03  0.33268197121E+01  0.20820492100E+03  0.24265019072E+03  0.00000000000E+00 0. -1.
         11    1    3    3    0    0  0.24946163486E+02  0.18668535237E+01 -0.68673576426E+01  0.25941411213E+02  0.00000000000E+00 0.  1.
</event>
<event>
 7    1  0.4687179E-006  0.1274087E+03  0.7561462E-02  0.1231352E+00
          1   -1    0    0  501    0  0.00000000000E+00  0.00000000000E+00  0.56359534099E+03  0.56359534099E+03  0.00000000000E+00 0. -1.
         -1   -1    0    0    0  501 -0.00000000000E+00 -0.00000000000E+00 -0.46631163127E+02  0.46631163127E+02  0.00000000000E+00 0.  1.
         23    2    1    2    0    0  0.83355555441E+00 -0.65998652607E+02  0.42394835399E+03  0.44094227992E+03  0.10169252878E+03 0.  0.
          5    1    1    2  502    0  0.11297425513E+01 -0.35532995631E+02  0.77661439207E+01  0.36628615701E+02  0.41800000000E+01 0. -1.
         -5    1    1    2    0  502 -0.19632981057E+01  0.10153164824E+03  0.85249679954E+02  0.13265560850E+03  0.41800000000E+01 0. -1.
        -11    1    3    3    0    0  0.45927791377E+02 -0.53664054496E+02  0.19836855897E+03  0.21056893872E+03  0.00000000000E+00 0.  1.
         11    1    3    3    0    0 -0.45094235823E+02 -0.12334598111E+02  0.22557979502E+03  0.23037334120E+03  0.00000000000E+00 0. -1.
</event>
<event>
 7    1  0.4687179E-006  0.3304971E+03  0.7561462E-02  0.1070917E+00
          3   -1    0    0  501    0  0.00000000000E+00  0.00000000000E+00  0.20199671356E+04  0.20199671356E+04  0.00000000000E+00 0. -1.
         -3   -1    0    0    0  501 -0.00000000000E+00 -0.00000000000E+00 -0.65317774330E+02  0.65317774330E+02  0.00000000000E+00 0.  1.
         23    2    1    2    0    0 -0.74808927406E+02 -0.31949286258E+03  0.12831378518E+04  0.13274896202E+04  0.90077079480E+02 0.  0.
          5    1    1    2  502    0  0.17451849017E+01  0.12036477390E+03  0.13533543262E+03  0.18117360787E+03  0.41800000000E+01 0. -1.
         -5    1    1    2    0  502  0.73063742504E+02  0.19912808868E+03  0.53617607689E+03  0.57662168186E+03  0.41800000000E+01 0. -1.
        -11    1    3    3    0    0 -0.56629941352E+02 -0.21508411236E+03  0.10167931817E+04  0.10408345209E+04  0.00000000000E+00 0.  1.
         11    1    3    3    0    0 -0.18178986054E+02 -0.10440875021E+03  0.26634467011E+03  0.28665509930E+03  0.00000000000E+00 0. -1.
</event>
<event>
 7    1  0.4687179E-006  0.1347428E+03  0.7561462E-02  0.1220583E+00
         -2   -1    0    0    0  501 -0.00000000000E+00  0.00000000000E+00  0.20639799309E+02  0.20639799309E+02  0.00000000000E+00 0.  1.
          2   -1    0    0  501    0  0.00000000000E+00 -0.00000000000E+00 -0.12168577061E+04  0.12168577061E+04  0.00000000000E+00 0. -1.
         23    2    1    2    0    0  0.10187268924E+03 -0.61410045899E+02 -0.57687487185E+03  0.59454911223E+03  0.80961660901E+02 0.  0.
          5    1    1    2  502    0 -0.38060405990E+02  0.46335093916E+02 -0.82364271309E+02  0.10196509707E+03  0.41800000000E+01 0.  1.
         -5    1    1    2    0  502 -0.63812283253E+02  0.15074951982E+02 -0.53697876364E+03  0.54098329612E+03  0.41800000000E+01 0.  1.
        -11    1    3    3    0    0 -0.18422290049E+01 -0.37104968045E+02 -0.16376105973E+03  0.16792217585E+03  0.00000000000E+00 0. -1.
         11    1    3    3    0    0  0.10371491825E+03 -0.24305077854E+02 -0.41311381212E+03  0.42662693638E+03  0.00000000000E+00 0.  1.
</event>
<event>
 7    1  0.4687179E-006  0.5364546E+02  0.7561462E-02  0.1426615E+00
          1   -1    0    0  501    0  0.00000000000E+00  0.00000000000E+00  0.12576431796E+03  0.12576431796E+03  0.00000000000E+00 0. -1.
         -1   -1    0    0    0  501 -0.00000000000E+00 -0.00000000000E+00 -0.10220341435E+03  0.10220341435E+03  0.00000000000E+00 0.  1.
         23    2    1    2    0    0 -0.15746392399E+01 -0.12091735974E+02  0.50337519568E+02  0.99465651449E+02  0.84916784998E+02 0.  0.
          5    1    1    2  502    0 -0.21240565265E+02  0.27226986558E+01  0.46342672835E+02  0.51221972104E+02  0.41800000000E+01 0. -1.
         -5    1    1    2    0  502  0.22815204504E+02  0.93690373185E+01 -0.73119288794E+02  0.77280108764E+02  0.41800000000E+01 0. -1.
        -11    1    3    3    0    0 -0.12041179209E+01  0.24166562396E+02  0.57608458858E+02  0.62483655223E+02  0.00000000000E+00 0. -1.
         11    1    3    3    0    0 -0.37052131908E+00 -0.36258298370E+02 -0.72709392900E+01  0.36981996226E+02  0.00000000000E+00 0.  1.
</event>
<event>
 7    1  0.4687179E-006  0.1447371E+03  0.7561462E-02  0.1207093E+00
         -2   -1    0    0    0  501 -0.00000000000E+00  0.00000000000E+00  0.19478485983E+03  0.19478485983E+03  0.00000000000E+00 0.  1.
          2   -1    0    0  501    0  0.00000000000E+00 -0.00000000000E+00 -0.13859839653E+03  0.13859839653E+03  0.00000000000E+00 0. -1.
         23    2    1    2    0    0 -0.13738547278E+02 -0.12044894231E+03  0.24084464254E+02  0.15625354332E+03  0.95595046934E+02 0.  0.
          5    1    1    2  502    0  0.32766613945E+02  0.34510195614E+02  0.67055048188E+02  0.82331382099E+02  0.41800000000E+01 0.  1.
         -5    1    1    2    0  502 -0.19028066668E+02  0.85938746692E+02 -0.34953049149E+02  0.94798330939E+02  0.41800000000E+01 0.  1.
        -11    1    3    3    0    0  0.31080679882E+02 -0.99252383022E+02  0.88210923478E+01  0.10437842626E+03  0.00000000000E+00 0.  1.
         11    1    3    3    0    0 -0.44819227160E+02 -0.21196559284E+02  0.15263371907E+02  0.51875117066E+02  0.00000000000E+00 0. -1.
</event>
<event>
 7    1  0.4687179E-006  0.1633751E+03  0.7561462E-02  0.1184938E+00
         -1   -1    0    0    0  501 -0.00000000000E+00  0.00000000000E+00  0.56601688211E+03  0.56601688211E+03  0.00000000000E+00 0.  1.
          1   -1    0    0  501    0  0.00000000000E+00 -0.00000000000E+00 -0.55828718030E+02  0.55828718030E+02  0.00000000000E+00 0. -1.
         23    2    1    2    0    0 -0.13534566118E+03 -0.33867331632E+02  0.21522781757E+03  0.27239712707E+03  0.91715523365E+02 0.  0.
          5    1    1    2  502    0  0.31220817450E+02  0.67477573199E+02  0.87765926796E+02  0.11510122777E+03  0.41800000000E+01 0.  1.
         -5    1    1    2    0  502  0.10412484373E+03 -0.33610241567E+02  0.20719441971E+03  0.23434724530E+03  0.41800000000E+01 0.  1.
        -11    1    3    3    0    0 -0.62825617478E+02 -0.18125218087E+00  0.16838763238E+03  0.17972614112E+03  0.00000000000E+00 0.  1.
         11    1    3    3    0    0 -0.72520043706E+02 -0.33686079451E+02  0.46840185191E+02  0.92670985948E+02  0.00000000000E+00 0. -1.
</event>
<event>
 7    1  0.4687179E-006  0.1570048E+03  0.7561462E-02  0.1192120E+00
         -1   -1    0    0    0  501 -0.00000000000E+00  0.00000000000E+00  0.17638009350E+04  0.17638009350E+04  0.00000000000E+00 0.  1.
          1   -1    0    0  501    0  0.00000000000E+00 -0.00000000000E+00 -0.20292131750E+02  0.20292131750E+02  0.00000000000E+00 0. -1.
         23    2    1    2    0    0 -0.99933638540E+02  0.86008374826E+02  0.50841234738E+03  0.53569631246E+03  0.10537196766E+03 0.  0.
          5    1    1    2  502    0  0.47137080179E+02 -0.11085213618E+03  0.92621292286E+03  0.93402245760E+03  0.41800000000E+01 0. -1.
         -5    1    1    2    0  502  0.52796558361E+02  0.24843761358E+02  0.30888353304E+03  0.31437429672E+03  0.41800000000E+01 0. -1.
        -11    1    3    3    0    0 -0.15778016507E+02  0.29982691663E+02  0.25739476994E+02  0.42549127843E+02  0.00000000000E+00 0. -1.
         11    1    3    3    0    0 -0.84155622033E+02  0.56025683163E+02  0.48267287039E+03  0.49314718462E+03  0.00000000000E+00 0.  1.
</event>
<event>
 7    1  0.4687179E-006  0.1253943E+03  0.7561462E-02  0.1234454E+00
         -1   -1    0    0    0  501 -0.00000000000E+00  0.00000000000E+00  0.66363693710E+02  0.66363693710E+02  0.00000000000E+00 0.  1.
          1   -1    0    0  501    0  0.00000000000E+00 -0.00000000000E+00 -0.31339949592E+03  0.31339949592E+03  0.00000000000E+00 0. -1.
         23    2    1    2    0    0 -0.68579552200E+02 -0.30033675506E+02 -0.19141982702E+03  0.22373241114E+03  0.88371177263E+02 0.  0.
          5    1    1    2  502    0 -0.26987393176E+02  0.30930626204E+02 -0.42907656027E+02  0.59527828564E+02  0.41800000000E+01 0.  1.
         -5    1    1    2    0  502  0.95566945377E+02 -0.89695069812E+00 -0.12708319159E+02  0.96502949929E+02  0.41800000000E+01 0.  1.
        -11    1    3    3    0    0  0.11768087706E+02  0.17065752784E+02 -0.52870724725E+02  0.56789447429E+02  0.00000000000E+00 0. -1.
         11    1    3    3    0    0 -0.80347639907E+02 -0.47099428289E+02 -0.13854910230E+03  0.16694296371E+03  0.00000000000E+00 0.  1.
</event>
<event>
 7    1  0.4687179E-006  0.1239913E+03  0.7561462E-02  0.1236654E+00
          1   -1    0    0  501    0  0.00000000000E+00  0.00000000000E+00  0.19413653537E+02  0.19413653537E+02  0.00000000000E+00 0. -1.
         -1   -1    0    0    0  501 -0.00000000000E+00 -0.00000000000E+00 -0.92806343285E+03  0.92806343285E+03  0.00000000000E+00 0.  1.
         23    2    1    2    0    0 -0.18742682486E+01  0.67590485173E+02 -0.26556611969E+03  0.28885873687E+03  0.91334655932E+02 0.  0.
          5    1    1    2  502    0  0.13363576115E+02  0.32670027235E+02 -0.97791540073E+02  0.10405082199E+03  0.41800000000E+01 0.  1.
         -5    1    1    2    0  502 -0.11489307866E+02 -0.10026051241E+03 -0.54529211955E+03  0.55456752753E+03  0.41800000000E+01 0.  1.
        -11    1    3    3    0    0  0.27035631799E+02  0.76537837821E+02 -0.16580395721E+03  0.18460747068E+03  0.00000000000E+00 0.  1.
         11    1    3    3    0    0 -0.28909900047E+02 -0.89473526475E+01 -0.99762162481E+02  0.10425126619E+03  0.00000000000E+00 0. -1.
</event>
<event>
 7    1  0.4687179E-006  0.1294814E+03  0.7561462E-02  0.1228227E+00
         -2   -1    0    0    0  501 -0.00000000000E+00  0.00000000000E+00  0.61484991984E+02  0.61484991984E+02  0.00000000000E+00 0.  1.
          2   -1    0    0  501    0  0.00000000000E+00 -0.00000000000E+00 -0.35564145538E+03  0.35564145538E+03  0.00000000000E+00 0. -1.
         23    2    1    2    0    0 -0.68767049821E+02  0.70991585144E+02 -0.16364956929E+03  0.21109801382E+03  0.89512443865E+02 0.  0.
          5    1    1    2  502    0  0.32262545494E+01  0.33286858896E+02 -0.44165576468E+02  0.55556225919E+02  0.41800000000E+01 0.  1.
         -5    1    1    2    0  502  0.65540795272E+02 -0.10427844404E+03 -0.86341317633E+02  0.15047220762E+03  0.41800000000E+01 0.  1.
        -11    1    3    3    0    0 -0.26986158256E+02  0.11518047129E+02 -0.12574998938E+03  0.12912775835E+03  0.00000000000E+00 0. -1.
         11    1    3    3    0    0 -0.41780891565E+02  0.59473538015E+02 -0.37899579907E+02  0.81970255466E+02  0.00000000000E+00 0.  1.
</event>
<event>
 7    1  0.4687179E-006  0.1415881E+03  0.7561462E-02  0.1211208E+00
         -3   -1    0    0    0  501 -0.00000000000E+00  0.00000000000E+00  0.25781340631E+02  0.25781340631E+02  0.00000000000E+00 0.  1.
          3   -1    0    0  501    0  0.00000000000E+00 -0.00000000000E+00 -0.83802331320E+03  0.83802331320E+03  0.00000000000E+00 0. -1.
         23    2    1    2    0    0 -0.60332567123E+02 -0.77005579188E+02 -0.37647682082E+03  0.39965980573E+03  0.91778460557E+02 0.  0.
          5    1    1    2  502    0 -0.33504785095E+02  0.23719838933E+02 -0.20827685497E+03  0.21232503880E+03  0.41800000000E+01 0. -1.
         -5    1    1    2    0  502  0.93837352218E+02  0.53285740256E+02 -0.22748829678E+03  0.25181980931E+03  0.41800000000E+01 0.  1.
        -11    1    3    3    0    0  0.22296263023E+02 -0.21030410971E+01 -0.54854038162E+02  0.59249570710E+02  0.00000000000E+00 0.  1.
         11    1    3    3    0    0 -0.82628830146E+02 -0.74902538091E+02 -0.32162278265E+03  0.34041023502E+03  0.00000000000E+00 0. -1.
</event>
<event>
 7    1  0.4687179E-006  0.1241962E+03  0.7561462E-02  0.1236331E+00
         -1   -1    0    0    0  501 -0.00000000000E+00  0.00000000000E+00  0.30354645258E+03  0.30354645258E+03  0.00000000000E+00 0.  1.
          1   -1    0    0  501    0  0.00000000000E+00 -0.00000000000E+00 -0.64695128285E+02  0.64695128285E+02  0.00000000000E+00 0. -1.
         23    2    1    2    0    0 -0.13769544533E+02 -0.80174425496E+02  0.64017501778E+02  0.13839036780E+03  0.91848323366E+02 0.  0.
          5    1    1    2  502    0  0.55335266820E+02  0.90203230332E+02  0.13129228362E+03  0.16868239580E+03  0.41800000000E+01 0.  1.
         -5    1    1    2    0  502 -0.41565722287E+02 -0.10028804836E+02  0.43541538894E+02  0.61168817259E+02  0.41800000000E+01 0.  1.
        -11    1    3    3    0    0 -0.16342843399E+02  0.27389740012E+01 -0.16071480676E+02  0.23084258707E+02  0.00000000000E+00 0. -1.
         11    1    3    3    0    0  0.25732988658E+01 -0.82913399497E+02  0.80088982454E+02  0.11530610909E+03  0.00000000000E+00 0.  1.
</event>
<event>
 7    1  0.4687179E-006  0.9546979E+02  0.7561462E-02  0.1290122E+00
         -2   -1    0    0    0  501 -0.00000000000E+00  0.00000000000E+00  0.13445220714E+03  0.13445220714E+03  0.00000000000E+00 0.  1.
          2   -1    0    0  501    0  0.00000000000E+00 -0.00000000000E+00 -0.21663611586E+03  0.21663611586E+03  0.00000000000E+00 0. -1.
         23    2    1    2    0    0  0.54493167461E+02 -0.60840231852E+02 -0.14401785135E+03  0.18939949774E+03  0.91978199193E+02 0.  0.
          5    1    1    2  502    0 -0.12459614500E+02 -0.10534676023E+02  0.75742752332E+02  0.77592901243E+02  0.41800000000E+01 0.  1.
         -5    1    1    2    0  502 -0.42033552961E+02  0.71374907875E+02 -0.13908809715E+02  0.84095924018E+02  0.41800000000E+01 0.  1.
        -11    1    3    3    0    0  0.34093246443E+02 -0.87235469234E+01 -0.32616928921E+00  0.35193125897E+02  0.00000000000E+00 0.  1.
         11    1    3    3    0    0  0.20399921018E+02 -0.52116684929E+02 -0.14369168206E+03  0.15420637184E+03  0.00000000000E+00 0. -1.
</event>
<event>
 7    1  0.4687179E-006  0.1013932E+03  0.7561462E-02  0.1277393E+00
         -1   -1    0    0    0  501 -0.00000000000E+00  0.00000000000E+00  0.13678514431E+03  0.13678514431E+03  0.00000000000E+00 0.  1.
          1   -1    0    0  501    0  0.00000000000E+00 -0.00000000000E+00 -0.10913680142E+03  0.10913680142E+03  0.00000000000E+00 0. -1.
         23    2    1    2    0    0  0.53262835439E+02 -0.15983626069E+02 -0.11026424844E+02  0.10366822172E+03  0.86793503257E+02 0.  0.
          5    1    1    2  502    0 -0.73257125269E+02 -0.19021563630E+01 -0.21292214733E+02  0.76426797720E+02  0.41800000000E+01 0. -1.
         -5    1    1    2    0  502  0.19994289830E+02  0.17885782432E+02  0.59966982469E+02  0.65826926295E+02  0.41800000000E+01 0. -1.
        -11    1    3    3    0    0 -0.23307130168E+02  0.25725817580E+01 -0.81661320408E+01  0.24829945753E+02  0.00000000000E+00 0. -1.
         11    1    3    3    0    0  0.76569965607E+02 -0.18556207827E+02 -0.28602928032E+01  0.78838275964E+02  0.00000000000E+00 0.  1.
</event>
<event>
 7    1  0.4687179E-006  0.1050623E+03  0.7561462E-02  0.1269997E+00
         -2   -1    0    0    0  501 -0.00000000000E+00  0.00000000000E+00  0.34439289178E+02  0.34439289178E+02  0.00000000000E+00 0.  1.
          2   -1    0    0  501    0  0.00000000000E+00 -0.00000000000E+00 -0.40379164628E+03  0.40379164628E+03  0.00000000000E+00 0. -1.
         23    2    1    2    0    0  0.36910856571E+02 -0.26006429028E+02 -0.18330576682E+03  0.20954024724E+03  0.90925053638E+02 0.  0.
          5    1    1    2  502    0  0.24570486595E+02  0.49982454465E+02 -0.41006447261E+02  0.69288929006E+02  0.41800000000E+01 0. -1.
         -5    1    1    2    0  502 -0.61481343166E+02 -0.23976025437E+02 -0.14504014302E+03  0.15940175922E+03  0.41800000000E+01 0. -1.
        -11    1    3    3    0    0 -0.18999939908E+02 -0.26045008102E+02 -0.22559549959E+02  0.39348106154E+02  0.00000000000E+00 0.  1.
         11    1    3    3    0    0  0.55910796479E+02  0.38579074436E-01 -0.16074621686E+03  0.17019214108E+03  0.00000000000E+00 0. -1.
</event>
<event>
 7    1  0.4687179E-006  0.1309424E+03  0.7561462E-02  0.1226064E+00
          2   -1    0    0  501    0  0.00000000000E+00  0.00000000000E+00  0.20471488638E+03  0.20471488638E+03  0.00000000000E+00 0. -1.
         -2   -1    0    0    0  501 -0.00000000000E+00 -0.00000000000E+00 -0.12357333601E+03  0.12357333601E+03  0.00000000000E+00 0.  1.
         23    2    1    2    0    0 -0.26603134560E+02 -0.97120980667E+02  0.92044193829E+02  0.16734123145E+03  0.96905843338E+02 0.  0.
          5    1    1    2  502    0 -0.44741035110E+02  0.71905128666E+02 -0.54311226358E+01  0.84965153118E+02  0.41800000000E+01 0.  1.
         -5    1    1    2    0  502  0.71344169669E+02  0.25215852000E+02 -0.54715208148E+01  0.75981837816E+02  0.41800000000E+01 0.  1.
        -11    1    3    3    0    0 -0.23289569996E+02 -0.65551311180E+02 -0.43379157201E+00  0.69566993920E+02  0.00000000000E+00 0. -1.
         11    1    3    3    0    0 -0.33135645641E+01 -0.31569669487E+02  0.92477985401E+02  0.97774237534E+02  0.00000000000E+00 0.  1.
</event>
<event>
 7    1  0.4687179E-006  0.1418276E+03  0.7561462E-02  0.1210891E+00
         -2   -1    0    0    0  501 -0.00000000000E+00  0.00000000000E+00  0.17015031182E+03  0.17015031182E+03  0.00000000000E+00 0.  1.
          2   -1    0    0  501    0  0.00000000000E+00 -0.00000000000E+00 -0.33928230483E+03  0.33928230483E+03  0.00000000000E+00 0. -1.
         23    2    1    2    0    0 -0.80359615109E+02  0.93384387571E+02 -0.27344748885E+03  0.31361926518E+03  0.91679892825E+02 0.  0.
          5    1    1    2  502    0 -0.21772157907E+02 -0.17349273547E+02  0.49878000410E+02  0.57274003504E+02  0.41800000000E+01 0. -1.
         -5    1    1    2    0  502  0.10213177302E+03 -0.76035114024E+02  0.54437495442E+02  0.13853934796E+03  0.41800000000E+01 0.  1.
        -11    1    3    3    0    0 -0.30493364714E+02  0.12224099228E+02 -0.11364463580E+02  0.34762406792E+02  0.00000000000E+00 0.  1.
         11    1    3    3    0    0 -0.49866250395E+02  0.81160288343E+02 -0.26208302528E+03  0.27885685839E+03  0.00000000000E+00 0. -1.
</event>
<event>
 7    1  0.4687179E-006  0.2319859E+03  0.7561462E-02  0.1125250E+00
         -2   -1    0    0    0  501 -0.00000000000E+00  0.00000000000E+00  0.16045234813E+03  0.16045234813E+03  0.00000000000E+00 0.  1.
          2   -1    0    0  501    0  0.00000000000E+00 -0.00000000000E+00 -0.37040701746E+03  0.37040701746E+03  0.00000000000E+00 0. -1.
         23    2    1    2    0    0 -0.91849918321E+02  0.19665203911E+03 -0.11150392167E+03  0.26169322564E+03  0.94561026950E+02 0.  0.
          5    1    1    2  502    0  0.11553225491E+03 -0.18621873501E+03 -0.69115872531E+02  0.22982514098E+03  0.41800000000E+01 0. -1.
         -5    1    1    2    0  502 -0.23682336587E+02 -0.10433304102E+02 -0.29334875132E+02  0.39340998967E+02  0.41800000000E+01 0. -1.
        -11    1    3    3    0    0 -0.64086592842E+02  0.16168645996E+03 -0.41734909418E+02  0.17886141389E+03  0.00000000000E+00 0.  1.
         11    1    3    3    0    0 -0.27763325479E+02  0.34965579153E+02 -0.69769012252E+02  0.82831811750E+02  0.00000000000E+00 0. -1.
</event>
<event>
 7    1  0.4687179E-006  0.1369035E+03  0.7561462E-02  0.1217557E+00
          1   -1    0    0  501    0  0.00000000000E+00  0.00000000000E+00  0.17871099655E+03  0.17871099655E+03  0.00000000000E+00 0. -1.
         -1   -1    0    0    0  501 -0.00000000000E+00 -0.00000000000E+00 -0.12164854030E+03  0.12164854030E+03  0.00000000000E+00 0.  1.
         23    2    1    2    0    0 -0.54498660364E+02  0.62779408871E+02  0.81656108889E+02  0.14815901451E+03  0.91498717490E+02 0.  0.
          5    1    1    2  502    0 -0.39883374403E+02 -0.30428677953E+02 -0.79853195653E+01  0.50968870149E+02  0.41800000000E+01 0. -1.
         -5    1    1    2    0  502  0.94382034767E+02 -0.32350730917E+02 -0.16608333074E+02  0.10123165219E+03  0.41800000000E+01 0. -1.
        -11    1    3    3    0    0 -0.20639548890E+02  0.82079053230E+02  0.57092914002E+02  0.10209095350E+03  0.00000000000E+00 0.  1.
         11    1    3    3    0    0 -0.33859111474E+02 -0.19299644359E+02  0.24563194886E+02  0.46068061010E+02  0.00000000000E+00 0. -1.
</event>
<event>
 7    1  0.4687179E-006  0.1031536E+03  0.7561462E-02  0.1273801E+00
         -1   -1    0    0    0  501 -0.00000000000E+00  0.00000000000E+00  0.81342275935E+02  0.81342275935E+02  0.00000000000E+00 0.  1.
          1   -1    0    0  501    0  0.00000000000E+00 -0.00000000000E+00 -0.21945912141E+03  0.21945912141E+03  0.00000000000E+00 0. -1.
         23    2    1    2    0    0 -0.39283316536E+01  0.15931491187E+02 -0.15369539961E+03  0.18038837553E+03  0.92997021259E+02 0.  0.
          5    1    1    2  502    0 -0.55317452848E+02 -0.23833394980E+01 -0.58539951131E+01  0.55834062681E+02  0.41800000000E+01 0. -1.
         -5    1    1    2    0  502  0.59245784501E+02 -0.13548151689E+02  0.21432549250E+02  0.64578959133E+02  0.41800000000E+01 0.  1.
        -11    1    3    3    0    0 -0.31505247953E+02 -0.25198459457E+02 -0.42150111460E+02  0.58345307469E+02  0.00000000000E+00 0.  1.
         11    1    3    3    0    0  0.27576916300E+02  0.41129950644E+02 -0.11154528815E+03  0.12204306806E+03  0.00000000000E+00 0. -1.
</event>
<event>
 7    1  0.4687179E-006  0.1137621E+03  0.7561462E-02  0.1253757E+00
          1   -1    0    0  501    0  0.00000000000E+00  0.00000000000E+00  0.11901964455E+03  0.11901964455E+03  0.00000000000E+00 0. -1.
         -1   -1    0    0    0  501 -0.00000000000E+00 -0.00000000000E+00 -0.25347511101E+03  0.25347511101E+03  0.00000000000E+00 0.  1.
         23    2    1    2    0    0 -0.48805904290E+02 -0.98620532862E+02  0.20915233400E+02  0.14469138871E+03  0.91597626522E+02 0.  0.
          5    1    1    2  502    0  0.24741511870E+02  0.17375155297E+02 -0.13783372601E+03  0.14117240118E+03  0.41800000000E+01 0. -1.
         -5    1    1    2    0  502  0.24064392420E+02  0.81245377565E+02 -0.17536973855E+02  0.86630965654E+02  0.41800000000E+01 0. -1.
        -11    1    3    3    0    0  0.82669400617E+00 -0.14291947965E+02  0.42191915233E+02  0.44554471276E+02  0.00000000000E+00 0. -1.
         11    1    3    3    0    0 -0.49632598296E+02 -0.84328584897E+02 -0.21276681833E+02  0.10013691744E+03  0.00000000000E+00 0.  1.
</event>
<event>
 7    1  0.4687179E-006  0.1548951E+03  0.7561462E-02  0.1194584E+00
         -1   -1    0    0    0  501 -0.00000000000E+00  0.00000000000E+00  0.34981708977E+03  0.34981708977E+03  0.00000000000E+00 0.  1.
          1   -1    0    0  501    0  0.00000000000E+00 -0.00000000000E+00 -0.83938800663E+02  0.83938800663E+02  0.00000000000E+00 0. -1.
         23    2    1    2    0    0  0.24267875119E+02  0.12768676742E+03  0.89617250996E+02  0.18154730313E+03  0.89640009264E+02 0.  0.
          5    1    1    2  502    0  0.45897451075E+02 -0.21611379066E+02  0.69238002853E+02  0.85936029460E+02  0.41800000000E+01 0.  1.
         -5    1    1    2    0  502 -0.70165326194E+02 -0.10607538836E+03  0.10702303525E+03  0.16627255784E+03  0.41800000000E+01 0.  1.
        -11    1    3    3    0    0  0.23154480401E+02  0.66062658897E+02 -0.32614387398E+01  0.70078825945E+02  0.00000000000E+00 0. -1.
         11    1    3    3    0    0  0.11133947178E+01  0.61624108525E+02  0.92878689736E+02  0.11146847719E+03  0.00000000000E+00 0.  1.
</event>
<event>
 7    1  0.4687179E-006  0.9045278E+02  0.7561462E-02  0.1301759E+00
          2   -1    0    0  501    0  0.00000000000E+00  0.00000000000E+00  0.11624625731E+03  0.11624625731E+03  0.00000000000E+00 0. -1.
         -2   -1    0    0    0  501 -0.00000000000E+00 -0.00000000000E+00 -0.10353878153E+03  0.10353878153E+03  0.00000000000E+00 0.  1.
         23    2    1    2    0    0 -0.10218984740E+02  0.17268676795E+02  0.20837741423E+02  0.93154290095E+02  0.88548717937E+02 0.  0.
          5    1    1    2  502    0 -0.39143902336E+02 -0.11424735609E+02  0.40028994917E+02  0.57293651550E+02  0.41800000000E+01 0. -1.
         -5    1    1    2    0  502  0.49362887076E+02 -0.58439411861E+01 -0.48159260560E+02  0.69337097190E+02  0.41800000000E+01 0. -1.
        -11    1    3    3    0    0 -0.31609638593E+02 -0.26543725598E+02  0.35663947938E+01  0.41430155593E+02  0.00000000000E+00 0. -1.
         11    1    3    3    0    0  0.21390653853E+02  0.43812402392E+02  0.17271346629E+02  0.51724134503E+02  0.00000000000E+00 0.  1.
</event>
<event>
 7    1  0.4687179E-006  0.1647488E+03  0.7561462E-02  0.1183437E+00
         -1   -1    0    0    0  501 -0.00000000000E+00  0.00000000000E+00  0.92860295440E+02  0.92860295440E+02  0.00000000000E+00 0.  1.
          1   -1    0    0  501    0  0.00000000000E+00 -0.00000000000E+00 -0.35102761170E+03  0.35102761170E+03  0.00000000000E+00 0. -1.
         23    2    1    2    0    0  0.67391297960E+02  0.11434040036E+03 -0.19130498360E+03  0.24963845500E+03  0.90035811052E+02 0.  0.
          5    1    1    2  502    0 -0.97656502741E+02 -0.82540529800E+02 -0.19287754984E+02  0.12938014330E+03  0.41800000000E+01 0.  1.
         -5    1    1    2    0  502  0.30265204780E+02 -0.31799870559E+02 -0.47574577676E+02  0.64869308838E+02  0.41800000000E+01 0.  1.
        -11    1    3    3    0    0 -0.11699521454E+02  0.60895569019E+02 -0.52896717909E+02  0.81505900976E+02  0.00000000000E+00 0.  1.
         11    1    3    3    0    0  0.79090819415E+02  0.53444831340E+02 -0.13840826569E+03  0.16813255403E+03  0.00000000000E+00 0. -1.
</event>
<event>
 7    1  0.4687179E-006  0.2269615E+03  0.7561462E-02  0.1128797E+00
          2   -1    0    0  501    0  0.00000000000E+00  0.00000000000E+00  0.32640123507E+02  0.32640123507E+02  0.00000000000E+00 0. -1.
         -2   -1    0    0    0  501 -0.00000000000E+00 -0.00000000000E+00 -0.21952984936E+04  0.21952984936E+04  0.00000000000E+00 0.  1.
         23    2    1    2    0    0  0.59868904564E+02 -0.21121108857E+03 -0.61450730892E+03  0.65930408395E+03  0.94171294583E+02 0.  0.
          5    1    1    2  502    0 -0.30251173232E+02  0.12637321192E+03 -0.12619448761E+04  0.12686243199E+04  0.41800000000E+01 0.  1.
         -5    1    1    2    0  502 -0.29617731332E+02  0.84837876647E+02 -0.28620618504E+03  0.30001021329E+03  0.41800000000E+01 0.  1.
        -11    1    3    3    0    0 -0.20359498887E+02 -0.45320327618E+02 -0.82705680332E+02  0.96481453397E+02  0.00000000000E+00 0.  1.
         11    1    3    3    0    0  0.80228403452E+02 -0.16589076095E+03 -0.53180162859E+03  0.56282263055E+03  0.00000000000E+00 0. -1.
</event>
<event>
 7    1  0.4687179E-006  0.1601834E+03  0.7561462E-02  0.1188490E+00
          2   -1    0    0  501    0  0.00000000000E+00  0.00000000000E+00  0.88156112550E+02  0.88156112550E+02  0.00000000000E+00 0. -1.
         -2   -1    0    0    0  501 -0.00000000000E+00 -0.00000000000E+00 -0.39856278724E+03  0.39856278724E+03  0.00000000000E+00 0.  1.
         23    2    1    2    0    0 -0.11770494564E+01  0.13209595938E+03 -0.44913285043E+02  0.16489985823E+03  0.87886473031E+02 0.  0.
          5    1    1    2  502    0  0.52132424608E+02 -0.10906846793E+03 -0.21331951602E+03  0.24522725930E+03  0.41800000000E+01 0. -1.
         -5    1    1    2    0  502 -0.50955375151E+02 -0.23027491449E+02 -0.52173873627E+02  0.76591782252E+02  0.41800000000E+01 0. -1.
        -11    1    3    3    0    0  0.26122019056E+02  0.44690123997E+02  0.16861005035E+02  0.54441349664E+02  0.00000000000E+00 0. -1.
         11    1    3    3    0    0 -0.27299068512E+02  0.87405835381E+02 -0.61774290078E+02  0.11045850857E+03  0.00000000000E+00 0.  1.
</event>
<event>
 7    1  0.4687179E-006  0.2632341E+03  0.7561462E-02  0.1105216E+00
         -1   -1    0    0    0  501 -0.00000000000E+00  0.00000000000E+00  0.83085969847E+02  0.83085969847E+02  0.00000000000E+00 0.  1.
          1   -1    0    0  501    0  0.00000000000E+00 -0.00000000000E+00 -0.13112350472E+04  0.13112350472E+04  0.00000000000E+00 0. -1.
         23    2    1    2    0    0  0.21558263828E+03  0.12802371363E+03 -0.99432362975E+03  0.10293642549E+04  0.89695838488E+02 0.  0.
          5    1    1    2  502    0 -0.17573508295E+03 -0.14530915867E+03 -0.22512370755E+03  0.32046174042E+03  0.41800000000E+01 0. -1.
         -5    1    1    2    0  502 -0.39847555326E+02  0.17285445036E+02 -0.87017400318E+01  0.44495021689E+02  0.41800000000E+01 0. -1.
        -11    1    3    3    0    0  0.17652706023E+03  0.82711877542E+02 -0.86758926193E+03  0.88922111147E+03  0.00000000000E+00 0. -1.
         11    1    3    3    0    0  0.39055578051E+02  0.45311836088E+02 -0.12673436782E+03  0.14014314344E+03  0.00000000000E+00 0.  1.
</event>
<event>
 7    1  0.4687179E-006  0.1162366E+03  0.7561462E-02  0.1249438E+00
         -4   -1    0    0    0  501 -0.00000000000E+00  0.00000000000E+00  0.61586151413E+02  0.61586151413E+02  0.00000000000E+00 0.  1.
          4   -1    0    0  501    0  0.00000000000E+00 -0.00000000000E+00 -0.28996687819E+03  0.28996687819E+03  0.00000000000E+00 0. -1.
         23    2    1    2    0    0  0.51141141266E+02  0.42144092278E+02 -0.15995129817E+03  0.19432629661E+03  0.88242568665E+02 0.  0.
          5    1    1    2  502    0 -0.20035855037E+02 -0.78241623860E+02 -0.73295733262E+02  0.10914634261E+03  0.41800000000E+01 0.  1.
         -5    1    1    2    0  502 -0.31105286229E+02  0.36097531582E+02  0.48663046560E+01  0.48080390377E+02  0.41800000000E+01 0.  1.
        -11    1    3    3    0    0  0.46324782343E+02 -0.13234184173E+02 -0.10792532536E+03  0.11819054507E+03  0.00000000000E+00 0. -1.
         11    1    3    3    0    0  0.48163589229E+01  0.55378276451E+02 -0.52025972807E+02  0.76135751539E+02  0.00000000000E+00 0.  1.
</event>
<event>
 7    1  0.4687179E-006  0.1392705E+03  0.7561462E-02  0.1214314E+00
         -2   -1    0    0    0  501 -0.00000000000E+00  0.00000000000E+00  0.11914338421E+03  0.11914338421E+03  0.00000000000E+00 0. -1.
          2   -1    0    0  501    0  0.00000000000E+00 -0.00000000000E+00 -0.19798312139E+03  0.19798312139E+03  0.00000000000E+00 0.  1.
         23    2    1    2    0    0 -0.77260015736E+02 -0.73669227766E+02 -0.55489424888E+02  0.15102941334E+03  0.91293714288E+02 0.  0.
          5    1    1    2  502    0  0.25963165552E+02 -0.35250426675E+02 -0.65550820739E+01  0.44464818084E+02  0.41800000000E+01 0. -1.
         -5    1    1    2    0  502  0.51296850184E+02  0.10891965444E+03 -0.16795230216E+02  0.12163227417E+03  0.41800000000E+01 0. -1.
        -11    1    3    3    0    0 -0.51036370810E+02 -0.20863291400E+02 -0.71162698060E+02  0.90022873031E+02  0.00000000000E+00 0.  1.
         11    1    3    3    0    0 -0.26223644926E+02 -0.52805936366E+02  0.15673273172E+02  0.61006540310E+02  0.00000000000E+00 0. -1.
</event>
<event>
 7    1  0.4687179E-006  0.1215825E+03  0.7561462E-02  0.1240509E+00
          2   -1    0    0  501    0  0.00000000000E+00  0.00000000000E+00  0.22895256440E+02  0.22895256440E+02  0.00000000000E+00 0. -1.
         -2   -1    0    0    0  501 -0.00000000000E+00 -0.00000000000E+00 -0.78907826388E+03  0.78907826388E+03  0.00000000000E+00 0.  1.
         23    2    1    2    0    0 -0.47964353586E+02  0.63084457106E+02 -0.36761820806E+03  0.38678870639E+03  0.90455118981E+02 0.  0.
          5    1    1    2  502    0  0.26813757107E+02 -0.10086756548E+03 -0.27325215731E+03  0.29253624940E+03  0.41800000000E+01 0.  1.
         -5    1    1    2    0  502  0.21150596479E+02  0.37783108378E+02 -0.12531264206E+03  0.13264856453E+03  0.41800000000E+01 0.  1.
        -11    1    3    3    0    0 -0.14721354687E+02  0.60049759977E+02 -0.33302559588E+03  0.33871631119E+03  0.00000000000E+00 0.  1.
         11    1    3    3    0    0 -0.33242998899E+02  0.30346971286E+01 -0.34592612180E+02  0.48072395196E+02  0.00000000000E+00 0. -1.
</event>
<event>
 7    1  0.4687179E-006  0.1027499E+03  0.7561462E-02  0.1274617E+00
          2   -1    0    0  501    0  0.00000000000E+00  0.00000000000E+00  0.43828535585E+03  0.43828535585E+03  0.00000000000E+00 0. -1.
         -2   -1    0    0    0  501 -0.00000000000E+00 -0.00000000000E+00 -0.33522523598E+02  0.33522523598E+02  0.00000000000E+00 0.  1.
         23    2    1    2    0    0  0.26974468675E+02 -0.31033285295E+02  0.24020478855E+03  0.26104237081E+03  0.93563305617E+02 0.  0.
          5    1    1    2  502    0  0.17162904134E+02  0.62315208949E+02  0.43271683267E+02  0.77895195728E+02  0.41800000000E+01 0.  1.
         -5    1    1    2    0  502 -0.44137372808E+02 -0.31281923655E+02  0.12128636043E+03  0.13287031291E+03  0.41800000000E+01 0.  1.
        -11    1    3    3    0    0  0.85251818662E+01 -0.55318140826E+02  0.21280919706E+03  0.22004665365E+03  0.00000000000E+00 0. -1.
         11    1    3    3    0    0  0.18449286809E+02  0.24284855531E+02  0.27395591486E+02  0.40995717152E+02  0.00000000000E+00 0.  1.
</event>
<event>
 7    1  0.4687179E-006  0.9977289E+02  0.7561462E-02  0.1280774E+00
         -1   -1    0    0    0  501 -0.00000000000E+00  0.00000000000E+00  0.51659095289E+03  0.51659095289E+03  0.00000000000E+00 0.  1.
          1   -1    0    0  501    0  0.00000000000E+00 -0.00000000000E+00 -0.35685572849E+02  0.35685572849E+02  0.00000000000E+00 0. -1.
         23    2    1    2    0    0 -0.13163731853E+02  0.51237714841E+02  0.13101718284E+03  0.17695968207E+03  0.10653938061E+03 0.  0.
          5    1    1    2  502    0 -0.68191724770E+01 -0.85611313133E+02  0.29588616052E+03  0.30812641957E+03  0.41800000000E+01 0.  1.
         -5    1    1    2    0  502  0.19982904330E+02  0.34373598292E+02  0.54002036678E+02  0.67190424098E+02  0.41800000000E+01 0.  1.
        -11    1    3    3    0    0  0.17610813316E+02  0.34047256571E+02  0.13605449351E+03  0.14135127035E+03  0.00000000000E+00 0.  1.
         11    1    3    3    0    0 -0.30774545169E+02  0.17190458270E+02 -0.50373106738E+01  0.35608411713E+02  0.00000000000E+00 0. -1.
</event>
<event>
 7    1  0.4687179E-006  0.9044194E+02  0.7561462E-02  0.1301785E+00
          4   -1    0    0  501    0  0.00000000000E+00  0.00000000000E+00  0.56278077402E+03  0.56278077402E+03  0.00000000000E+00 0. -1.
         -4   -1    0    0    0  501 -0.00000000000E+00 -0.00000000000E+00 -0.86803200782E+02  0.86803200782E+02  0.00000000000E+00 0.  1.
         23    2    1    2    0    0 -0.14297696463E+02 -0.58045974322E+02  0.33905335967E+03  0.35622793244E+03  0.91473492823E+02 0.  0.
          5    1    1    2  502    0  0.23203614717E+02  0.60227744096E+02  0.20992508413E+03  0.21966292870E+03  0.41800000000E+01 0. -1.
         -5    1    1    2    0  502 -0.89059182547E+01 -0.21817697735E+01 -0.73000870561E+02  0.73693113667E+02  0.41800000000E+01 0.  1.
        -11    1    3    3    0    0 -0.34743678636E+02  0.91190965094E+01  0.15815995994E+03  0.16218771240E+03  0.00000000000E+00 0. -1.
         11    1    3    3    0    0  0.20445982173E+02 -0.67165070832E+02  0.18089339973E+03  0.19404022004E+03  0.00000000000E+00 0.  1.
</event>
<event>
 7    1  0.4687179E-006  0.1161334E+03  0.7561462E-02  0.1249616E+00
          1   -1    0    0  501    0  0.00000000000E+00  0.00000000000E+00  0.10433346095E+03  0.10433346095E+03  0.00000000000E+00 0. -1.
         -1   -1    0    0    0  501 -0.00000000000E+00 -0.00000000000E+00 -0.18934452230E+03  0.18934452230E+03  0.00000000000E+00 0.  1.
         23    2    1    2    0    0  0.68213114826E+02  0.47634825111E+02 -0.33249113421E+01  0.12267318620E+03  0.90086347354E+02 0.  0.
          5    1    1    2  502    0  0.68827564309E-01 -0.74981950047E+02 -0.53123374622E+02  0.91988384599E+02  0.41800000000E+01 0.  1.
         -5    1    1    2    0  502 -0.68281942390E+02  0.27347124936E+02 -0.28562775388E+02  0.79016412451E+02  0.41800000000E+01 0.  1.
        -11    1    3    3    0    0  0.57774192702E+02  0.37078544978E+02 -0.42527012202E+02  0.80754087246E+02  0.00000000000E+00 0.  1.
         11    1    3    3    0    0  0.10438922124E+02  0.10556280133E+02  0.39202100860E+02  0.41919098955E+02  0.00000000000E+00 0. -1.
</event>
<event>
 7    1  0.4687179E-006  0.8274640E+02  0.7561462E-02  0.1321433E+00
         -2   -1    0    0    0  501 -0.00000000000E+00  0.00000000000E+00  0.62490658538E+02  0.62490658538E+02  0.00000000000E+00 0.  1.
          2   -1    0    0  501    0  0.00000000000E+00 -0.00000000000E+00 -0.19374455178E+03  0.19374455178E+03  0.00000000000E+00 0. -1.
         23    2    1    2    0    0  0.17166998003E+01 -0.16130619714E+02 -0.35246128946E+02  0.97708287297E+02  0.89674276414E+02 0.  0.
          5    1    1    2  502    0  0.37005359324E+02 -0.24635331830E+02 -0.91686527652E+02  0.10198131175E+03  0.41800000000E+01 0.  1.
         -5    1    1    2    0  502 -0.38722059125E+02  0.40765951543E+02 -0.43212366449E+01  0.56545611273E+02  0.41800000000E+01 0.  1.
        -11    1    3    3    0    0  0.13014398024E+02  0.21521395180E+02 -0.49799708244E+02  0.55790285424E+02  0.00000000000E+00 0. -1.
         11    1    3    3    0    0 -0.11297698223E+02 -0.37652014893E+02  0.14553579299E+02  0.41918001874E+02  0.00000000000E+00 0.  1.
</event>
<event>
 7    1  0.4687179E-006  0.1111534E+03  0.7561462E-02  0.1258449E+00
          2   -1    0    0  501    0  0.00000000000E+00  0.00000000000E+00  0.14931078630E+03  0.14931078630E+03  0.00000000000E+00 0.  1.
         -2   -1    0    0    0  501 -0.00000000000E+00 -0.00000000000E+00 -0.11424389841E+03  0.11424389841E+03  0.00000000000E+00 0. -1.
         23    2    1    2    0    0  0.66025040935E+02 -0.33999044445E+02  0.15501853184E+02  0.11675157091E+03  0.88743342303E+02 0.  0.
          5    1    1    2  502    0  0.49143679462E+01 -0.29186879324E+02  0.39609111199E+02  0.49622364182E+02  0.41800000000E+01 0. -1.
         -5    1    1    2    0  502 -0.70939408881E+02  0.63185923769E+02 -0.20044076497E+02  0.97180749624E+02  0.41800000000E+01 0. -1.
        -11    1    3    3    0    0  0.56740702647E+02  0.52584277115E+01  0.39939203275E+02  0.69586624844E+02  0.00000000000E+00 0.  1.
         11    1    3    3    0    0  0.92843382878E+01 -0.39257472156E+02 -0.24437350091E+02  0.47164946062E+02  0.00000000000E+00 0. -1.
</event>
<event>
 7    1  0.4687179E-006  0.1157078E+03  0.7561462E-02  0.1250351E+00
          2   -1    0    0  501    0  0.00000000000E+00  0.00000000000E+00  0.76800328589E+03  0.76800328589E+03  0.00000000000E+00 0. -1.
         -2   -1    0    0    0  501 -0.00000000000E+00 -0.00000000000E+00 -0.27767107732E+02  0.27767107732E+02  0.00000000000E+00 0.  1.
         23    2    1    2    0    0 -0.34090395362E+02 -0.74977662172E+02  0.47966221946E+03  0.49522137369E+03  0.91567239255E+02 0.  0.
          5    1    1    2  502    0  0.29750881885E+02  0.91099583668E+02  0.98241205813E+02  0.13730643116E+03  0.41800000000E+01 0. -1.
         -5    1    1    2    0  502  0.43395134772E+01 -0.16121921496E+02  0.16233275288E+03  0.16324258877E+03  0.41800000000E+01 0. -1.
        -11    1    3    3    0    0  0.16837488234E+02 -0.64004707838E+02  0.19760924626E+03  0.20839749960E+03  0.00000000000E+00 0.  1.
         11    1    3    3    0    0 -0.50927883596E+02 -0.10972954334E+02  0.28205297320E+03  0.28682387409E+03  0.00000000000E+00 0. -1.
</event>
<event>
 7    1  0.4687179E-006  0.1505378E+03  0.7561462E-02  0.1199814E+00
          1   -1    0    0  501    0  0.00000000000E+00  0.00000000000E+00  0.96928676664E+03  0.96928676664E+03  0.00000000000E+00 0. -1.
         -1   -1    0    0    0  501 -0.00000000000E+00 -0.00000000000E+00 -0.24278205860E+02  0.24278205860E+02  0.00000000000E+00 0.  1.
         23    2    1    2    0    0  0.16222773264E+02 -0.10121168550E+03  0.50996832677E+03  0.52943834545E+03  0.98642200251E+02 0.  0.
          5    1    1    2  502    0 -0.32893765561E+02  0.12622801509E+03  0.37027199900E+03  0.39259946160E+03  0.41800000000E+01 0.  1.
         -5    1    1    2    0  502  0.16670992297E+02 -0.25016329595E+02  0.64768235012E+02  0.71527165449E+02  0.41800000000E+01 0.  1.
        -11    1    3    3    0    0  0.77463421066E+01 -0.11966037973E+03  0.39903330254E+03  0.41666075989E+03  0.00000000000E+00 0.  1.
         11    1    3    3    0    0  0.84764311573E+01  0.18448694238E+02  0.11093502423E+03  0.11277758556E+03  0.00000000000E+00 0. -1.
</event>
<event>
 7    1  0.4687179E-006  0.1898731E+03  0.7561462E-02  0.1158576E+00
         -3   -1    0    0    0  501 -0.00000000000E+00  0.00000000000E+00  0.30144725277E+03  0.30144725277E+03  0.00000000000E+00 0.  1.
          3   -1    0    0  501    0  0.00000000000E+00 -0.00000000000E+00 -0.12717559808E+03  0.12717559808E+03  0.00000000000E+00 0. -1.
         23    2    1    2    0    0  0.34475103151E+01  0.15958531913E+03  0.44230044269E+02  0.18771411062E+03  0.88322879809E+02 0.  0.
          5    1    1    2  502    0 -0.52088922545E+02 -0.13404847664E+03  0.72011013573E+02  0.16088911839E+03  0.41800000000E+01 0.  1.
         -5    1    1    2    0  502  0.48641412230E+02 -0.25536842493E+02  0.58030596855E+02  0.80019621841E+02  0.41800000000E+01 0.  1.
        -11    1    3    3    0    0  0.39773440129E+02  0.12278810627E+03  0.19992522478E+02  0.13060837085E+03  0.00000000000E+00 0. -1.
         11    1    3    3    0    0 -0.36325929814E+02  0.36797212859E+02  0.24237521791E+02  0.57105739761E+02  0.00000000000E+00 0.  1.
</event>
<event>
 7    1  0.4687179E-006  0.1010780E+03  0.7561462E-02  0.1278045E+00
          2   -1    0    0  501    0  0.00000000000E+00  0.00000000000E+00  0.23877861505E+03  0.23877861505E+03  0.00000000000E+00 0. -1.
         -2   -1    0    0    0  501 -0.00000000000E+00 -0.00000000000E+00 -0.71044210745E+02  0.71044210745E+02  0.00000000000E+00 0.  1.
         23    2    1    2    0    0  0.34651935265E+02  0.39997299766E+02  0.13340657275E+03  0.16973025583E+03  0.90611839653E+02 0.  0.
          5    1    1    2  502    0  0.22759848649E+02 -0.42572584092E+02 -0.27387203730E+02  0.55659383350E+02  0.41800000000E+01 0.  1.
         -5    1    1    2    0  502 -0.57411783914E+02  0.25752843255E+01  0.61715035288E+02  0.84433186616E+02  0.41800000000E+01 0.  1.
        -11    1    3    3    0    0  0.43126337704E+02 -0.10899215963E+02  0.96602769600E+02  0.10635209921E+03  0.00000000000E+00 0. -1.
         11    1    3    3    0    0 -0.84744024390E+01  0.50896515729E+02  0.36803803147E+02  0.63378156617E+02  0.00000000000E+00 0.  1.
</event>
<event>
 7    1  0.4687179E-006  0.9425838E+02  0.7561462E-02  0.1292855E+00
         -1   -1    0    0    0  501 -0.00000000000E+00  0.00000000000E+00  0.18573110153E+02  0.18573110153E+02  0.00000000000E+00 0.  1.
          1   -1    0    0  501    0  0.00000000000E+00 -0.00000000000E+00 -0.69294030590E+03  0.69294030590E+03  0.00000000000E+00 0. -1.
         23    2    1    2    0    0  0.31000337231E+02  0.92609546270E+00 -0.30216474074E+03  0.31763031300E+03  0.92863376161E+02 0.  0.
          5    1    1    2  502    0  0.28244912522E+02  0.12816090264E+02 -0.21616507567E+02  0.38036470031E+02  0.41800000000E+01 0.  1.
         -5    1    1    2    0  502 -0.59245249752E+02 -0.13742185727E+02 -0.35058594744E+03  0.35584663302E+03  0.41800000000E+01 0.  1.
        -11    1    3    3    0    0  0.20515802259E+02  0.45795061939E+02 -0.12832207622E+03  0.13778476362E+03  0.00000000000E+00 0.  1.
         11    1    3    3    0    0  0.10484534972E+02 -0.44868966477E+02 -0.17384266452E+03  0.17984554939E+03  0.00000000000E+00 0. -1.
</event>
<event>
 7    1  0.4687179E-006  0.1065887E+03  0.7561462E-02  0.1267021E+00
          3   -1    0    0  501    0  0.00000000000E+00  0.00000000000E+00  0.30938756186E+02  0.30938756186E+02  0.00000000000E+00 0. -1.
         -3   -1    0    0    0  501 -0.00000000000E+00 -0.00000000000E+00 -0.89769308092E+03  0.89769308092E+03  0.00000000000E+00 0.  1.
         23    2    1    2    0    0  0.80832786686E+01  0.73827724664E+02 -0.12080984220E+03  0.16863424398E+03  0.91250303822E+02 0.  0.
          5    1    1    2  502    0 -0.45151044776E+02 -0.80291361081E+02 -0.33969525418E+03  0.35198814983E+03  0.41800000000E+01 0. -1.
         -5    1    1    2    0  502  0.37067766107E+02  0.64636364169E+01 -0.40624922835E+03  0.40800944329E+03  0.41800000000E+01 0. -1.
        -11    1    3    3    0    0 -0.14954002648E+02  0.32985712844E+02  0.29026010916E+01  0.36333242907E+02  0.00000000000E+00 0. -1.
         11    1    3    3    0    0  0.23037281317E+02  0.40842011819E+02 -0.12371244329E+03  0.13230100107E+03  0.00000000000E+00 0.  1.
</event>
<event>
 7    1  0.4687179E-006  0.1283675E+03  0.7561462E-02  0.1229898E+00
         -1   -1    0    0    0  501 -0.00000000000E+00  0.00000000000E+00  0.16965569599E+03  0.16965569599E+03  0.00000000000E+00 0.  1.
          1   -1    0    0  501    0  0.00000000000E+00 -0.00000000000E+00 -0.15631107732E+03  0.15631107732E+03  0.00000000000E+00 0. -1.
         23    2    1    2    0    0  0.52833398571E+02  0.92613338153E+02 -0.52270418348E+02  0.14900420504E+03  0.90008100057E+02 0.  0.
          5    1    1    2  502    0 -0.62894494264E+02 -0.94015292906E+02  0.28319969676E+01  0.11322581559E+03  0.41800000000E+01 0. -1.
         -5    1    1    2    0  502  0.10061095693E+02  0.14019547524E+01  0.62783040052E+02  0.63736752677E+02  0.41800000000E+01 0. -1.
        -11    1    3    3    0    0  0.29750655084E+02 -0.67866605050E+01 -0.33379219533E+02  0.45225352794E+02  0.00000000000E+00 0. -1.
         11    1    3    3    0    0  0.23082743487E+02  0.99399998658E+02 -0.18891198816E+02  0.10377885224E+03  0.00000000000E+00 0.  1.
</event>
<event>
 7    1  0.4687179E-006  0.8962837E+02  0.7561462E-02  0.1303754E+00
         -1   -1    0    0    0  501 -0.00000000000E+00  0.00000000000E+00  0.47056851656E+03  0.47056851656E+03  0.00000000000E+00 0.  1.
          1   -1    0    0  501    0  0.00000000000E+00 -0.00000000000E+00 -0.39934966373E+02  0.39934966373E+02  0.00000000000E+00 0. -1.
         23    2    1    2    0    0 -0.33503757623E+02  0.74856395050E+02  0.17007230940E+03  0.21006145138E+03  0.92061073612E+02 0.  0.
          5    1    1    2  502    0  0.10495514747E+01 -0.28830196652E+02 -0.44431945998E+01  0.29487220546E+02  0.41800000000E+01 0. -1.
         -5    1    1    2    0  502  0.32454206148E+02 -0.46026198398E+02  0.26500443538E+03  0.27095481101E+03  0.41800000000E+01 0. -1.
        -11    1    3    3    0    0 -0.17683389627E+01  0.57374245386E+02  0.16344058791E+03  0.17322747136E+03  0.00000000000E+00 0.  1.
         11    1    3    3    0    0 -0.31735418660E+02  0.17482149664E+02  0.66317214961E+01  0.36833980024E+02  0.00000000000E+00 0. -1.
</event>
<event>
 7    1  0.4687179E-006  0.1602526E+03  0.7561462E-02  0.1188412E+00
         -2   -1    0    0    0  501 -0.00000000000E+00  0.00000000000E+00  0.36236521487E+02  0.36236521487E+02  0.00000000000E+00 0. -1.
          2   -1    0    0  501    0  0.00000000000E+00 -0.00000000000E+00 -0.82043637053E+03  0.82043637053E+03  0.00000000000E+00 0.  1.
         23    2    1    2    0    0 -0.56623024322E+01  0.13256499610E+03 -0.40694806565E+03  0.43765564291E+03  0.91269895227E+02 0.  0.
          5    1    1    2  502    0 -0.41830045268E+02 -0.91225386927E+02 -0.13254581512E+03  0.16630601135E+03  0.41800000000E+01 0.  1.
         -5    1    1    2    0  502  0.47492347700E+02 -0.41339609177E+02 -0.24470596828E+03  0.25271123775E+03  0.41800000000E+01 0.  1.
        -11    1    3    3    0    0  0.17891073644E+02  0.13219541518E+03 -0.30290269795E+03  0.33097698219E+03  0.00000000000E+00 0. -1.
         11    1    3    3    0    0 -0.23553376076E+02  0.36958092492E+00 -0.10404536770E+03  0.10667866073E+03  0.00000000000E+00 0.  1.
</event>
<event>
 7    1  0.4687179E-006  0.1093397E+03  0.7561462E-02  0.1261798E+00
          3   -1    0    0  501    0  0.00000000000E+00  0.00000000000E+00  0.15207372672E+02  0.15207372672E+02  0.00000000000E+00 0. -1.
         -3   -1    0    0    0  501 -0.00000000000E+00 -0.00000000000E+00 -0.97018076439E+03  0.97018076439E+03  0.00000000000E+00 0.  1.
         23    2    1    2    0    0  0.42701694896E+02  0.41351863357E+01 -0.25195774765E+03  0.27004416693E+03  0.87181483008E+02 0.  0.
          5    1    1    2  502    0 -0.80899345539E+02 -0.25087603771E+02 -0.37807501022E+03  0.38746906679E+03  0.41800000000E+01 0. -1.
         -5    1    1    2    0  502  0.38197650643E+02  0.20952417435E+02 -0.32494063385E+03  0.32787490334E+03  0.41800000000E+01 0. -1.
        -11    1    3    3    0    0  0.12133977491E+02 -0.36955067197E+02 -0.61061893740E+02  0.72397964531E+02  0.00000000000E+00 0. -1.
         11    1    3    3    0    0  0.30567717405E+02  0.41090253532E+02 -0.19089585391E+03  0.19764620240E+03  0.00000000000E+00 0.  1.
</event>
<event>
 7    1  0.4687179E-006  0.9426948E+02  0.7561462E-02  0.1292830E+00
         -1   -1    0    0    0  501 -0.00000000000E+00  0.00000000000E+00  0.96109565298E+02  0.96109565298E+02  0.00000000000E+00 0.  1.
          1   -1    0    0  501    0  0.00000000000E+00 -0.00000000000E+00 -0.12637593690E+03  0.12637593690E+03  0.00000000000E+00 0. -1.
         23    2    1    2    0    0  0.74800869643E+01 -0.14895639940E+02 -0.26182307401E+02  0.96179291108E+02  0.91033570879E+02 0.  0.
          5    1    1    2  502    0  0.19885482454E+02  0.63468309227E+02  0.12893673506E+02  0.67877668677E+02  0.41800000000E+01 0.  1.
         -5    1    1    2    0  502 -0.27365569418E+02 -0.48572669287E+02 -0.16977737711E+02  0.58428542418E+02  0.41800000000E+01 0.  1.
        -11    1    3    3    0    0  0.35883072118E+02 -0.81956825069E+01  0.19741996394E+02  0.41767337694E+02  0.00000000000E+00 0.  1.
         11    1    3    3    0    0 -0.28402985154E+02 -0.66999574329E+01 -0.45924303796E+02  0.54411953414E+02  0.00000000000E+00 0. -1.
</event>
<event>
 7    1  0.4687179E-006  0.7991946E+02  0.7561462E-02  0.1329280E+00
         -1   -1    0    0    0  501 -0.00000000000E+00  0.00000000000E+00  0.65960606434E+02  0.65960606434E+02  0.00000000000E+00 0. -1.
          1   -1    0    0  501    0  0.00000000000E+00 -0.00000000000E+00 -0.24110164594E+03  0.24110164594E+03  0.00000000000E+00 0.  1.
         23    2    1    2    0    0 -0.42559364710E+02  0.49357251827E+01 -0.13386543778E+03  0.16854341689E+03  0.93012187568E+02 0.  0.
          5    1    1    2  502    0  0.38373229613E+02 -0.34615081952E+02  0.30828940491E+02  0.60320847319E+02  0.41800000000E+01 0.  1.
         -5    1    1    2    0  502  0.41861350971E+01  0.29679356770E+02 -0.72104542214E+02  0.78197988166E+02  0.41800000000E+01 0.  1.
        -11    1    3    3    0    0  0.17147736648E+02 -0.32792619030E+01 -0.95536091563E+02  0.97118192024E+02  0.00000000000E+00 0.  1.
         11    1    3    3    0    0 -0.59707101358E+02  0.82149870857E+01 -0.38329346221E+02  0.71425224866E+02  0.00000000000E+00 0. -1.
</event>
<event>
 7    1  0.4687179E-006  0.7066901E+02  0.7561462E-02  0.1357833E+00
         -1   -1    0    0    0  501 -0.00000000000E+00  0.00000000000E+00  0.41281540007E+02  0.41281540007E+02  0.00000000000E+00 0.  1.
          1   -1    0    0  501    0  0.00000000000E+00 -0.00000000000E+00 -0.37534427369E+03  0.37534427369E+03  0.00000000000E+00 0. -1.
         23    2    1    2    0    0 -0.14885070769E+02  0.18400915646E+02 -0.24143157590E+03  0.25919067623E+03  0.91271253823E+02 0.  0.
          5    1    1    2  502    0 -0.19967530203E+01  0.29595373182E+02  0.18452229110E+02  0.35182812502E+02  0.41800000000E+01 0. -1.
         -5    1    1    2    0  502  0.16881823789E+02 -0.47996288828E+02 -0.11108338689E+03  0.12225232497E+03  0.41800000000E+01 0. -1.
        -11    1    3    3    0    0  0.21035547834E+02  0.29966964633E+01 -0.83095079352E+01  0.22814959665E+02  0.00000000000E+00 0.  1.
         11    1    3    3    0    0 -0.35920618603E+02  0.15404219183E+02 -0.23312206797E+03  0.23637571657E+03  0.00000000000E+00 0. -1.
</event>
<event>
 7    1  0.4687179E-006  0.6104125E+02  0.7561462E-02  0.1393513E+00
         -2   -1    0    0    0  501 -0.00000000000E+00  0.00000000000E+00  0.18163756834E+03  0.18163756834E+03  0.00000000000E+00 0.  1.
          2   -1    0    0  501    0  0.00000000000E+00 -0.00000000000E+00 -0.74259517586E+02  0.74259517586E+02  0.00000000000E+00 0. -1.
         23    2    1    2    0    0 -0.25383350305E+02  0.64731947943E+01 -0.20281034115E+01  0.94393436723E+02  0.90663062872E+02 0.  0.
          5    1    1    2  502    0  0.31591385337E+02 -0.13342476390E+02 -0.14293653289E+02  0.37387407347E+02  0.41800000000E+01 0. -1.
         -5    1    1    2    0  502 -0.62080350326E+01  0.68692815955E+01  0.12369980745E+03  0.12411624186E+03  0.41800000000E+01 0.  1.
        -11    1    3    3    0    0 -0.44586085193E+02  0.24640483579E+02 -0.27322523935E+02  0.57806511208E+02  0.00000000000E+00 0.  1.
         11    1    3    3    0    0  0.19202734888E+02 -0.18167288784E+02  0.25294420524E+02  0.36586925515E+02  0.00000000000E+00 0. -1.
</event>
<event>
 7    1  0.4687179E-006  0.9867519E+02  0.7561462E-02  0.1283107E+00
         -1   -1    0    0    0  501 -0.00000000000E+00  0.00000000000E+00  0.20539385356E+04  0.20539385356E+04  0.00000000000E+00 0.  1.
          1   -1    0    0  501    0  0.00000000000E+00 -0.00000000000E+00 -0.13309398237E+02  0.13309398237E+02  0.00000000000E+00 0. -1.
         23    2    1    2    0    0  0.38642799719E+01 -0.13503587946E+02  0.18038927324E+03  0.20275413849E+03  0.91496837261E+02 0.  0.
          5    1    1    2  502    0  0.58761496610E+02  0.14273793520E+02  0.72997146247E+03  0.73248376302E+03  0.41800000000E+01 0.  1.
         -5    1    1    2    0  502 -0.62625776582E+02 -0.77020557400E+00  0.11302684016E+04  0.11320100323E+04  0.41800000000E+01 0.  1.
        -11    1    3    3    0    0 -0.26782418475E+02 -0.29125308299E+02  0.15507968405E+03  0.16004777389E+03  0.00000000000E+00 0.  1.
         11    1    3    3    0    0  0.30646698447E+02  0.15621720353E+02  0.25309589192E+02  0.42706364602E+02  0.00000000000E+00 0. -1.
</event>
<event>
 7    1  0.4687179E-006  0.1061463E+03  0.7561462E-02  0.1267878E+00
          1   -1    0    0  501    0  0.00000000000E+00  0.00000000000E+00  0.54381160955E+02  0.54381160955E+02  0.00000000000E+00 0.  1.
         -1   -1    0    0    0  501 -0.00000000000E+00 -0.00000000000E+00 -0.42238618082E+03  0.42238618082E+03  0.00000000000E+00 0. -1.
         23    2    1    2    0    0 -0.51895658468E+02 -0.54240870203E+02 -0.50297307111E+02  0.12717058130E+03  0.89483553112E+02 0.  0.
          5    1    1    2  502    0  0.13569168714E+02 -0.32186675086E+02 -0.17404352487E+03  0.17756329954E+03  0.41800000000E+01 0.  1.
         -5    1    1    2    0  502  0.38326489754E+02  0.86427545290E+02 -0.14366418788E+03  0.17203346093E+03  0.41800000000E+01 0.  1.
        -11    1    3    3    0    0 -0.32443276633E+02 -0.96826657416E+01  0.21758452915E+02  0.40246123886E+02  0.00000000000E+00 0.  1.
         11    1    3    3    0    0 -0.19452381834E+02 -0.44558204462E+02 -0.72055760026E+02  0.86924457415E+02  0.00000000000E+00 0. -1.
</event>
<event>
 7    1  0.4687179E-006  0.1296088E+03  0.7561462E-02  0.1228037E+00
          2   -1    0    0  501    0  0.00000000000E+00  0.00000000000E+00  0.10359114377E+03  0.10359114377E+03  0.00000000000E+00 0. -1.
         -2   -1    0    0    0  501 -0.00000000000E+00 -0.00000000000E+00 -0.25942186589E+03  0.25942186589E+03  0.00000000000E+00 0.  1.
         23    2    1    2    0    0 -0.20558861350E+02  0.94682965357E+02 -0.31867403860E+02  0.13619678928E+03  0.90257981764E+02 0.  0.
          5    1    1    2  502    0  0.49096879682E+02 -0.33878538512E+02  0.23869856345E+02  0.64385568322E+02  0.41800000000E+01 0. -1.
         -5    1    1    2    0  502 -0.28538018332E+02 -0.60804426846E+02 -0.14783317460E+03  0.16243065206E+03  0.41800000000E+01 0.  1.
        -11    1    3    3    0    0  0.11059029906E+02  0.99522981502E+02 -0.28007194299E+02  0.10397850221E+03  0.00000000000E+00 0. -1.
         11    1    3    3    0    0 -0.31617891256E+02 -0.48400161445E+01 -0.38602095609E+01  0.32218287068E+02  0.00000000000E+00 0.  1.
</event>
<event>
 7    1  0.4687179E-006  0.5880269E+02  0.7561462E-02  0.1402926E+00
          3   -1    0    0  501    0  0.00000000000E+00  0.00000000000E+00  0.43181235229E+02  0.43181235229E+02  0.00000000000E+00 0. -1.
         -3   -1    0    0    0  501 -0.00000000000E+00 -0.00000000000E+00 -0.29786481677E+03  0.29786481677E+03  0.00000000000E+00 0.  1.
         23    2    1    2    0    0 -0.16613110421E+02 -0.12280782209E+02 -0.70952405900E+02  0.11781769784E+03  0.91760301725E+02 0.  0.
          5    1    1    2  502    0  0.81275927075E+01  0.16258271840E+02  0.15183023306E+02  0.24049652038E+02  0.41800000000E+01 0.  1.
         -5    1    1    2    0  502  0.84855177139E+01 -0.39774896306E+01 -0.19891419895E+03  0.19917870212E+03  0.41800000000E+01 0.  1.
        -11    1    3    3    0    0 -0.64387330241E+01 -0.49597669716E+02 -0.58974605025E+02  0.77326516552E+02  0.00000000000E+00 0. -1.
         11    1    3    3    0    0 -0.10174377397E+02  0.37316887507E+02 -0.11977800875E+02  0.40491181292E+02  0.00000000000E+00 0.  1.
</event>
<event>
 7    1  0.4687179E-006  0.8591890E+02  0.7561462E-02  0.1313047E+00
         -1   -1    0    0    0  501 -0.00000000000E+00  0.00000000000E+00  0.48195856960E+02  0.48195856960E+02  0.00000000000E+00 0.  1.
          1   -1    0    0  501    0  0.00000000000E+00 -0.00000000000E+00 -0.29526711825E+03  0.29526711825E+03  0.00000000000E+00 0. -1.
         23    2    1    2    0    0 -0.59434394342E+01 -0.37239887854E+02 -0.15405219540E+03  0.18308209137E+03  0.91459496785E+02 0.  0.
          5    1    1    2  502    0 -0.33978133816E+02  0.70384819066E+02 -0.61361872684E+02  0.99454955391E+02  0.41800000000E+01 0.  1.
         -5    1    1    2    0  502  0.39921573250E+02 -0.33144931212E+02 -0.31657193202E+02  0.60925928448E+02  0.41800000000E+01 0.  1.
        -11    1    3    3    0    0  0.61659307749E+01 -0.10897897857E+02  0.10287040688E+02  0.16205125305E+02  0.00000000000E+00 0.  1.
         11    1    3    3    0    0 -0.12109370209E+02 -0.26341989997E+02 -0.16433923609E+03  0.16687696606E+03  0.00000000000E+00 0. -1.
</event>
<event>
 7    1  0.4687179E-006  0.1077969E+03  0.7561462E-02  0.1264705E+00
         -2   -1    0    0    0  501 -0.00000000000E+00  0.00000000000E+00  0.83538205007E+03  0.83538205007E+03  0.00000000000E+00 0.  1.
          2   -1    0    0  501    0  0.00000000000E+00 -0.00000000000E+00 -0.26579374838E+02  0.26579374838E+02  0.00000000000E+00 0. -1.
         23    2    1    2    0    0  0.82918694917E+02  0.35872853776E+02  0.20030205256E+03  0.23420132210E+03  0.81036876838E+02 0.  0.
          5    1    1    2  502    0 -0.58733961920E+02 -0.37324454610E+02  0.12105322978E+03  0.13969305650E+03  0.41800000000E+01 0. -1.
         -5    1    1    2    0  502 -0.24184732997E+02  0.14516008340E+01  0.48744739290E+03  0.48806704631E+03  0.41800000000E+01 0. -1.
        -11    1    3    3    0    0  0.54140264719E+02  0.62078012470E+02  0.13976256489E+03  0.16222953628E+03  0.00000000000E+00 0.  1.
         11    1    3    3    0    0  0.28778430198E+02 -0.26205158693E+02  0.60539487669E+02  0.71971785820E+02  0.00000000000E+00 0. -1.
</event>
<event>
 7    1  0.4687179E-006  0.1051363E+03  0.7561462E-02  0.1269851E+00
          2   -1    0    0  501    0  0.00000000000E+00  0.00000000000E+00  0.14785260414E+02  0.14785260414E+02  0.00000000000E+00 0. -1.
         -2   -1    0    0    0  501 -0.00000000000E+00 -0.00000000000E+00 -0.12131831752E+04  0.12131831752E+04  0.00000000000E+00 0.  1.
         23    2    1    2    0    0  0.12024967454E+02 -0.51399024867E+02 -0.31582573563E+03  0.33306060947E+03  0.91635226277E+02 0.  0.
          5    1    1    2  502    0  0.43501764016E+02 -0.63024954492E+01 -0.58678100829E+03  0.58843992813E+03  0.41800000000E+01 0. -1.
         -5    1    1    2    0  502 -0.55526731470E+02  0.57701520316E+02 -0.29579117087E+03  0.30646789803E+03  0.41800000000E+01 0.  1.
        -11    1    3    3    0    0 -0.34874476582E+01  0.16201450212E+02 -0.97562621979E+01  0.19231066851E+02  0.00000000000E+00 0. -1.
         11    1    3    3    0    0  0.15512415112E+02 -0.67600475079E+02 -0.30606947343E+03  0.31382954262E+03  0.00000000000E+00 0.  1.
</event>
<event>
 7    1  0.4687179E-006  0.1086692E+03  0.7561462E-02  0.1263054E+00
          2   -1    0    0  501    0  0.00000000000E+00  0.00000000000E+00  0.28181363235E+02  0.28181363235E+02  0.00000000000E+00 0. -1.
         -2   -1    0    0    0  501 -0.00000000000E+00 -0.00000000000E+00 -0.45686749064E+03  0.45686749064E+03  0.00000000000E+00 0.  1.
         23    2    1    2    0    0  0.36712620275E+02  0.43136132200E+01 -0.16477980686E+03  0.19066718589E+03  0.88516480288E+02 0.  0.
          5    1    1    2  502    0 -0.93369990659E+01  0.59263599489E+02 -0.14040563206E+03  0.15274347020E+03  0.41800000000E+01 0. -1.
         -5    1    1    2    0  502 -0.27375621209E+02 -0.63577212709E+02 -0.12350068849E+03  0.14163819778E+03  0.41800000000E+01 0. -1.
        -11    1    3    3    0    0  0.62007139800E+02 -0.95410929447E+00 -0.14630158349E+03  0.15890232548E+03  0.00000000000E+00 0.  1.
         11    1    3    3    0    0 -0.25294519525E+02  0.52677225144E+01 -0.18478223368E+02  0.31764860417E+02  0.00000000000E+00 0. -1.
</event>
<event>
 7    1  0.4687179E-006  0.1046473E+03  0.7561462E-02  0.1270816E+00
          1   -1    0    0  501    0  0.00000000000E+00  0.00000000000E+00  0.94977954553E+02  0.94977954553E+02  0.00000000000E+00 0. -1.
         -1   -1    0    0    0  501 -0.00000000000E+00 -0.00000000000E+00 -0.46253580525E+03  0.46253580525E+03  0.00000000000E+00 0.  1.
         23    2    1    2    0    0 -0.51397004296E+02 -0.64194093733E+02  0.32167888662E+02  0.13067582842E+03  0.96326867238E+02 0.  0.
          5    1    1    2  502    0  0.56590938901E+02  0.79104929178E+02 -0.39876448034E+03  0.41047619586E+03  0.41800000000E+01 0.  1.
         -5    1    1    2    0  502 -0.51939346050E+01 -0.14910835445E+02 -0.96125901708E+00  0.16361735521E+02  0.41800000000E+01 0.  1.
        -11    1    3    3    0    0  0.79077446988E+01 -0.20420489123E+02 -0.27986302437E+02  0.35535361632E+02  0.00000000000E+00 0.  1.
         11    1    3    3    0    0 -0.59304748995E+02 -0.43773604610E+02  0.60154191100E+02  0.95140466789E+02  0.00000000000E+00 0. -1.
</event>
<event>
 7    1  0.4687179E-006  0.9600840E+02  0.7561462E-02  0.1288921E+00
         -2   -1    0    0    0  501 -0.00000000000E+00  0.00000000000E+00  0.20145419044E+02  0.20145419044E+02  0.00000000000E+00 0.  1.
          2   -1    0    0  501    0  0.00000000000E+00 -0.00000000000E+00 -0.61117525679E+03  0.61117525679E+03  0.00000000000E+00 0. -1.
         23    2    1    2    0    0 -0.19361504942E+02 -0.12928219340E+02 -0.20880255996E+03  0.22847200910E+03  0.89771616711E+02 0.  0.
          5    1    1    2  502    0  0.64174519626E+02 -0.38512973033E+01 -0.30630871316E+03  0.31301070528E+03  0.41800000000E+01 0.  1.
         -5    1    1    2    0  502 -0.44813014684E+02  0.16779516643E+02 -0.75918564618E+02  0.89837961450E+02  0.41800000000E+01 0.  1.
        -11    1    3    3    0    0  0.22011655207E+02  0.17565146078E+02 -0.25128152624E+02  0.37742169730E+02  0.00000000000E+00 0.  1.
         11    1    3    3    0    0 -0.41373160148E+02 -0.30493365418E+02 -0.18367440734E+03  0.19072983937E+03  0.00000000000E+00 0. -1.
</event>
<event>
 7    1  0.4687179E-006  0.1137405E+03  0.7561462E-02  0.1253796E+00
          2   -1    0    0  501    0  0.00000000000E+00  0.00000000000E+00  0.30464543936E+03  0.30464543936E+03  0.00000000000E+00 0. -1.
         -2   -1    0    0    0  501 -0.00000000000E+00 -0.00000000000E+00 -0.51363370347E+02  0.51363370347E+02  0.00000000000E+00 0.  1.
         23    2    1    2    0    0 -0.42729725075E+01 -0.47702561554E+02  0.17375999792E+03  0.20024006404E+03  0.87233902220E+02 0.  0.
          5    1    1    2  502    0  0.40317190337E+02  0.73201283417E+02  0.72804442888E+02  0.11091376396E+03  0.41800000000E+01 0. -1.
         -5    1    1    2    0  502 -0.36044217830E+02 -0.25498721863E+02  0.67176282026E+01  0.44854981711E+02  0.41800000000E+01 0. -1.
        -11    1    3    3    0    0  0.41266800618E+02 -0.17570198891E+02  0.74941944185E+02  0.87338168750E+02  0.00000000000E+00 0.  1.
         11    1    3    3    0    0 -0.45539773126E+02 -0.30132362662E+02  0.98818053734E+02  0.11290189529E+03  0.00000000000E+00 0. -1.
</event>
<event>
 7    1  0.4687179E-006  0.9635377E+02  0.7561462E-02  0.1288156E+00
          4   -1    0    0  501    0  0.00000000000E+00  0.00000000000E+00  0.72676027028E+02  0.72676027028E+02  0.00000000000E+00 0. -1.
         -4   -1    0    0    0  501 -0.00000000000E+00 -0.00000000000E+00 -0.14921991419E+03  0.14921991419E+03  0.00000000000E+00 0.  1.
         23    2    1    2    0    0 -0.52872857826E+01 -0.37339760816E+02 -0.37711051579E+02  0.85597085612E+02  0.66951658122E+02 0.  0.
          5    1    1    2  502    0 -0.37079544796E+02  0.57891844153E+02 -0.53045538400E+02  0.86934802041E+02  0.41800000000E+01 0.  1.
         -5    1    1    2    0  502  0.42366830578E+02 -0.20552083337E+02  0.14212702819E+02  0.49364053563E+02  0.41800000000E+01 0.  1.
        -11    1    3    3    0    0 -0.32742748168E+02 -0.34221758049E+01 -0.12595480576E+02  0.35248332950E+02  0.00000000000E+00 0.  1.
         11    1    3    3    0    0  0.27455462385E+02 -0.33917585011E+02 -0.25115571003E+02  0.50348752662E+02  0.00000000000E+00 0. -1.
</event>
<event>
 7    1  0.4687179E-006  0.1614716E+03  0.7561462E-02  0.1187045E+00
         -1   -1    0    0    0  501 -0.00000000000E+00  0.00000000000E+00  0.41908624816E+02  0.41908624816E+02  0.00000000000E+00 0.  1.
          1   -1    0    0  501    0  0.00000000000E+00 -0.00000000000E+00 -0.63475558152E+03  0.63475558152E+03  0.00000000000E+00 0. -1.
         23    2    1    2    0    0  0.12191343958E+03 -0.37804668254E+02 -0.31139406940E+03  0.34326114829E+03  0.67600811968E+02 0.  0.
          5    1    1    2  502    0 -0.19399954552E+02  0.68578825673E+02 -0.12065745403E+03  0.14019667322E+03  0.41800000000E+01 0. -1.
         -5    1    1    2    0  502 -0.10251348503E+03 -0.30774157419E+02 -0.16079543327E+03  0.19320638483E+03  0.41800000000E+01 0. -1.
        -11    1    3    3    0    0 -0.11063024484E+01 -0.20121549988E+02 -0.43111740330E+02  0.47589104145E+02  0.00000000000E+00 0.  1.
         11    1    3    3    0    0  0.12301974203E+03 -0.17683118266E+02 -0.26828232907E+03  0.29567204415E+03  0.00000000000E+00 0. -1.
</event>
<event>
 7    1  0.4687179E-006  0.1164020E+03  0.7561462E-02  0.1249153E+00
          1   -1    0    0  501    0  0.00000000000E+00  0.00000000000E+00  0.40596435103E+03  0.40596435103E+03  0.00000000000E+00 0. -1.
         -1   -1    0    0    0  501 -0.00000000000E+00 -0.00000000000E+00 -0.89225060188E+02  0.89225060188E+02  0.00000000000E+00 0.  1.
         23    2    1    2    0    0  0.19074919388E+02  0.70017155443E+02  0.33005843414E+03  0.34996113593E+03  0.90928389997E+02 0.  0.
          5    1    1    2  502    0 -0.24184892227E+02  0.27538178506E+02  0.19959506747E+02  0.41941800117E+02  0.41800000000E+01 0. -1.
         -5    1    1    2    0  502  0.51099728394E+01 -0.97555333950E+02 -0.33278650046E+02  0.10328647517E+03  0.41800000000E+01 0. -1.
        -11    1    3    3    0    0  0.37292638149E+02  0.15023812358E+02  0.23668841000E+03  0.24007886043E+03  0.00000000000E+00 0. -1.
         11    1    3    3    0    0 -0.18217718761E+02  0.54993343085E+02  0.93370024141E+02  0.10988227550E+03  0.00000000000E+00 0.  1.
</event>
<event>
 6    1  0.4687179E-006  0.9893103E+02  0.7561462E-02  0.1282560E+00
         -2   -1    0    0    0  501 -0.00000000000E+00  0.00000000000E+00  0.51300753592E+02  0.51300753592E+02  0.00000000000E+00 0.  1.
          2   -1    0    0  501    0  0.00000000000E+00 -0.00000000000E+00 -0.31796231212E+03  0.31796231212E+03  0.00000000000E+00 0. -1.
          5    1    1    2  502    0  0.33919708111E+02 -0.28443964525E+01 -0.84086494652E+02  0.90811057544E+02  0.41800000000E+01 0. -1.
         -5    1    1    2    0  502  0.13840678509E+02  0.74526026435E+02 -0.32757162151E+00  0.75916221593E+02  0.41800000000E+01 0.  1.
        -11    1    1    2    0    0 -0.34037667913E+02 -0.62417364288E+02 -0.15695263772E+03  0.17230386151E+03  0.00000000000E+00 0. -1.
         11    1    1    2    0    0 -0.13722718707E+02 -0.92642656947E+01 -0.25294854536E+02  0.30231925072E+02  0.00000000000E+00 0.  1.
</event>
<event>
 7    1  0.4687179E-006  0.1624555E+03  0.7561462E-02  0.1185952E+00
         -1   -1    0    0    0  501 -0.00000000000E+00  0.00000000000E+00  0.50831784134E+02  0.50831784134E+02  0.00000000000E+00 0.  1.
          1   -1    0    0  501    0  0.00000000000E+00 -0.00000000000E+00 -0.94195673552E+03  0.94195673552E+03  0.00000000000E+00 0. -1.
         23    2    1    2    0    0  0.10078357090E+03  0.12280661147E+03 -0.66583839992E+03  0.69006593661E+03  0.87243510207E+02 0.  0.
          5    1    1    2  502    0 -0.36883793856E+01 -0.14528550900E+02 -0.12511182276E+03  0.12607586418E+03  0.41800000000E+01 0.  1.
         -5    1    1    2    0  502 -0.97095191519E+02 -0.10827806056E+03 -0.10017472871E+03  0.17664671887E+03  0.41800000000E+01 0.  1.
        -11    1    3    3    0    0  0.19849039701E+02  0.54312958947E+02 -0.11070436713E+03  0.12489731297E+03  0.00000000000E+00 0.  1.
         11    1    3    3    0    0  0.80934531204E+02  0.68493652518E+02 -0.55513403279E+03  0.56516862363E+03  0.00000000000E+00 0. -1.
</event>
<event>
 7    1  0.4687179E-006  0.1066385E+03  0.7561462E-02  0.1266925E+00
         -2   -1    0    0    0  501 -0.00000000000E+00  0.00000000000E+00  0.53420209098E+02  0.53420209098E+02  0.00000000000E+00 0.  1.
          2   -1    0    0  501    0  0.00000000000E+00 -0.00000000000E+00 -0.42185963306E+03  0.42185963306E+03  0.00000000000E+00 0. -1.
         23    2    1    2    0    0  0.48806394719E+02  0.61057521071E+02 -0.27423186457E+03  0.30025801085E+03  0.94030167965E+02 0.  0.
          5    1    1    2  502    0  0.15761072732E+02 -0.51687502965E+02 -0.95301490728E+02  0.10963510346E+03  0.41800000000E+01 0. -1.
         -5    1    1    2    0  502 -0.64567467451E+02 -0.93700181057E+01  0.10939313401E+01  0.65386727844E+02  0.41800000000E+01 0. -1.
        -11    1    3    3    0    0  0.43803280610E+02  0.13436628099E+02 -0.23178344511E+03  0.23626856708E+03  0.00000000000E+00 0. -1.
         11    1    3    3    0    0  0.50031141094E+01  0.47620892971E+02 -0.42448419466E+02  0.63989443765E+02  0.00000000000E+00 0.  1.
</event>
<event>
 7    1  0.4687179E-006  0.1819572E+03  0.7561462E-02  0.1165922E+00
          1   -1    0    0  501    0  0.00000000000E+00  0.00000000000E+00  0.18946685980E+03  0.18946685980E+03  0.00000000000E+00 0. -1.
         -1   -1    0    0    0  501 -0.00000000000E+00 -0.00000000000E+00 -0.24097862570E+03  0.24097862570E+03  0.00000000000E+00 0.  1.
         23    2    1    2    0    0 -0.14390686812E+03 -0.49805489345E+02  0.78431648307E+02  0.19438695387E+03  0.91896631714E+02 0.  0.
          5    1    1    2  502    0 -0.14256189602E+02 -0.15603567372E+02 -0.71640342730E+00  0.21556806131E+02  0.41800000000E+01 0.  1.
         -5    1    1    2    0  502  0.15816305772E+03  0.65409056718E+02 -0.12922701077E+03  0.21450172549E+03  0.41800000000E+01 0.  1.
        -11    1    3    3    0    0 -0.10453804017E+03 -0.71080097035E+02  0.80015115168E+02  0.14960949399E+03  0.00000000000E+00 0. -1.
         11    1    3    3    0    0 -0.39368827948E+02  0.21274607690E+02 -0.15834668610E+01  0.44777459884E+02  0.00000000000E+00 0.  1.
</event>
<event>
 7    1  0.4687179E-006  0.9474494E+02  0.7561462E-02  0.1291752E+00
          1   -1    0    0  501    0  0.00000000000E+00  0.00000000000E+00  0.30665500698E+03  0.30665500698E+03  0.00000000000E+00 0. -1.
         -1   -1    0    0    0  501 -0.00000000000E+00 -0.00000000000E+00 -0.47679703769E+02  0.47679703769E+02  0.00000000000E+00 0.  1.
         23    2    1    2    0    0  0.89908605322E+01  0.41988938412E+02  0.67883445176E+02  0.12194012673E+03  0.91745985498E+02 0.  0.
          5    1    1    2  502    0  0.31295796127E+02 -0.58416200353E+02  0.17260653894E+03  0.18493882503E+03  0.41800000000E+01 0. -1.
         -5    1    1    2    0  502 -0.40286656660E+02  0.16427261940E+02  0.18485319099E+02  0.47455758996E+02  0.41800000000E+01 0. -1.
        -11    1    3    3    0    0  0.27647510454E+02 -0.56488158967E+01 -0.89746047453E+01  0.29611441803E+02  0.00000000000E+00 0.  1.
         11    1    3    3    0    0 -0.18656649922E+02  0.47637754309E+02  0.76858049921E+02  0.92328684923E+02  0.00000000000E+00 0. -1.
</event>
<event>
 7    1  0.4687179E-006  0.1536373E+03  0.7561462E-02  0.1196073E+00
          1   -1    0    0  501    0  0.00000000000E+00  0.00000000000E+00  0.22769009804E+03  0.22769009804E+03  0.00000000000E+00 0. -1.
         -1   -1    0    0    0  501 -0.00000000000E+00 -0.00000000000E+00 -0.11365800847E+03  0.11365800847E+03  0.00000000000E+00 0.  1.
         23    2    1    2    0    0  0.49096438967E+02 -0.10709717228E+03  0.44318550708E+02  0.15591032989E+03  0.91998002163E+02 0.  0.
          5    1    1    2  502    0 -0.34309952182E+02 -0.13165141813E+02  0.50636875774E+02  0.62706134993E+02  0.41800000000E+01 0.  1.
         -5    1    1    2    0  502 -0.14786486785E+02  0.12026231409E+03  0.19076663087E+02  0.12273164162E+03  0.41800000000E+01 0.  1.
        -11    1    3    3    0    0 -0.26985333492E+02 -0.35350271868E+02  0.78642004735E+01  0.45162989204E+02  0.00000000000E+00 0.  1.
         11    1    3    3    0    0  0.76081772459E+02 -0.71746900408E+02  0.36454350234E+02  0.11074734069E+03  0.00000000000E+00 0. -1.
</event>
<event>
 7    1  0.4687179E-006  0.1605869E+03  0.7561462E-02  0.1188036E+00
         -2   -1    0    0    0  501 -0.00000000000E+00  0.00000000000E+00  0.72866843236E+02  0.72866843236E+02  0.00000000000E+00 0.  1.
          2   -1    0    0  501    0  0.00000000000E+00 -0.00000000000E+00 -0.49162213677E+03  0.49162213677E+03  0.00000000000E+00 0. -1.
         23    2    1    2    0    0  0.59290424530E+02 -0.11426762780E+03 -0.32679481419E+03  0.36280386294E+03  0.90880950595E+02 0.  0.
          5    1    1    2  502    0  0.11420577372E+02  0.10200492663E+03 -0.76682032026E+02  0.12819142358E+03  0.41800000000E+01 0. -1.
         -5    1    1    2    0  502 -0.70711001902E+02  0.12262701168E+02 -0.15278447322E+02  0.73493693488E+02  0.41800000000E+01 0. -1.
        -11    1    3    3    0    0  0.92170057333E+01 -0.90785913166E+02 -0.26295886365E+03  0.27834223394E+03  0.00000000000E+00 0.  1.
         11    1    3    3    0    0  0.50073418797E+02 -0.23481714630E+02 -0.63835950543E+02  0.84461629002E+02  0.00000000000E+00 0. -1.
</event>
<event>
 7    1  0.4687179E-006  0.2305823E+03  0.7561462E-02  0.1126231E+00
         -1   -1    0    0    0  501 -0.00000000000E+00  0.00000000000E+00  0.24534498062E+03  0.24534498062E+03  0.00000000000E+00 0.  1.
          1   -1    0    0  501    0  0.00000000000E+00 -0.00000000000E+00 -0.24482769370E+03  0.24482769370E+03  0.00000000000E+00 0. -1.
         23    2    1    2    0    0  0.19681917920E+03 -0.85935017310E+02  0.43261174362E+02  0.23798907733E+03  0.92976638033E+02 0.  0.
          5    1    1    2  502    0 -0.16684608899E+03  0.24829429020E+02 -0.64447090661E+02  0.18062396809E+03  0.41800000000E+01 0.  1.
         -5    1    1    2    0  502 -0.29973090217E+02  0.61105588290E+02  0.21703203216E+02  0.71559628893E+02  0.41800000000E+01 0.  1.
        -11    1    3    3    0    0  0.89626468264E+02 -0.74297812551E+02  0.56415945546E+02  0.12936702700E+03  0.00000000000E+00 0.  1.
         11    1    3    3    0    0  0.10719271094E+03 -0.11637204760E+02 -0.13154771184E+02  0.10862205033E+03  0.00000000000E+00 0. -1.
</event>
<event>
 7    1  0.4687179E-006  0.1646293E+03  0.7561462E-02  0.1183567E+00
         -1   -1    0    0    0  501 -0.00000000000E+00  0.00000000000E+00  0.18703904524E+03  0.18703904524E+03  0.00000000000E+00 0.  1.
          1   -1    0    0  501    0  0.00000000000E+00 -0.00000000000E+00 -0.19031456861E+03  0.19031456861E+03  0.00000000000E+00 0. -1.
         23    2    1    2    0    0  0.22707905399E+02 -0.15117528516E+03  0.12942784697E+02  0.17915864091E+03  0.92523981360E+02 0.  0.
          5    1    1    2  502    0 -0.34526092382E+02  0.37448027886E+02  0.45296356762E+02  0.68290835283E+02  0.41800000000E+01 0. -1.
         -5    1    1    2    0  502  0.11818186983E+02  0.11372725727E+03 -0.61514664831E+02  0.12990413766E+03  0.41800000000E+01 0. -1.
        -11    1    3    3    0    0 -0.16178083973E+02 -0.88581973939E+02  0.42737290266E+02  0.99674332139E+02  0.00000000000E+00 0.  1.
         11    1    3    3    0    0  0.38885989372E+02 -0.62593311222E+02 -0.29794505569E+02  0.79484308774E+02  0.00000000000E+00 0. -1.
</event>
<event>
 7    1  0.4687179E-006  0.1123752E+03  0.7561462E-02  0.1256234E+00
          2   -1    0    0  501    0  0.00000000000E+00  0.00000000000E+00  0.20688438886E+03  0.20688438886E+03  0.00000000000E+00 0. -1.
         -2   -1    0    0    0  501 -0.00000000000E+00 -0.00000000000E+00 -0.90279415469E+02  0.90279415469E+02  0.00000000000E+00 0.  1.
         23    2    1    2    0    0 -0.60635432154E+02 -0.57586489052E+02  0.71575277256E+02  0.14011378070E+03  0.86694820345E+02 0.  0.
          5    1    1    2  502    0  0.71119257813E+02  0.59555656268E+02  0.78551161487E+02  0.12162476062E+03  0.41800000000E+01 0.  1.
         -5    1    1    2    0  502 -0.10483825659E+02 -0.19691672166E+01 -0.33521465350E+02  0.35425263008E+02  0.41800000000E+01 0.  1.
        -11    1    3    3    0    0  0.20359338914E+02 -0.27098074219E+02  0.21160774425E+02  0.39957310741E+02  0.00000000000E+00 0.  1.
         11    1    3    3    0    0 -0.80994771068E+02 -0.30488414833E+02  0.50414502831E+02  0.10015646996E+03  0.00000000000E+00 0. -1.
</event>
<event>
 7    1  0.4687179E-006  0.1634739E+03  0.7561462E-02  0.1184830E+00
         -1   -1    0    0    0  501 -0.00000000000E+00  0.00000000000E+00  0.20442492367E+03  0.20442492367E+03  0.00000000000E+00 0.  1.
          1   -1    0    0  501    0  0.00000000000E+00 -0.00000000000E+00 -0.14049950428E+03  0.14049950428E+03  0.00000000000E+00 0. -1.
         23    2    1    2    0    0 -0.12306570692E+03  0.35857911330E+02  0.10322452087E+02  0.15796606435E+03  0.91737486585E+02 0.  0.
          5    1    1    2  502    0  0.87588223235E+02  0.31511913495E+02 -0.97677615399E+00  0.93183281941E+02  0.41800000000E+01 0. -1.
         -5    1    1    2    0  502  0.35477483685E+02 -0.67369824825E+02  0.54579743457E+02  0.93775081665E+02  0.41800000000E+01 0. -1.
        -11    1    3    3    0    0 -0.10538922826E+03 -0.12404716695E+02  0.41371401754E+01  0.10619737454E+03  0.00000000000E+00 0. -1.
         11    1    3    3    0    0 -0.17676478659E+02  0.48262628025E+02  0.61853119113E+01  0.51768689814E+02  0.00000000000E+00 0.  1.
</event>
<event>
 7    1  0.4687179E-006  0.1378127E+03  0.7561462E-02  0.1216303E+00
         -2   -1    0    0    0  501 -0.00000000000E+00  0.00000000000E+00  0.35561331551E+02  0.35561331551E+02  0.00000000000E+00 0.  1.
          2   -1    0    0  501    0  0.00000000000E+00 -0.00000000000E+00 -0.79887663615E+03  0.79887663615E+03  0.00000000000E+00 0. -1.
         23    2    1    2    0    0  0.88160630071E+02 -0.66390842775E+02 -0.51894168011E+03  0.53855643993E+03  0.92533944806E+02 0.  0.
          5    1    1    2  502    0 -0.99540601145E+02  0.66284742799E+02 -0.11507996903E+03  0.16602069171E+03  0.41800000000E+01 0.  1.
         -5    1    1    2    0  502  0.11379971074E+02  0.10609997584E+00 -0.12929365547E+03  0.12986083607E+03  0.41800000000E+01 0.  1.
        -11    1    3    3    0    0  0.83003107624E+02 -0.59921894156E+01 -0.31361948369E+03  0.32447280742E+03  0.00000000000E+00 0. -1.
         11    1    3    3    0    0  0.51575224474E+01 -0.60398653359E+02 -0.20532219642E+03  0.21408363251E+03  0.00000000000E+00 0.  1.
</event>
<event>
 7    1  0.4687179E-006  0.8528378E+02  0.7561462E-02  0.1314692E+00
         -3   -1    0    0    0  501 -0.00000000000E+00  0.00000000000E+00  0.51392265680E+02  0.51392265680E+02  0.00000000000E+00 0.  1.
          3   -1    0    0  501    0  0.00000000000E+00 -0.00000000000E+00 -0.42866574539E+03  0.42866574539E+03  0.00000000000E+00 0. -1.
         23    2    1    2    0    0 -0.50193930205E+02 -0.10550056663E+02 -0.31366780409E+03  0.33064423584E+03  0.91144857497E+02 0.  0.
          5    1    1    2  502    0 -0.96330285751E+01  0.29054572922E+02 -0.78969897516E+02  0.84797880639E+02  0.41800000000E+01 0. -1.
         -5    1    1    2    0  502  0.59826958780E+02 -0.18504516259E+02  0.15364221897E+02  0.64615894587E+02  0.41800000000E+01 0. -1.
        -11    1    3    3    0    0 -0.17596339016E+01 -0.26009729583E+02 -0.20673637040E+02  0.33271633758E+02  0.00000000000E+00 0.  1.
         11    1    3    3    0    0 -0.48434296303E+02  0.15459672920E+02 -0.29299416705E+03  0.29737260209E+03  0.00000000000E+00 0. -1.
</event>
<event>
 7    1  0.4687179E-006  0.9627805E+02  0.7561462E-02  0.1288323E+00
         -2   -1    0    0    0  501 -0.00000000000E+00  0.00000000000E+00  0.66132516096E+03  0.66132516096E+03  0.00000000000E+00 0.  1.
          2   -1    0    0  501    0  0.00000000000E+00 -0.00000000000E+00 -0.26953593845E+02  0.26953593845E+02  0.00000000000E+00 0. -1.
         23    2    1    2    0    0  0.60033641105E+02 -0.19323575684E+02  0.23361882303E+03  0.26374955590E+03  0.10492204307E+03 0.  0.
          5    1    1    2  502    0 -0.58143386408E+02 -0.73061856624E+01  0.64706073091E+02  0.87397837655E+02  0.41800000000E+01 0. -1.
         -5    1    1    2    0  502 -0.18902546967E+01  0.26629761346E+02  0.33604667100E+03  0.33713136126E+03  0.41800000000E+01 0. -1.
        -11    1    3    3    0    0  0.17823689912E+01  0.30245083560E+02  0.18646898239E+02  0.35575957229E+02  0.00000000000E+00 0. -1.
         11    1    3    3    0    0  0.58251272114E+02 -0.49568659244E+02  0.21497192479E+03  0.22817359867E+03  0.00000000000E+00 0.  1.
</event>
<event>
 7    1  0.4687179E-006  0.1061315E+03  0.7561462E-02  0.1267906E+00
          1   -1    0    0  501    0  0.00000000000E+00  0.00000000000E+00  0.12231529758E+04  0.12231529758E+04  0.00000000000E+00 0. -1.
         -1   -1    0    0    0  501 -0.00000000000E+00 -0.00000000000E+00 -0.10290451755E+02  0.10290451755E+02  0.00000000000E+00 0.  1.
         23    2    1    2    0    0  0.16891779602E+02 -0.24736763401E+02  0.54915067481E+03  0.55738239943E+03  0.90616973385E+02 0.  0.
          5    1    1    2  502    0 -0.62448229154E+02  0.32424400556E+02  0.52699961180E+03  0.53169275556E+03  0.41800000000E+01 0. -1.
         -5    1    1    2    0  502  0.45556449551E+02 -0.76876371548E+01  0.13671223746E+03  0.14436827259E+03  0.41800000000E+01 0. -1.
        -11    1    3    3    0    0 -0.30423538436E+02 -0.35610355368E+02  0.26029260833E+03  0.26447293066E+03  0.00000000000E+00 0. -1.
         11    1    3    3    0    0  0.47315318038E+02  0.10873591966E+02  0.28885806649E+03  0.29290946877E+03  0.00000000000E+00 0.  1.
</event>
<event>
 7    1  0.4687179E-006  0.1526178E+03  0.7561462E-02  0.1197293E+00
          1   -1    0    0  501    0  0.00000000000E+00  0.00000000000E+00  0.42159630904E+02  0.42159630904E+02  0.00000000000E+00 0. -1.
         -1   -1    0    0    0  501 -0.00000000000E+00 -0.00000000000E+00 -0.12554288074E+04  0.12554288074E+04  0.00000000000E+00 0.  1.
         23    2    1    2    0    0 -0.88832592034E+02 -0.68646034273E+02 -0.10923431154E+03  0.18075337732E+03  0.90200560794E+02 0.  0.
          5    1    1    2  502    0 -0.23188091871E+02 -0.14504596554E+02 -0.13556617381E+03  0.13836087166E+03  0.41800000000E+01 0. -1.
         -5    1    1    2    0  502  0.11202068390E+03  0.83150630827E+02 -0.96846869117E+03  0.97847418934E+03  0.41800000000E+01 0.  1.
        -11    1    3    3    0    0 -0.60400169696E+02 -0.85696387476E+02 -0.10308967262E+03  0.14703581852E+03  0.00000000000E+00 0. -1.
         11    1    3    3    0    0 -0.28432422337E+02  0.17050353203E+02 -0.61446389135E+01  0.33717558804E+02  0.00000000000E+00 0.  1.
</event>
<event>
 7    1  0.4687179E-006  0.1151953E+03  0.7561462E-02  0.1251241E+00
          2   -1    0    0  501    0  0.00000000000E+00  0.00000000000E+00  0.38762254757E+03  0.38762254757E+03  0.00000000000E+00 0.  1.
         -2   -1    0    0    0  501 -0.00000000000E+00 -0.00000000000E+00 -0.42839013209E+02  0.42839013209E+02  0.00000000000E+00 0. -1.
         23    2    1    2    0    0  0.31081918656E+02  0.23661386546E+02  0.24778913099E+03  0.26742561126E+03  0.92687956296E+02 0.  0.
          5    1    1    2  502    0  0.37068667939E+02 -0.45977329707E+02  0.44536591059E+02  0.74087659789E+02  0.41800000000E+01 0. -1.
         -5    1    1    2    0  502 -0.68150586596E+02  0.22315943161E+02  0.52457812311E+02  0.88948289725E+02  0.41800000000E+01 0. -1.
        -11    1    3    3    0    0 -0.30588991082E+02 -0.55876582442E+01  0.59289525660E+02  0.66948907034E+02  0.00000000000E+00 0.  1.
         11    1    3    3    0    0  0.61670909739E+02  0.29249044790E+02  0.18849960533E+03  0.20047670423E+03  0.00000000000E+00 0. -1.
</event>
<event>
 7    1  0.4687179E-006  0.1091726E+03  0.7561462E-02  0.1262110E+00
         -1   -1    0    0    0  501 -0.00000000000E+00  0.00000000000E+00  0.52020887894E+03  0.52020887894E+03  0.00000000000E+00 0.  1.
          1   -1    0    0  501    0  0.00000000000E+00 -0.00000000000E+00 -0.84230746615E+02  0.84230746615E+02  0.00000000000E+00 0. -1.
         23    2    1    2    0    0  0.64238618060E+02 -0.67793959013E+01 -0.32751985005E+02  0.11673874613E+03  0.91556988085E+02 0.  0.
          5    1    1    2  502    0 -0.31850054442E+02  0.61632812662E+02  0.27865110878E+03  0.28718799137E+03  0.41800000000E+01 0. -1.
         -5    1    1    2    0  502 -0.32388563619E+02 -0.54853416761E+02  0.19007900855E+03  0.20051288805E+03  0.41800000000E+01 0.  1.
        -11    1    3    3    0    0  0.67407865981E+02  0.98074978349E+01  0.11765280718E+02  0.69126183464E+02  0.00000000000E+00 0. -1.
         11    1    3    3    0    0 -0.31692479204E+01 -0.16586893736E+02 -0.44517265723E+02  0.47612562666E+02  0.00000000000E+00 0.  1.
</event>
<event>
 7    1  0.4687179E-006  0.1110104E+03  0.7561462E-02  0.1258710E+00
         -3   -1    0    0    0  501 -0.00000000000E+00  0.00000000000E+00  0.35515310392E+03  0.35515310392E+03  0.00000000000E+00 0.  1.
          3   -1    0    0  501    0  0.00000000000E+00 -0.00000000000E+00 -0.47073114814E+02  0.47073114814E+02  0.00000000000E+00 0. -1.
         23    2    1    2    0    0 -0.64611279184E+02  0.22138993041E+02  0.10636010524E+03  0.15523216613E+03  0.90109938422E+02 0.  0.
          5    1    1    2  502    0  0.89404320752E+02 -0.11349778077E+02  0.74904633842E+02  0.11726093383E+03  0.41800000000E+01 0. -1.
         -5    1    1    2    0  502 -0.24793041568E+02 -0.10789214964E+02  0.12681525002E+03  0.12973311877E+03  0.41800000000E+01 0. -1.
        -11    1    3    3    0    0 -0.62661077042E+02 -0.17259939604E+02  0.93245753453E+02  0.11366216005E+03  0.00000000000E+00 0.  1.
         11    1    3    3    0    0 -0.19502021422E+01  0.39398932645E+02  0.13114351788E+02  0.41570006071E+02  0.00000000000E+00 0. -1.
</event>
<event>
 6    1  0.4687179E-006  0.6251794E+02  0.7561462E-02  0.1387559E+00
         -2   -1    0    0    0  501 -0.00000000000E+00  0.00000000000E+00  0.66290909174E+02  0.66290909174E+02  0.00000000000E+00 0.  1.
          2   -1    0    0  501    0  0.00000000000E+00 -0.00000000000E+00 -0.13514617517E+03  0.13514617517E+03  0.00000000000E+00 0. -1.
          5    1    1    2  502    0 -0.12533849988E+02  0.19225472919E+02 -0.68415725912E+02  0.72283470839E+02  0.41800000000E+01 0. -1.
         -5    1    1    2    0  502  0.11459089548E+02 -0.58636103677E+02  0.26385514770E+02  0.65445940877E+02  0.41800000000E+01 0. -1.
        -11    1    1    2    0    0 -0.58598085733E+01  0.26719884166E+02 -0.37008046058E+02  0.46020484997E+02  0.00000000000E+00 0. -1.
         11    1    1    2    0    0  0.69345690135E+01  0.12690746592E+02  0.10182991204E+02  0.17687187632E+02  0.00000000000E+00 0.  1.
</event>
<event>
 7    1  0.4687179E-006  0.1194474E+03  0.7561462E-02  0.1244011E+00
         -2   -1    0    0    0  501 -0.00000000000E+00  0.00000000000E+00  0.16783661765E+03  0.16783661765E+03  0.00000000000E+00 0.  1.
          2   -1    0    0  501    0  0.00000000000E+00 -0.00000000000E+00 -0.16680040134E+03  0.16680040134E+03  0.00000000000E+00 0. -1.
         23    2    1    2    0    0 -0.32653323956E+02  0.78417048149E+02 -0.95108855447E+02  0.15545326904E+03  0.88907544484E+02 0.  0.
          5    1    1    2  502    0 -0.46994745641E+02 -0.15692489603E+02  0.30402185176E+02  0.58279718696E+02  0.41800000000E+01 0.  1.
         -5    1    1    2    0  502  0.79648069597E+02 -0.62724558546E+02  0.65742886579E+02  0.12090403124E+03  0.41800000000E+01 0.  1.
        -11    1    3    3    0    0 -0.21485196592E+02  0.24247358648E+02  0.12289797200E+02  0.34649490461E+02  0.00000000000E+00 0.  1.
         11    1    3    3    0    0 -0.11168127364E+02  0.54169689501E+02 -0.10739865265E+03  0.12080377858E+03  0.00000000000E+00 0. -1.
</event>
<event>
 7    1  0.4687179E-006  0.1188739E+03  0.7561462E-02  0.1244966E+00
         -2   -1    0    0    0  501 -0.00000000000E+00  0.00000000000E+00  0.21613856019E+02  0.21613856019E+02  0.00000000000E+00 0.  1.
          2   -1    0    0  501    0  0.00000000000E+00 -0.00000000000E+00 -0.72051773142E+03  0.72051773142E+03  0.00000000000E+00 0. -1.
         23    2    1    2    0    0 -0.28416409573E+02  0.38572216706E+02 -0.40596727791E+03  0.42002028659E+03  0.96500270325E+02 0.  0.
          5    1    1    2  502    0  0.68480280832E+01 -0.83389182808E+02 -0.17356434500E+03  0.19272442905E+03  0.41800000000E+01 0. -1.
         -5    1    1    2    0  502  0.21568381489E+02  0.44816966102E+02 -0.11937225248E+03  0.12938687180E+03  0.41800000000E+01 0. -1.
        -11    1    3    3    0    0 -0.38805148676E+02 -0.20634473711E+02 -0.22735833523E+03  0.23156734154E+03  0.00000000000E+00 0. -1.
         11    1    3    3    0    0  0.10388739104E+02  0.59206690416E+02 -0.17860894268E+03  0.18845294505E+03  0.00000000000E+00 0.  1.
</event>
<event>
 7    1  0.4687179E-006  0.9807004E+02  0.7561462E-02  0.1284408E+00
          1   -1    0    0  501    0  0.00000000000E+00  0.00000000000E+00  0.13246915290E+03  0.13246915290E+03  0.00000000000E+00 0. -1.
         -1   -1    0    0    0  501 -0.00000000000E+00 -0.00000000000E+00 -0.14222149593E+03  0.14222149593E+03  0.00000000000E+00 0.  1.
         23    2    1    2    0    0  0.33579840715E+01  0.75846789881E+02  0.34733908569E+02  0.12175172570E+03  0.88617304824E+02 0.  0.
          5    1    1    2  502    0  0.33725460120E+02 -0.60265640068E+02 -0.75179091844E+02  0.10217006550E+03  0.41800000000E+01 0. -1.
         -5    1    1    2    0  502 -0.37083444191E+02 -0.15581149813E+02  0.30692840251E+02  0.50768857632E+02  0.41800000000E+01 0. -1.
        -11    1    3    3    0    0 -0.18824820062E+02  0.27574282930E+02  0.55453581887E+02  0.64728777785E+02  0.00000000000E+00 0. -1.
         11    1    3    3    0    0  0.22182804134E+02  0.48272506950E+02 -0.20719673318E+02  0.57022947915E+02  0.00000000000E+00 0.  1.
</event>
<event>
 7    1  0.4687179E-006  0.2274543E+03  0.7561462E-02  0.1128444E+00
          3   -1    0    0  501    0  0.00000000000E+00  0.00000000000E+00  0.31320058952E+03  0.31320058952E+03  0.00000000000E+00 0. -1.
         -3   -1    0    0    0  501 -0.00000000000E+00 -0.00000000000E+00 -0.17651405308E+03  0.17651405308E+03  0.00000000000E+00 0.  1.
         23    2    1    2    0    0 -0.12168345000E+03 -0.14655389878E+03  0.96514469360E+02  0.23207655237E+03  0.90882210104E+02 0.  0.
          5    1    1    2  502    0 -0.37097692684E+02  0.58518514141E+02  0.30388037523E+02  0.75773085751E+02  0.41800000000E+01 0. -1.
         -5    1    1    2    0  502  0.15878114268E+03  0.88035384639E+02  0.97840295535E+01  0.18186500448E+03  0.41800000000E+01 0.  1.
        -11    1    3    3    0    0 -0.63523400958E+02 -0.23397220732E+02  0.47772352457E+01  0.67863645524E+02  0.00000000000E+00 0.  1.
         11    1    3    3    0    0 -0.58160049042E+02 -0.12315667805E+03  0.91737234114E+02  0.16421290685E+03  0.00000000000E+00 0. -1.
</event>
<event>
 7    1  0.4687179E-006  0.1078488E+03  0.7561462E-02  0.1264606E+00
         -2   -1    0    0    0  501 -0.00000000000E+00  0.00000000000E+00  0.72191842038E+02  0.72191842038E+02  0.00000000000E+00 0.  1.
          2   -1    0    0  501    0  0.00000000000E+00 -0.00000000000E+00 -0.20086354843E+03  0.20086354843E+03  0.00000000000E+00 0. -1.
         23    2    1    2    0    0 -0.35604955211E+02  0.27001188355E+01 -0.98014353542E+02  0.13940621540E+03  0.92478515963E+02 0.  0.
          5    1    1    2  502    0  0.63618117869E+02  0.41013517895E+02 -0.30082698675E+02  0.81558658221E+02  0.41800000000E+01 0.  1.
         -5    1    1    2    0  502 -0.28013162657E+02 -0.43713636730E+02 -0.57465417824E+00  0.52090516850E+02  0.41800000000E+01 0.  1.
        -11    1    3    3    0    0 -0.47585658738E+02  0.31189573138E+02 -0.29159631504E+02  0.63933312909E+02  0.00000000000E+00 0.  1.
         11    1    3    3    0    0  0.11980703527E+02 -0.28489454303E+02 -0.68854722038E+02  0.75472902491E+02  0.00000000000E+00 0. -1.
</event>
<event>
 7    1  0.4687179E-006  0.9677102E+02  0.7561462E-02  0.1287236E+00
         -1   -1    0    0    0  501 -0.00000000000E+00  0.00000000000E+00  0.60792505010E+02  0.60792505010E+02  0.00000000000E+00 0.  1.
          1   -1    0    0  501    0  0.00000000000E+00 -0.00000000000E+00 -0.28932442266E+03  0.28932442266E+03  0.00000000000E+00 0. -1.
         23    2    1    2    0    0  0.22432058359E+02  0.61079139910E+02 -0.15210277718E+03  0.18973101852E+03  0.92891043644E+02 0.  0.
          5    1    1    2  502    0  0.31101851943E+02 -0.41381638018E+01  0.19037831633E+02  0.36937257982E+02  0.41800000000E+01 0.  1.
         -5    1    1    2    0  502 -0.53533910302E+02 -0.56940976108E+02 -0.95466972106E+02  0.12344865117E+03  0.41800000000E+01 0.  1.
        -11    1    3    3    0    0  0.16103017295E+02 -0.52920010175E+01  0.61306171974E+01  0.18024896893E+02  0.00000000000E+00 0.  1.
         11    1    3    3    0    0  0.63290410631E+01  0.66371140928E+02 -0.15823339438E+03  0.17170612163E+03  0.00000000000E+00 0. -1.
</event>
<event>
 7    1  0.4687179E-006  0.1434273E+03  0.7561462E-02  0.1208790E+00
         -2   -1    0    0    0  501 -0.00000000000E+00  0.00000000000E+00  0.21817788924E+02  0.21817788924E+02  0.00000000000E+00 0.  1.
          2   -1    0    0  501    0  0.00000000000E+00 -0.00000000000E+00 -0.11691517824E+04  0.11691517824E+04  0.00000000000E+00 0. -1.
         23    2    1    2    0    0  0.99175554189E+02 -0.53122749782E+02 -0.65873627232E+03  0.67421815060E+03  0.89324246621E+02 0.  0.
          5    1    1    2  502    0 -0.22939396773E+02  0.68147596187E+02 -0.11939916302E+03  0.13944154087E+03  0.41800000000E+01 0.  1.
         -5    1    1    2    0  502 -0.76236157416E+02 -0.15024846405E+02 -0.36919855814E+03  0.37730987986E+03  0.41800000000E+01 0.  1.
        -11    1    3    3    0    0  0.37614798167E+02  0.19040488919E+02 -0.11988391229E+03  0.12708094147E+03  0.00000000000E+00 0.  1.
         11    1    3    3    0    0  0.61560756022E+02 -0.72163238700E+02 -0.53885236003E+03  0.54713720913E+03  0.00000000000E+00 0. -1.
</event>
<event>
 7    1  0.4687179E-006  0.9981054E+02  0.7561462E-02  0.1280695E+00
         -2   -1    0    0    0  501 -0.00000000000E+00  0.00000000000E+00  0.29945325088E+03  0.29945325088E+03  0.00000000000E+00 0.  1.
          2   -1    0    0  501    0  0.00000000000E+00 -0.00000000000E+00 -0.71680514476E+02  0.71680514476E+02  0.00000000000E+00 0. -1.
         23    2    1    2    0    0 -0.76140636816E+02  0.55170100573E+02  0.70879891741E+02  0.14953358143E+03  0.92169389448E+02 0.  0.
          5    1    1    2  502    0  0.59576629981E+02 -0.30516063746E+02  0.55313549987E+01  0.67295417931E+02  0.41800000000E+01 0. -1.
         -5    1    1    2    0  502  0.16564006835E+02 -0.24654036827E+02  0.15136148967E+03  0.15430476599E+03  0.41800000000E+01 0. -1.
        -11    1    3    3    0    0 -0.18823895602E+02 -0.49818103591E+01  0.63154438223E+02  0.66088127128E+02  0.00000000000E+00 0.  1.
         11    1    3    3    0    0 -0.57316741214E+02  0.60151910932E+02  0.77254535178E+01  0.83445454305E+02  0.00000000000E+00 0. -1.
</event>
<event>
 7    1  0.4687179E-006  0.9965969E+02  0.7561462E-02  0.1281013E+00
          4   -1    0    0  501    0  0.00000000000E+00  0.00000000000E+00  0.15137800170E+03  0.15137800170E+03  0.00000000000E+00 0. -1.
         -4   -1    0    0    0  501 -0.00000000000E+00 -0.00000000000E+00 -0.10085644165E+03  0.10085644165E+03  0.00000000000E+00 0.  1.
         23    2    1    2    0    0 -0.36798492116E+02  0.45841320612E+02  0.28275406233E+02  0.11504131990E+03  0.94759965117E+02 0.  0.
          5    1    1    2  502    0 -0.11458463342E+02 -0.42945479435E+02  0.60650838486E+02  0.75310073663E+02  0.41800000000E+01 0. -1.
         -5    1    1    2    0  502  0.48256955458E+02 -0.28958411774E+01 -0.38404684677E+02  0.61883049790E+02  0.41800000000E+01 0.  1.
        -11    1    3    3    0    0 -0.57126722936E+02  0.58850026992E+02  0.60624915293E+01  0.82240756039E+02  0.00000000000E+00 0. -1.
         11    1    3    3    0    0  0.20328230819E+02 -0.13008706380E+02  0.22212914704E+02  0.32800563861E+02  0.00000000000E+00 0.  1.
</event>
<event>
 7    1  0.4687179E-006  0.1167515E+03  0.7561462E-02  0.1248554E+00
          1   -1    0    0  501    0  0.00000000000E+00  0.00000000000E+00  0.62143875114E+03  0.62143875114E+03  0.00000000000E+00 0. -1.
         -1   -1    0    0    0  501 -0.00000000000E+00 -0.00000000000E+00 -0.30154799297E+02  0.30154799297E+02  0.00000000000E+00 0.  1.
         23    2    1    2    0    0 -0.65993596572E+02  0.11775419721E+02  0.37793225567E+03  0.39535023938E+03  0.94737567039E+02 0.  0.
          5    1    1    2  502    0  0.29628913498E+02  0.56313181671E+02  0.82641311879E+02  0.10438441346E+03  0.41800000000E+01 0. -1.
         -5    1    1    2    0  502  0.36364683074E+02 -0.68088601392E+02  0.13071038430E+03  0.15185889759E+03  0.41800000000E+01 0. -1.
        -11    1    3    3    0    0 -0.52826146121E+02  0.36643227235E+02  0.34944106241E+03  0.35530604261E+03  0.00000000000E+00 0. -1.
         11    1    3    3    0    0 -0.13167450451E+02 -0.24867807515E+02  0.28491193253E+02  0.40044196770E+02  0.00000000000E+00 0.  1.
</event>
<event>
 7    1  0.4687179E-006  0.9697507E+02  0.7561462E-02  0.1286789E+00
         -3   -1    0    0    0  501 -0.00000000000E+00  0.00000000000E+00  0.49515396360E+02  0.49515396360E+02  0.00000000000E+00 0.  1.
          3   -1    0    0  501    0  0.00000000000E+00 -0.00000000000E+00 -0.31860928050E+03  0.31860928050E+03  0.00000000000E+00 0. -1.
         23    2    1    2    0    0  0.29494832981E+02  0.55028625948E+02 -0.12260713264E+03  0.16563114943E+03  0.92212113313E+02 0.  0.
          5    1    1    2  502    0  0.40353077029E+01 -0.57947563343E+02 -0.15661940841E+03  0.16709672437E+03  0.41800000000E+01 0. -1.
         -5    1    1    2    0  502 -0.33530140684E+02  0.29189373954E+01  0.10132656917E+02  0.35396803048E+02  0.41800000000E+01 0. -1.
        -11    1    3    3    0    0  0.20349913359E+02  0.76127792390E+02 -0.11844303682E+03  0.14226142386E+03  0.00000000000E+00 0. -1.
         11    1    3    3    0    0  0.91449196229E+01 -0.21099166442E+02 -0.41640958267E+01  0.23369725576E+02  0.00000000000E+00 0.  1.
</event>
<event>
 7    1  0.4687179E-006  0.1110728E+03  0.7561462E-02  0.1258596E+00
         -2   -1    0    0    0  501 -0.00000000000E+00  0.00000000000E+00  0.22303932783E+03  0.22303932783E+03  0.00000000000E+00 0.  1.
          2   -1    0    0  501    0  0.00000000000E+00 -0.00000000000E+00 -0.75649804951E+02  0.75649804951E+02  0.00000000000E+00 0. -1.
         23    2    1    2    0    0 -0.42199282079E+02  0.19904248882E+02 -0.27704914399E+01  0.10010538416E+03  0.88523747006E+02 0.  0.
          5    1    1    2  502    0 -0.22945147664E+02  0.33478747443E+02  0.25614110133E+02  0.48175319091E+02  0.41800000000E+01 0. -1.
         -5    1    1    2    0  502  0.65144429742E+02 -0.53382996326E+02  0.12454590419E+03  0.15040842953E+03  0.41800000000E+01 0.  1.
        -11    1    3    3    0    0  0.15449105694E+02 -0.21188007163E+02  0.10192544663E+02  0.28133511708E+02  0.00000000000E+00 0.  1.
         11    1    3    3    0    0 -0.57648387773E+02  0.41092256046E+02 -0.12963036103E+02  0.71971872455E+02  0.00000000000E+00 0. -1.
</event>
<event>
 7    1  0.4855755E-006  0.9982089E+02  0.7561462E-02  0.1280673E+00
         -2   -1    0    0    0  501 -0.00000000000E+00  0.00000000000E+00  0.21839931051E+02  0.21839931051E+02  0.00000000000E+00 0.  1.
          2   -1    0    0  501    0  0.00000000000E+00 -0.00000000000E+00 -0.61340344546E+03  0.61340344546E+03  0.00000000000E+00 0. -1.
         23    2    1    2    0    0 -0.40776512242E+02 -0.24026453628E+02 -0.26955069134E+03  0.28655994094E+03  0.84964875820E+02 0.  0.
          5    1    1    2  502    0  0.76435430443E+02  0.48120559292E+02 -0.21181134905E+03  0.23030302482E+03  0.41800000000E+01 0.  1.
         -5    1    1    2    0  502 -0.35658918201E+02 -0.24094105663E+02 -0.11020147402E+03  0.11838041076E+03  0.41800000000E+01 0.  1.
        -11    1    3    3    0    0 -0.26481992676E+02 -0.37787671833E+02 -0.26084023672E+03  0.26489022853E+03  0.00000000000E+00 0. -1.
         11    1    3    3    0    0 -0.14294519567E+02  0.13761218205E+02 -0.87104546217E+01  0.21669712408E+02  0.00000000000E+00 0.  1.
</event>
<event>
 7    1  0.4687179E-006  0.2394268E+03  0.7561462E-02  0.1120175E+00
         -1   -1    0    0    0  501 -0.00000000000E+00  0.00000000000E+00  0.15215748846E+03  0.15215748846E+03  0.00000000000E+00 0.  1.
          1   -1    0    0  501    0  0.00000000000E+00 -0.00000000000E+00 -0.44302570743E+03  0.44302570743E+03  0.00000000000E+00 0. -1.
         23    2    1    2    0    0 -0.11563588259E+03  0.18548821078E+03 -0.24184023914E+03  0.33861097689E+03  0.91614184047E+02 0.  0.
          5    1    1    2  502    0 -0.67263475226E+01 -0.87670611554E+02 -0.47129143008E+02  0.99849929403E+02  0.41800000000E+01 0. -1.
         -5    1    1    2    0  502  0.12236223011E+03 -0.97817599227E+02 -0.18988368158E+01  0.15672228960E+03  0.41800000000E+01 0. -1.
        -11    1    3    3    0    0 -0.46124124889E+02  0.14824554783E+03 -0.18436732111E+03  0.24103005299E+03  0.00000000000E+00 0. -1.
         11    1    3    3    0    0 -0.69511757702E+02  0.37242662949E+02 -0.57472918030E+02  0.97580923900E+02  0.00000000000E+00 0.  1.
</event>
<event>
 7    1  0.4687179E-006  0.9809435E+02  0.7561462E-02  0.1284355E+00
         -3   -1    0    0    0  501 -0.00000000000E+00  0.00000000000E+00  0.24967925650E+03  0.24967925650E+03  0.00000000000E+00 0.  1.
          3   -1    0    0  501    0  0.00000000000E+00 -0.00000000000E+00 -0.14958816806E+03  0.14958816806E+03  0.00000000000E+00 0. -1.
         23    2    1    2    0    0 -0.11496600979E+02 -0.59753099818E+02 -0.10303132660E+03  0.15243281467E+03  0.94433595490E+02 0.  0.
          5    1    1    2  502    0 -0.16025964288E+02  0.66066760880E+02  0.35515925386E+02  0.76814723722E+02  0.41800000000E+01 0. -1.
         -5    1    1    2    0  502  0.27522565267E+02 -0.63136610615E+01  0.16760648966E+03  0.17001988616E+03  0.41800000000E+01 0.  1.
        -11    1    3    3    0    0  0.27506505039E+02  0.78514352101E+00 -0.98598752902E+00  0.27535367098E+02  0.00000000000E+00 0.  1.
         11    1    3    3    0    0 -0.39003106018E+02 -0.60538243339E+02 -0.10204533907E+03  0.12489744758E+03  0.00000000000E+00 0. -1.
</event>
<event>
 7    1  0.5293259E-006  0.1990719E+03  0.7561462E-02  0.1150524E+00
         -2   -1    0    0    0  501 -0.00000000000E+00  0.00000000000E+00  0.20271442331E+02  0.20271442331E+02  0.00000000000E+00 0.  1.
          2   -1    0    0  501    0  0.00000000000E+00 -0.00000000000E+00 -0.20399179210E+04  0.20399179210E+04  0.00000000000E+00 0. -1.
         23    2    1    2    0    0  0.24309831153E+02  0.16912082277E+03 -0.90773112562E+03  0.92829019759E+03  0.92488236761E+02 0.  0.
          5    1    1    2  502    0 -0.29539828764E+02 -0.18842120936E+03 -0.10263815615E+04  0.10439596428E+04  0.41800000000E+01 0. -1.
         -5    1    1    2    0  502  0.52299976107E+01  0.19300386588E+02 -0.85533791551E+02  0.87939522937E+02  0.41800000000E+01 0. -1.
        -11    1    3    3    0    0 -0.27375575175E+02  0.69935909415E+02 -0.24719456973E+03  0.25835171540E+03  0.00000000000E+00 0. -1.
         11    1    3    3    0    0  0.51685406328E+02  0.99184913353E+02 -0.66053655588E+03  0.66993848219E+03  0.00000000000E+00 0.  1.
</event>
<event>
 7    1  0.4687179E-006  0.2502926E+03  0.7561462E-02  0.1113120E+00
         -3   -1    0    0    0  501 -0.00000000000E+00  0.00000000000E+00  0.45918507977E+03  0.45918507977E+03  0.00000000000E+00 0.  1.
          3   -1    0    0  501    0  0.00000000000E+00 -0.00000000000E+00 -0.15565021310E+03  0.15565021310E+03  0.00000000000E+00 0. -1.
         23    2    1    2    0    0 -0.11202343842E+03 -0.21443035437E+03  0.94822827150E+02  0.27530751723E+03  0.90957313442E+02 0.  0.
          5    1    1    2  502    0  0.82764860400E+02  0.15627496982E+03  0.77757078525E+02  0.19322402534E+03  0.41800000000E+01 0. -1.
         -5    1    1    2    0  502  0.29258578018E+02  0.58155384549E+02  0.13095496100E+03  0.14630375029E+03  0.41800000000E+01 0.  1.
        -11    1    3    3    0    0 -0.80428062225E+02 -0.58729870927E+02  0.36412828150E+02  0.10603662097E+03  0.00000000000E+00 0. -1.
         11    1    3    3    0    0 -0.31595376194E+02 -0.15570048344E+03  0.58409998999E+02  0.16927089627E+03  0.00000000000E+00 0.  1.
</event>
<event>
 7    1  0.4687179E-006  0.9907834E+02  0.7561462E-02  0.1282246E+00
          1   -1    0    0  501    0  0.00000000000E+00  0.00000000000E+00  0.23346911110E+03  0.23346911110E+03  0.00000000000E+00 0. -1.
         -1   -1    0    0    0  501 -0.00000000000E+00 -0.00000000000E+00 -0.65752989011E+02  0.65752989011E+02  0.00000000000E+00 0.  1.
         23    2    1    2    0    0 -0.16972331511E+00 -0.19312169931E+02  0.14290294341E+03  0.17024110111E+03  0.90486421943E+02 0.  0.
          5    1    1    2  502    0  0.21228992037E+02  0.58189673198E+02 -0.20649018793E+02  0.65426008184E+02  0.41800000000E+01 0. -1.
         -5    1    1    2    0  502 -0.21059268722E+02 -0.38877503267E+02  0.45462197469E+02  0.63554990820E+02  0.41800000000E+01 0. -1.
        -11    1    3    3    0    0  0.26563972108E+02 -0.46487525105E+02  0.71820441918E+02  0.89581864693E+02  0.00000000000E+00 0. -1.
         11    1    3    3    0    0 -0.26733695423E+02  0.27175355175E+02  0.71082501496E+02  0.80659236413E+02  0.00000000000E+00 0.  1.
</event>
<event>
 7    1  0.4687179E-006  0.4882921E+02  0.7561462E-02  0.1451761E+00
         -3   -1    0    0    0  501 -0.00000000000E+00  0.00000000000E+00  0.93906842625E+02  0.93906842625E+02  0.00000000000E+00 0.  1.
          3   -1    0    0  501    0  0.00000000000E+00 -0.00000000000E+00 -0.14666456243E+03  0.14666456243E+03  0.00000000000E+00 0. -1.
         23    2    1    2    0    0 -0.28127947848E+02 -0.35027461125E+02 -0.21808604090E+02  0.10410242236E+03  0.91343279145E+02 0.  0.
          5    1    1    2  502    0  0.22340681942E+02  0.23176278999E+02 -0.79560113877E+02  0.85927469985E+02  0.41800000000E+01 0.  1.
         -5    1    1    2    0  502  0.57872659052E+01  0.11851182126E+02  0.48610998166E+02  0.50541512711E+02  0.41800000000E+01 0.  1.
        -11    1    3    3    0    0 -0.28824835964E+02 -0.17293638453E+02  0.32628024628E+02  0.46845801203E+02  0.00000000000E+00 0.  1.
         11    1    3    3    0    0  0.69688811605E+00 -0.17733822672E+02 -0.54436628717E+02  0.57256621152E+02  0.00000000000E+00 0. -1.
</event>
<event>
 7    1  0.4687179E-006  0.9356474E+02  0.7561462E-02  0.1294442E+00
          1   -1    0    0  501    0  0.00000000000E+00  0.00000000000E+00  0.21115944708E+03  0.21115944708E+03  0.00000000000E+00 0. -1.
         -1   -1    0    0    0  501 -0.00000000000E+00 -0.00000000000E+00 -0.69667003195E+02  0.69667003195E+02  0.00000000000E+00 0.  1.
         23    2    1    2    0    0 -0.47535818786E+02  0.28086450825E+02  0.68792825904E+02  0.12596610487E+03  0.89924990372E+02 0.  0.
          5    1    1    2  502    0 -0.40684960244E+01  0.22114760627E+02  0.79215522507E+02  0.82451117055E+02  0.41800000000E+01 0.  1.
         -5    1    1    2    0  502  0.51604314810E+02 -0.50201211453E+02 -0.65159045234E+01  0.72409228349E+02  0.41800000000E+01 0.  1.
        -11    1    3    3    0    0  0.12709336909E+02 -0.13805116265E+02 -0.74125144945E+01  0.20175575603E+02  0.00000000000E+00 0.  1.
         11    1    3    3    0    0 -0.60245155695E+02  0.41891567091E+02  0.76205340398E+02  0.10579052927E+03  0.00000000000E+00 0. -1.
</event>
<event>
 7    1  0.4687179E-006  0.7863531E+02  0.7561462E-02  0.1332969E+00
         -1   -1    0    0    0  501 -0.00000000000E+00  0.00000000000E+00  0.10894203879E+03  0.10894203879E+03  0.00000000000E+00 0.  1.
          1   -1    0    0  501    0  0.00000000000E+00 -0.00000000000E+00 -0.16363190300E+03  0.16363190300E+03  0.00000000000E+00 0. -1.
         23    2    1    2    0    0 -0.31733677679E+01  0.72832571736E+02 -0.52742755218E+02  0.12777947990E+03  0.90725649550E+02 0.  0.
          5    1    1    2  502    0 -0.27838037256E+01 -0.83804766301E+01 -0.58153161342E+02  0.58968165359E+02  0.41800000000E+01 0.  1.
         -5    1    1    2    0  502  0.59571714935E+01 -0.64452095106E+02  0.56206052344E+02  0.85826296529E+02  0.41800000000E+01 0.  1.
        -11    1    3    3    0    0 -0.18757992861E+02  0.58615332544E+02  0.93055828560E+01  0.62243179367E+02  0.00000000000E+00 0.  1.
         11    1    3    3    0    0  0.15584625093E+02  0.14217239192E+02 -0.62048338074E+02  0.65536300531E+02  0.00000000000E+00 0. -1.
</event>
<event>
 7    1  0.4687179E-006  0.1289339E+03  0.7561462E-02  0.1229046E+00
         -2   -1    0    0    0  501 -0.00000000000E+00  0.00000000000E+00  0.11646412132E+03  0.11646412132E+03  0.00000000000E+00 0.  1.
          2   -1    0    0  501    0  0.00000000000E+00 -0.00000000000E+00 -0.24047597168E+03  0.24047597168E+03  0.00000000000E+00 0. -1.
         23    2    1    2    0    0 -0.10399484602E+03  0.61239204779E+02 -0.98927874469E+02  0.18132055616E+03  0.92332288721E+02 0.  0.
          5    1    1    2  502    0  0.65503962290E+02 -0.63081753076E+02  0.40341562655E+02  0.99574046439E+02  0.41800000000E+01 0.  1.
         -5    1    1    2    0  502  0.38490883730E+02  0.18425482977E+01 -0.65425538554E+02  0.76045490397E+02  0.41800000000E+01 0.  1.
        -11    1    3    3    0    0 -0.75171615282E+02  0.20052222069E+02 -0.90310356754E+01  0.78322557156E+02  0.00000000000E+00 0.  1.
         11    1    3    3    0    0 -0.28823230737E+02  0.41186982710E+02 -0.89896838793E+02  0.10299799901E+03  0.00000000000E+00 0. -1.
</event>
<event>
 7    1  0.4687179E-006  0.1575020E+03  0.7561462E-02  0.1191546E+00
          2   -1    0    0  501    0  0.00000000000E+00  0.00000000000E+00  0.97081349402E+03  0.97081349402E+03  0.00000000000E+00 0. -1.
         -2   -1    0    0    0  501 -0.00000000000E+00 -0.00000000000E+00 -0.33401188723E+02  0.33401188723E+02  0.00000000000E+00 0.  1.
         23    2    1    2    0    0  0.80272469288E+01  0.14278487054E+03  0.46301884837E+03  0.49318944644E+03  0.91637438746E+02 0.  0.
          5    1    1    2  502    0  0.42466814277E+02 -0.71568630716E+02  0.12052982109E+03  0.14652784510E+03  0.41800000000E+01 0.  1.
         -5    1    1    2    0  502 -0.50494061205E+02 -0.71216239821E+02  0.35386363583E+03  0.36449739121E+03  0.41800000000E+01 0.  1.
        -11    1    3    3    0    0  0.13890778190E+02  0.77832417417E+02  0.37723002200E+03  0.38542616468E+03  0.00000000000E+00 0. -1.
         11    1    3    3    0    0 -0.58635312608E+01  0.64952453119E+02  0.85788826375E+02  0.10776328176E+03  0.00000000000E+00 0.  1.
</event>
<event>
 7    1  0.4687179E-006  0.1683798E+03  0.7561462E-02  0.1179548E+00
          1   -1    0    0  501    0  0.00000000000E+00  0.00000000000E+00  0.41014220833E+03  0.41014220833E+03  0.00000000000E+00 0. -1.
         -1   -1    0    0    0  501 -0.00000000000E+00 -0.00000000000E+00 -0.10962632090E+03  0.10962632090E+03  0.00000000000E+00 0.  1.
         23    2    1    2    0    0 -0.11124238679E+03  0.89567017633E+02  0.28145038401E+03  0.32896163621E+03  0.92759474837E+02 0.  0.
          5    1    1    2  502    0  0.12987414011E+03 -0.77212886779E+02 -0.12762049622E+02  0.15168870909E+03  0.41800000000E+01 0. -1.
         -5    1    1    2    0  502 -0.18631753326E+02 -0.12354130854E+02  0.31827553045E+02  0.39118183931E+02  0.41800000000E+01 0. -1.
        -11    1    3    3    0    0 -0.20535980648E+02  0.66038050066E+02  0.73763837039E+02  0.10111307637E+03  0.00000000000E+00 0. -1.
         11    1    3    3    0    0 -0.90706406137E+02  0.23528967568E+02  0.20768654697E+03  0.22784855984E+03  0.00000000000E+00 0.  1.
</event>
<event>
 7    1  0.4687179E-006  0.1830408E+03  0.7561462E-02  0.1164892E+00
         -1   -1    0    0    0  501 -0.00000000000E+00  0.00000000000E+00  0.19196633305E+03  0.19196633305E+03  0.00000000000E+00 0.  1.
          1   -1    0    0  501    0  0.00000000000E+00 -0.00000000000E+00 -0.27536068372E+03  0.27536068372E+03  0.00000000000E+00 0. -1.
         23    2    1    2    0    0 -0.51783277009E+02 -0.14820887002E+03 -0.16981731684E+03  0.24881397929E+03  0.91777438732E+02 0.  0.
          5    1    1    2  502    0  0.93165903382E+02  0.10245066958E+03  0.54011775001E+02  0.14869690477E+03  0.41800000000E+01 0. -1.
         -5    1    1    2    0  502 -0.41382626373E+02  0.45758200441E+02  0.32411191178E+02  0.69816132711E+02  0.41800000000E+01 0. -1.
        -11    1    3    3    0    0 -0.39671384176E+02 -0.14837922389E+03 -0.17730072990E+03  0.23457570554E+03  0.00000000000E+00 0. -1.
         11    1    3    3    0    0 -0.12111892833E+02  0.17035387136E+00  0.74834130590E+01  0.14238273752E+02  0.00000000000E+00 0.  1.
</event>
<event>
 7    1  0.4687179E-006  0.1136804E+03  0.7561462E-02  0.1253902E+00
          1   -1    0    0  501    0  0.00000000000E+00  0.00000000000E+00  0.26406025742E+03  0.26406025742E+03  0.00000000000E+00 0. -1.
         -1   -1    0    0    0  501 -0.00000000000E+00 -0.00000000000E+00 -0.10049182060E+03  0.10049182060E+03  0.00000000000E+00 0.  1.
         23    2    1    2    0    0  0.37527409469E+02 -0.70034396971E+02  0.17734560629E+03  0.21572007146E+03  0.93651278367E+02 0.  0.
          5    1    1    2  502    0  0.33301268192E+02 -0.15224529923E+02 -0.82971839806E+01  0.37776665239E+02  0.41800000000E+01 0.  1.
         -5    1    1    2    0  502 -0.70828677661E+02  0.85258926894E+02 -0.54799854941E+01  0.11105534132E+03  0.41800000000E+01 0.  1.
        -11    1    3    3    0    0  0.12191745784E+02 -0.18421913897E+02 -0.65535941776E+01  0.23042464572E+02  0.00000000000E+00 0.  1.
         11    1    3    3    0    0  0.25335663685E+02 -0.51612483074E+02  0.18389920047E+03  0.19267760689E+03  0.00000000000E+00 0. -1.
</event>
<event>
 7    1  0.4687179E-006  0.1559412E+03  0.7561462E-02  0.1193357E+00
          2   -1    0    0  501    0  0.00000000000E+00  0.00000000000E+00  0.33092068215E+03  0.33092068215E+03  0.00000000000E+00 0. -1.
         -2   -1    0    0    0  501 -0.00000000000E+00 -0.00000000000E+00 -0.94653029992E+02  0.94653029992E+02  0.00000000000E+00 0.  1.
         23    2    1    2    0    0  0.79740068533E+01  0.12547051857E+03  0.18407280320E+03  0.24069705055E+03  0.90806593645E+02 0.  0.
          5    1    1    2  502    0 -0.58845478106E+02 -0.64827512044E+02 -0.39512580308E+01  0.87740990713E+02  0.41800000000E+01 0. -1.
         -5    1    1    2    0  502  0.50871471253E+02 -0.60643006523E+02  0.56146106984E+02  0.97135670878E+02  0.41800000000E+01 0. -1.
        -11    1    3    3    0    0 -0.30307288319E+02  0.79867904524E+02  0.64227654339E+02  0.10687658995E+03  0.00000000000E+00 0.  1.
         11    1    3    3    0    0  0.38281295173E+02  0.45602614042E+02  0.11984514886E+03  0.13382046059E+03  0.00000000000E+00 0. -1.
</event>
<event>
 7    1  0.4687179E-006  0.1000831E+03  0.7561462E-02  0.1280121E+00
          2   -1    0    0  501    0  0.00000000000E+00  0.00000000000E+00  0.16180569504E+03  0.16180569504E+03  0.00000000000E+00 0. -1.
         -2   -1    0    0    0  501 -0.00000000000E+00 -0.00000000000E+00 -0.78674371574E+02  0.78674371574E+02  0.00000000000E+00 0.  1.
         23    2    1    2    0    0 -0.14624258182E+02  0.35422733022E+02  0.37382636695E+02  0.10199666297E+03  0.86817157226E+02 0.  0.
          5    1    1    2  502    0  0.43482546681E+02  0.28813000620E+02  0.43259212283E+02  0.67895159754E+02  0.41800000000E+01 0. -1.
         -5    1    1    2    0  502 -0.28858288499E+02 -0.64235733642E+02  0.24894744836E+01  0.70588243886E+02  0.41800000000E+01 0. -1.
        -11    1    3    3    0    0  0.22240276544E+02 -0.47780351201E+01 -0.14288856358E+02  0.26863189245E+02  0.00000000000E+00 0.  1.
         11    1    3    3    0    0 -0.36864534726E+02  0.40200768142E+02  0.51671493054E+02  0.75133473726E+02  0.00000000000E+00 0. -1.
</event>
<event>
 6    1  0.2244053E-005  0.3528200E+03  0.7561462E-02  0.1061464E+00
          2   -1    0    0  501    0  0.00000000000E+00  0.00000000000E+00  0.11056856291E+04  0.11056856291E+04  0.00000000000E+00 0. -1.
         -2   -1    0    0    0  501 -0.00000000000E+00 -0.00000000000E+00 -0.33771808877E+03  0.33771808877E+03  0.00000000000E+00 0.  1.
          5    1    1    2  502    0  0.59418604169E+02 -0.16873110554E+02 -0.82195316946E+02  0.10290196747E+03  0.41800000000E+01 0. -1.
         -5    1    1    2    0  502 -0.38681059747E+02 -0.57504289404E+02 -0.21749682109E+02  0.72756365734E+02  0.41800000000E+01 0.  1.
        -11    1    1    2    0    0 -0.24893973688E+03  0.19496285507E+03 -0.41185663041E+02  0.31886951296E+03  0.00000000000E+00 0.  1.
         11    1    1    2    0    0  0.22820219246E+03 -0.12058545511E+03  0.91309820248E+03  0.94887587175E+03  0.00000000000E+00 0. -1.
</event>
<event>
 7    1  0.4687179E-006  0.1657355E+03  0.7561462E-02  0.1182369E+00
         -1   -1    0    0    0  501 -0.00000000000E+00  0.00000000000E+00  0.29402470155E+03  0.29402470155E+03  0.00000000000E+00 0.  1.
          1   -1    0    0  501    0  0.00000000000E+00 -0.00000000000E+00 -0.10313181451E+03  0.10313181451E+03  0.00000000000E+00 0. -1.
         23    2    1    2    0    0  0.83055731938E+02  0.10146765819E+03  0.13269471443E+03  0.20681872819E+03  0.89286946550E+02 0.  0.
          5    1    1    2  502    0 -0.90048543239E+02 -0.12926579468E+02  0.40552852031E+02  0.99688729574E+02  0.41800000000E+01 0.  1.
         -5    1    1    2    0  502  0.69928113008E+01 -0.88541078720E+02  0.17645320577E+02  0.90649058291E+02  0.41800000000E+01 0.  1.
        -11    1    3    3    0    0  0.94763191122E+02  0.69710804596E+02  0.73749985406E+02  0.13884782683E+03  0.00000000000E+00 0.  1.
         11    1    3    3    0    0 -0.11707459184E+02  0.31756853592E+02  0.58944729027E+02  0.67970901353E+02  0.00000000000E+00 0. -1.
</event>
<event>
 7    1  0.4687179E-006  0.1335266E+03  0.7561462E-02  0.1222315E+00
          2   -1    0    0  501    0  0.00000000000E+00  0.00000000000E+00  0.29170563689E+03  0.29170563689E+03  0.00000000000E+00 0. -1.
         -2   -1    0    0    0  501 -0.00000000000E+00 -0.00000000000E+00 -0.76804441042E+02  0.76804441042E+02  0.00000000000E+00 0.  1.
         23    2    1    2    0    0 -0.90505212289E+02  0.45344513865E+02  0.12033636101E+03  0.18187110155E+03  0.91372530916E+02 0.  0.
          5    1    1    2  502    0  0.10525141562E+03 -0.29004940407E+02  0.11332813372E+03  0.15741628044E+03  0.41800000000E+01 0.  1.
         -5    1    1    2    0  502 -0.14746203330E+02 -0.16339573458E+02 -0.18763298879E+02  0.29222695944E+02  0.41800000000E+01 0.  1.
        -11    1    3    3    0    0  0.48769435154E+01  0.39536562593E+02  0.45655034177E+02  0.60591307177E+02  0.00000000000E+00 0. -1.
         11    1    3    3    0    0 -0.95382155804E+02  0.58079512720E+01  0.74681326838E+02  0.12127979437E+03  0.00000000000E+00 0.  1.
</event>
<event>
 7    1  0.4687179E-006  0.1616461E+03  0.7561462E-02  0.1186851E+00
         -1   -1    0    0    0  501 -0.00000000000E+00  0.00000000000E+00  0.24274171629E+02  0.24274171629E+02  0.00000000000E+00 0.  1.
          1   -1    0    0  501    0  0.00000000000E+00 -0.00000000000E+00 -0.13082657849E+04  0.13082657849E+04  0.00000000000E+00 0. -1.
         23    2    1    2    0    0 -0.12182735433E+02 -0.13620235250E+03 -0.47628241222E+03  0.50384141648E+03  0.91168727676E+02 0.  0.
          5    1    1    2  502    0  0.40189206317E+02 -0.39149639779E+01 -0.13513930794E+03  0.14110494037E+03  0.41800000000E+01 0.  1.
         -5    1    1    2    0  502 -0.28006470884E+02  0.14011731648E+03 -0.67256989313E+03  0.68759359968E+03  0.41800000000E+01 0.  1.
        -11    1    3    3    0    0 -0.20560133585E+02 -0.68235463889E+02 -0.37413998402E+03  0.38086680778E+03  0.00000000000E+00 0. -1.
         11    1    3    3    0    0  0.83773981524E+01 -0.67966888614E+02 -0.10214242819E+03  0.12297460870E+03  0.00000000000E+00 0.  1.
</event>
<event>
 7    1  0.4687179E-006  0.1126807E+03  0.7561462E-02  0.1255685E+00
         -1   -1    0    0    0  501 -0.00000000000E+00  0.00000000000E+00  0.12878913053E+04  0.12878913053E+04  0.00000000000E+00 0.  1.
          1   -1    0    0  501    0  0.00000000000E+00 -0.00000000000E+00 -0.16659963525E+02  0.16659963525E+02  0.00000000000E+00 0. -1.
         23    2    1    2    0    0 -0.28839357036E+02  0.47535798707E+02  0.22334699464E+03  0.24776625387E+03  0.91721730641E+02 0.  0.
          5    1    1    2  502    0  0.54153872312E+02  0.21443037049E+02  0.32888090823E+03  0.33402480436E+03  0.41800000000E+01 0.  1.
         -5    1    1    2    0  502 -0.25314515275E+02 -0.68978835756E+02  0.71900343894E+03  0.72276021063E+03  0.41800000000E+01 0.  1.
        -11    1    3    3    0    0 -0.21147232620E+02 -0.17764788839E+02  0.13409304718E+03  0.13690777360E+03  0.00000000000E+00 0.  1.
         11    1    3    3    0    0 -0.76921244158E+01  0.65300587545E+02  0.89253947457E+02  0.11085848027E+03  0.00000000000E+00 0. -1.
</event>
<event>
 7    1  0.4687179E-006  0.1182686E+03  0.7561462E-02  0.1245981E+00
          2   -1    0    0  501    0  0.00000000000E+00  0.00000000000E+00  0.40475548476E+03  0.40475548476E+03  0.00000000000E+00 0.  1.
         -2   -1    0    0    0  501 -0.00000000000E+00 -0.00000000000E+00 -0.48252181415E+02  0.48252181415E+02  0.00000000000E+00 0. -1.
         23    2    1    2    0    0 -0.85079127865E+02 -0.15452054406E+02  0.13137044043E+03  0.18133439709E+03  0.90259331736E+02 0.  0.
          5    1    1    2  502    0  0.96797959931E+02  0.67300755820E+01  0.23450466633E+03  0.25382090121E+03  0.41800000000E+01 0.  1.
         -5    1    1    2    0  502 -0.11718832066E+02  0.87219788245E+01 -0.93718034084E+01  0.17852367875E+02  0.41800000000E+01 0.  1.
        -11    1    3    3    0    0 -0.17975225782E+02  0.35615947042E+02  0.51903690815E+02  0.65464475449E+02  0.00000000000E+00 0.  1.
         11    1    3    3    0    0 -0.67103902083E+02 -0.51068001448E+02  0.79466749611E+02  0.11586992164E+03  0.00000000000E+00 0. -1.
</event>
<event>
 7    1  0.4687179E-006  0.1693386E+03  0.7561462E-02  0.1178539E+00
          2   -1    0    0  501    0  0.00000000000E+00  0.00000000000E+00  0.14342171111E+03  0.14342171111E+03  0.00000000000E+00 0. -1.
         -2   -1    0    0    0  501 -0.00000000000E+00 -0.00000000000E+00 -0.22602188879E+03  0.22602188879E+03  0.00000000000E+00 0.  1.
         23    2    1    2    0    0  0.14152812773E+03  0.21707428883E+02 -0.26822794073E+02  0.17130363081E+03  0.90133502321E+02 0.  0.
          5    1    1    2  502    0 -0.18413537734E+02 -0.43522308572E+02  0.20430341315E+02  0.51653857180E+02  0.41800000000E+01 0.  1.
         -5    1    1    2    0  502 -0.12311458999E+03  0.21814879689E+02 -0.76207724918E+02  0.14648611191E+03  0.41800000000E+01 0.  1.
        -11    1    3    3    0    0  0.10254313838E+03  0.53653047443E+02 -0.35440511358E+01  0.11578559940E+03  0.00000000000E+00 0. -1.
         11    1    3    3    0    0  0.38984989344E+02 -0.31945618560E+02 -0.23278742938E+02  0.55518031414E+02  0.00000000000E+00 0.  1.
</event>
<event>
 7    1  0.4687179E-006  0.2815840E+03  0.7561462E-02  0.1094827E+00
          2   -1    0    0  501    0  0.00000000000E+00  0.00000000000E+00  0.21495589266E+03  0.21495589266E+03  0.00000000000E+00 0. -1.
         -2   -1    0    0    0  501 -0.00000000000E+00 -0.00000000000E+00 -0.42137426850E+03  0.42137426850E+03  0.00000000000E+00 0.  1.
         23    2    1    2    0    0 -0.31848888289E+02  0.27213567338E+03 -0.16732286895E+03  0.33260747677E+03  0.86940294018E+02 0.  0.
          5    1    1    2  502    0  0.22346908785E+02 -0.27597860363E+03 -0.56956022770E+02  0.28271016063E+03  0.41800000000E+01 0. -1.
         -5    1    1    2    0  502  0.95019795044E+01  0.38429302494E+01  0.17860515872E+02  0.21012523757E+02  0.41800000000E+01 0. -1.
        -11    1    3    3    0    0 -0.27727819081E+02  0.12702380689E+03 -0.12744227588E+03  0.18205881783E+03  0.00000000000E+00 0.  1.
         11    1    3    3    0    0 -0.41210692086E+01  0.14511186649E+03 -0.39880593067E+02  0.15054865895E+03  0.00000000000E+00 0. -1.
</event>
<event>
 7    1  0.4687179E-006  0.1093670E+03  0.7561462E-02  0.1261747E+00
          3   -1    0    0  501    0  0.00000000000E+00  0.00000000000E+00  0.72794415168E+02  0.72794415168E+02  0.00000000000E+00 0. -1.
         -3   -1    0    0    0  501 -0.00000000000E+00 -0.00000000000E+00 -0.30509578730E+03  0.30509578730E+03  0.00000000000E+00 0.  1.
         23    2    1    2    0    0  0.26010514925E+02  0.65973327601E+02 -0.18033311657E+02  0.11984733806E+03  0.94916580587E+02 0.  0.
          5    1    1    2  502    0 -0.73777263118E+02 -0.21764036674E+02 -0.13458472292E+03  0.15507184751E+03  0.41800000000E+01 0.  1.
         -5    1    1    2    0  502  0.47766748193E+02 -0.44209290928E+02 -0.79683337554E+02  0.10297101690E+03  0.41800000000E+01 0.  1.
        -11    1    3    3    0    0 -0.41883847222E+01  0.26247055217E+02  0.37000962149E+02  0.45557893653E+02  0.00000000000E+00 0. -1.
         11    1    3    3    0    0  0.30198899647E+02  0.39726272385E+02 -0.55034273807E+02  0.74289444411E+02  0.00000000000E+00 0.  1.
</event>
<event>
 7    1  0.4687179E-006  0.1779346E+03  0.7561462E-02  0.1169817E+00
         -1   -1    0    0    0  501 -0.00000000000E+00  0.00000000000E+00  0.43216563022E+02  0.43216563022E+02  0.00000000000E+00 0.  1.
          1   -1    0    0  501    0  0.00000000000E+00 -0.00000000000E+00 -0.93253684546E+03  0.93253684546E+03  0.00000000000E+00 0. -1.
         23    2    1    2    0    0  0.79960402379E+02 -0.14207504888E+03 -0.53064458750E+03  0.56238418303E+03  0.90073889763E+02 0.  0.
          5    1    1    2  502    0 -0.84554333976E+02  0.62631551483E+02 -0.28874802398E+03  0.30735165591E+03  0.41800000000E+01 0. -1.
         -5    1    1    2    0  502  0.45939315971E+01  0.79443497401E+02 -0.69927670960E+02  0.10601756955E+03  0.41800000000E+01 0. -1.
        -11    1    3    3    0    0  0.36139389032E+02 -0.11210621591E+03 -0.24494376279E+03  0.27179276299E+03  0.00000000000E+00 0.  1.
         11    1    3    3    0    0  0.43821013347E+02 -0.29968832974E+02 -0.28570082471E+03  0.29059142004E+03  0.00000000000E+00 0. -1.
</event>
<event>
 6    1  0.8579638E-006  0.9830420E+02  0.7561462E-02  0.1283903E+00
          2   -1    0    0  501    0  0.00000000000E+00  0.00000000000E+00  0.58383581805E+02  0.58383581805E+02  0.00000000000E+00 0. -1.
         -2   -1    0    0    0  501 -0.00000000000E+00 -0.00000000000E+00 -0.40138577804E+03  0.40138577804E+03  0.00000000000E+00 0.  1.
          5    1    1    2  502    0  0.42136614673E+02 -0.70108300857E+02 -0.20683452446E+03  0.22246047077E+03  0.41800000000E+01 0. -1.
         -5    1    1    2    0  502  0.13928561517E+02  0.76249153894E+01  0.14461505937E+02  0.21880395668E+02  0.41800000000E+01 0. -1.
        -11    1    1    2    0    0 -0.46752083536E+02  0.13839032833E+02 -0.15800291359E+03  0.16535476058E+03  0.00000000000E+00 0.  1.
         11    1    1    2    0    0 -0.93130926546E+01  0.48644352635E+02  0.73737358806E+01  0.50073732824E+02  0.00000000000E+00 0. -1.
</event>
<event>
 7    1  0.4687179E-006  0.8725989E+02  0.7561462E-02  0.1309626E+00
         -1   -1    0    0    0  501 -0.00000000000E+00  0.00000000000E+00  0.23716471659E+03  0.23716471659E+03  0.00000000000E+00 0.  1.
          1   -1    0    0  501    0  0.00000000000E+00 -0.00000000000E+00 -0.51806185894E+02  0.51806185894E+02  0.00000000000E+00 0. -1.
         23    2    1    2    0    0 -0.18316125319E+02  0.52480168105E+01  0.70893415950E+02  0.11835071782E+03  0.92833150633E+02 0.  0.
          5    1    1    2  502    0 -0.57193107877E+01  0.52434375978E+02  0.87886436691E+02  0.10258446498E+03  0.41800000000E+01 0.  1.
         -5    1    1    2    0  502  0.24035436107E+02 -0.57682392788E+02  0.26578678060E+02  0.68035719692E+02  0.41800000000E+01 0.  1.
        -11    1    3    3    0    0 -0.37366295501E+02 -0.44022120239E+01  0.84864856873E+02  0.92831371003E+02  0.00000000000E+00 0.  1.
         11    1    3    3    0    0  0.19050170182E+02  0.96502288344E+01 -0.13971440924E+02  0.25519346818E+02  0.00000000000E+00 0. -1.
</event>
<event>
 7    1  0.4687179E-006  0.1134560E+03  0.7561462E-02  0.1254300E+00
          1   -1    0    0  501    0  0.00000000000E+00  0.00000000000E+00  0.24345773737E+03  0.24345773737E+03  0.00000000000E+00 0. -1.
         -1   -1    0    0    0  501 -0.00000000000E+00 -0.00000000000E+00 -0.55696433786E+02  0.55696433786E+02  0.00000000000E+00 0.  1.
         23    2    1    2    0    0  0.23859238262E+02  0.35500309230E+02  0.87642051609E+02  0.13332793200E+03  0.90915746899E+02 0.  0.
          5    1    1    2  502    0  0.47867283144E+02 -0.25414041860E+02  0.66426593742E+02  0.85831900103E+02  0.41800000000E+01 0. -1.
         -5    1    1    2    0  502 -0.71726521406E+02 -0.10086267370E+02  0.33692658235E+02  0.79994339058E+02  0.41800000000E+01 0. -1.
        -11    1    3    3    0    0  0.31550387682E+02 -0.24229081837E+02  0.28627885047E+02  0.49010521032E+02  0.00000000000E+00 0. -1.
         11    1    3    3    0    0 -0.76911494201E+01  0.59729391067E+02  0.59014166562E+02  0.84317410964E+02  0.00000000000E+00 0.  1.
</event>
<event>
 7    1  0.4687179E-006  0.1123101E+03  0.7561462E-02  0.1256351E+00
          1   -1    0    0  501    0  0.00000000000E+00  0.00000000000E+00  0.18257030783E+03  0.18257030783E+03  0.00000000000E+00 0. -1.
         -1   -1    0    0    0  501 -0.00000000000E+00 -0.00000000000E+00 -0.92186269421E+02  0.92186269421E+02  0.00000000000E+00 0.  1.
         23    2    1    2    0    0 -0.59304716238E+02 -0.79510652463E+01  0.94079857540E+02  0.14276378799E+03  0.89163954381E+02 0.  0.
          5    1    1    2  502    0  0.27097661309E+02 -0.47208287892E+02  0.27112082403E+02  0.60954434673E+02  0.41800000000E+01 0. -1.
         -5    1    1    2    0  502  0.32207054929E+02  0.55159353138E+02 -0.30807901531E+02  0.71038354588E+02  0.41800000000E+01 0.  1.
        -11    1    3    3    0    0 -0.61532310891E+02 -0.40323691968E+02  0.75297432363E+02  0.10527074018E+03  0.00000000000E+00 0. -1.
         11    1    3    3    0    0  0.22275946530E+01  0.32372626722E+02  0.18782425177E+02  0.37493047814E+02  0.00000000000E+00 0.  1.
</event>
<event>
 7    1  0.4687179E-006  0.8769387E+02  0.7561462E-02  0.1308534E+00
         -1   -1    0    0    0  501 -0.00000000000E+00  0.00000000000E+00  0.27025635101E+02  0.27025635101E+02  0.00000000000E+00 0.  1.
          1   -1    0    0  501    0  0.00000000000E+00 -0.00000000000E+00 -0.69728549780E+03  0.69728549780E+03  0.00000000000E+00 0. -1.
         23    2    1    2    0    0 -0.17209067155E+02 -0.53156646089E+02 -0.46886099766E+03  0.48073073885E+03  0.90275285274E+02 0.  0.
          5    1    1    2  502    0  0.31188835353E+02  0.33502087600E+02 -0.21198498711E+03  0.21691067398E+03  0.41800000000E+01 0.  1.
         -5    1    1    2    0  502 -0.13979768198E+02  0.19654558489E+02  0.10586122074E+02  0.26669720074E+02  0.41800000000E+01 0.  1.
        -11    1    3    3    0    0  0.35872702415E+02 -0.12166347583E+02 -0.20567245026E+03  0.20913160352E+03  0.00000000000E+00 0. -1.
         11    1    3    3    0    0 -0.53081769570E+02 -0.40990298506E+02 -0.26318854740E+03  0.27159913533E+03  0.00000000000E+00 0.  1.
</event>
<event>
 7    1  0.5536697E-006  0.1847276E+03  0.7561462E-02  0.1163305E+00
         -2   -1    0    0    0  501 -0.00000000000E+00  0.00000000000E+00  0.56115215811E+02  0.56115215811E+02  0.00000000000E+00 0.  1.
          2   -1    0    0  501    0  0.00000000000E+00 -0.00000000000E+00 -0.86543161521E+03  0.86543161521E+03  0.00000000000E+00 0. -1.
         23    2    1    2    0    0  0.84440387606E+01 -0.17534197956E+03 -0.54815944255E+03  0.58292175782E+03  0.92211114801E+02 0.  0.
          5    1    1    2  502    0  0.17276442850E+02  0.21931227585E+01  0.62688124037E+01  0.18975133041E+02  0.41800000000E+01 0.  1.
         -5    1    1    2    0  502 -0.25720481611E+02  0.17314885680E+03 -0.26742576925E+03  0.31964994016E+03  0.41800000000E+01 0.  1.
        -11    1    3    3    0    0  0.13287772874E+02 -0.90911885631E+02 -0.41596400853E+03  0.42599013163E+03  0.00000000000E+00 0. -1.
         11    1    3    3    0    0 -0.48437341133E+01 -0.84430093928E+02 -0.13219543403E+03  0.15693162619E+03  0.00000000000E+00 0.  1.
</event>
<event>
 6    1  0.4687179E-006  0.8387540E+02  0.7561462E-02  0.1318400E+00
          1   -1    0    0  501    0  0.00000000000E+00  0.00000000000E+00  0.40262167103E+03  0.40262167103E+03  0.00000000000E+00 0. -1.
         -1   -1    0    0    0  501 -0.00000000000E+00 -0.00000000000E+00 -0.24451837036E+02  0.24451837036E+02  0.00000000000E+00 0.  1.
          5    1    1    2  502    0 -0.51712477836E+02  0.16913193000E+02  0.65574417133E+02  0.85309513207E+02  0.41800000000E+01 0. -1.
         -5    1    1    2    0  502  0.71797144783E+02  0.11524425343E+02  0.14061875971E+03  0.15836271771E+03  0.41800000000E+01 0. -1.
        -11    1    1    2    0    0 -0.11842545277E+02 -0.12167654056E+01  0.33141711949E+01  0.12357593916E+02  0.00000000000E+00 0.  1.
         11    1    1    2    0    0 -0.82421216707E+01 -0.27220852937E+02  0.16866248596E+03  0.17104368323E+03  0.00000000000E+00 0. -1.
</event>
<event>
 7    1  0.4687179E-006  0.3375278E+03  0.7561462E-02  0.1067854E+00
         -1   -1    0    0    0  501 -0.00000000000E+00  0.00000000000E+00  0.10935144745E+03  0.10935144745E+03  0.00000000000E+00 0.  1.
          1   -1    0    0  501    0  0.00000000000E+00 -0.00000000000E+00 -0.13266792868E+04  0.13266792868E+04  0.00000000000E+00 0. -1.
         23    2    1    2    0    0 -0.46897810331E+02  0.27720769964E+02 -0.98116945318E+02  0.13933826556E+03  0.82585541052E+02 0.  0.
          5    1    1    2  502    0 -0.28561810366E+03  0.92589102447E+01 -0.72696133641E+03  0.78112334851E+03  0.41800000000E+01 0. -1.
         -5    1    1    2    0  502  0.33251591399E+03 -0.36979680209E+02 -0.39224955758E+03  0.51556912013E+03  0.41800000000E+01 0.  1.
        -11    1    3    3    0    0 -0.13970708623E+02  0.59105802137E+01  0.13892372644E+02  0.20569727163E+02  0.00000000000E+00 0. -1.
         11    1    3    3    0    0 -0.32927101708E+02  0.21810189751E+02 -0.11200931796E+03  0.11876853840E+03  0.00000000000E+00 0.  1.
</event>
<event>
 7    1  0.4687179E-006  0.1290831E+03  0.7561462E-02  0.1228823E+00
          1   -1    0    0  501    0  0.00000000000E+00  0.00000000000E+00  0.16436519192E+03  0.16436519192E+03  0.00000000000E+00 0. -1.
         -1   -1    0    0    0  501 -0.00000000000E+00 -0.00000000000E+00 -0.11028982993E+03  0.11028982993E+03  0.00000000000E+00 0.  1.
         23    2    1    2    0    0  0.71088494755E+02 -0.93936154606E+01  0.59329393362E+02  0.13038445834E+03  0.91314379814E+02 0.  0.
          5    1    1    2  502    0 -0.10321603195E+03  0.26423457477E+02 -0.11109312786E+02  0.10720372003E+03  0.41800000000E+01 0.  1.
         -5    1    1    2    0  502  0.32127537198E+02 -0.17029842016E+02  0.58552814173E+01  0.37066843485E+02  0.41800000000E+01 0.  1.
        -11    1    3    3    0    0  0.72942266102E+02 -0.40732436008E+02  0.34622513796E+02  0.90434639319E+02  0.00000000000E+00 0. -1.
         11    1    3    3    0    0 -0.18537713475E+01  0.31338820547E+02  0.24706879566E+02  0.39949819016E+02  0.00000000000E+00 0.  1.
</event>
<event>
 7    1  0.4687179E-006  0.1103076E+03  0.7561462E-02  0.1260001E+00
         -2   -1    0    0    0  501 -0.00000000000E+00  0.00000000000E+00  0.13169716627E+03  0.13169716627E+03  0.00000000000E+00 0.  1.
          2   -1    0    0  501    0  0.00000000000E+00 -0.00000000000E+00 -0.12417422271E+03  0.12417422271E+03  0.00000000000E+00 0. -1.
         23    2    1    2    0    0 -0.77969272740E+02 -0.26807329312E+02 -0.10905535427E+02  0.10492566410E+03  0.63973618681E+02 0.  0.
          5    1    1    2  502    0  0.17448204683E+02 -0.29516095233E+02  0.51327178425E+02  0.61867530818E+02  0.41800000000E+01 0. -1.
         -5    1    1    2    0  502  0.60521068057E+02  0.56323424545E+02 -0.32898699439E+02  0.89078194054E+02  0.41800000000E+01 0. -1.
        -11    1    3    3    0    0 -0.27823233408E+02 -0.42457447235E+02  0.21104849247E+01  0.50805721032E+02  0.00000000000E+00 0. -1.
         11    1    3    3    0    0 -0.50146039332E+02  0.15650117923E+02 -0.13016020352E+02  0.54119943066E+02  0.00000000000E+00 0.  1.
</event>
<event>
 7    1  0.4687179E-006  0.1116165E+03  0.7561462E-02  0.1257605E+00
         -2   -1    0    0    0  501 -0.00000000000E+00  0.00000000000E+00  0.38243822911E+03  0.38243822911E+03  0.00000000000E+00 0.  1.
          2   -1    0    0  501    0  0.00000000000E+00 -0.00000000000E+00 -0.48176024246E+02  0.48176024246E+02  0.00000000000E+00 0. -1.
         23    2    1    2    0    0  0.56914645299E+02 -0.54213540702E+02  0.13594168972E+03  0.18331331121E+03  0.94579290641E+02 0.  0.
          5    1    1    2  502    0 -0.65684232044E+02 -0.11029357674E+02  0.45268425453E+02  0.80639740903E+02  0.41800000000E+01 0.  1.
         -5    1    1    2    0  502  0.87695867453E+01  0.65242898376E+02  0.15305208969E+03  0.16666120124E+03  0.41800000000E+01 0.  1.
        -11    1    3    3    0    0  0.28856305051E+02 -0.55386834214E+02  0.22397556883E+02  0.66347858291E+02  0.00000000000E+00 0. -1.
         11    1    3    3    0    0  0.28058340248E+02  0.11732935126E+01  0.11354413283E+03  0.11696545292E+03  0.00000000000E+00 0.  1.
</event>
<event>
 7    1  0.4687179E-006  0.9971670E+02  0.7561462E-02  0.1280893E+00
          3   -1    0    0  501    0  0.00000000000E+00  0.00000000000E+00  0.99796403881E+02  0.99796403881E+02  0.00000000000E+00 0. -1.
         -3   -1    0    0    0  501 -0.00000000000E+00 -0.00000000000E+00 -0.17435668806E+03  0.17435668806E+03  0.00000000000E+00 0.  1.
         23    2    1    2    0    0 -0.42640827876E+02 -0.62500676664E+02 -0.34300914117E+02  0.12251858786E+03  0.90053744371E+02 0.  0.
          5    1    1    2  502    0  0.66651960327E+02  0.13656344124E+02 -0.62698513216E+02  0.92615093315E+02  0.41800000000E+01 0. -1.
         -5    1    1    2    0  502 -0.24011132451E+02  0.48844332540E+02  0.22439143150E+02  0.59019410774E+02  0.41800000000E+01 0. -1.
        -11    1    3    3    0    0 -0.12702858956E+02 -0.29530635041E+02 -0.62165395251E+02  0.69985408467E+02  0.00000000000E+00 0.  1.
         11    1    3    3    0    0 -0.29937968920E+02 -0.32970041623E+02  0.27864481134E+02  0.52533179388E+02  0.00000000000E+00 0. -1.
</event>
<event>
 7    1  0.4687179E-006  0.1174806E+03  0.7561462E-02  0.1247312E+00
         -1   -1    0    0    0  501 -0.00000000000E+00  0.00000000000E+00  0.12874332563E+03  0.12874332563E+03  0.00000000000E+00 0.  1.
          1   -1    0    0  501    0  0.00000000000E+00 -0.00000000000E+00 -0.18012629470E+03  0.18012629470E+03  0.00000000000E+00 0. -1.
         23    2    1    2    0    0 -0.57137116106E+02 -0.76262497451E+02 -0.66860461909E+02  0.15088559481E+03  0.95997514544E+02 0.  0.
          5    1    1    2  502    0  0.61306216325E+02  0.95070564990E+02  0.45554389815E+02  0.12202270002E+03  0.41800000000E+01 0. -1.
         -5    1    1    2    0  502 -0.41691002194E+01 -0.18808067539E+02 -0.30076896968E+02  0.35961325509E+02  0.41800000000E+01 0. -1.
        -11    1    3    3    0    0  0.29656537838E+01 -0.18336472276E+02  0.22117180402E+02  0.28882364634E+02  0.00000000000E+00 0.  1.
         11    1    3    3    0    0 -0.60102769889E+02 -0.57926025175E+02 -0.88977642311E+02  0.12200323017E+03  0.00000000000E+00 0. -1.
</event>
<event>
 7    1  0.4687179E-006  0.9545815E+02  0.7561462E-02  0.1290148E+00
          1   -1    0    0  501    0  0.00000000000E+00  0.00000000000E+00  0.27148673704E+02  0.27148673704E+02  0.00000000000E+00 0. -1.
         -1   -1    0    0    0  501 -0.00000000000E+00 -0.00000000000E+00 -0.58449960185E+03  0.58449960185E+03  0.00000000000E+00 0.  1.
         23    2    1    2    0    0 -0.38312181817E+02 -0.39503331766E+02 -0.23179059519E+03  0.25857101755E+03  0.10051743431E+03 0.  0.
          5    1    1    2  502    0  0.72454202377E+02 -0.11433893790E+02 -0.14909137222E+03  0.16621087521E+03  0.41800000000E+01 0.  1.
         -5    1    1    2    0  502 -0.34142020560E+02  0.50937225556E+02 -0.17646896074E+03  0.18686638280E+03  0.41800000000E+01 0.  1.
        -11    1    3    3    0    0 -0.54960104104E+01 -0.11875064902E+02  0.77576989863E+01  0.15212008099E+02  0.00000000000E+00 0. -1.
         11    1    3    3    0    0 -0.32816171407E+02 -0.27628266864E+02 -0.23954829418E+03  0.24335900945E+03  0.00000000000E+00 0.  1.
</event>
<event>
 7    1  0.4687179E-006  0.1088060E+03  0.7561462E-02  0.1262797E+00
         -3   -1    0    0    0  501 -0.00000000000E+00  0.00000000000E+00  0.52378064871E+02  0.52378064871E+02  0.00000000000E+00 0.  1.
          3   -1    0    0  501    0  0.00000000000E+00 -0.00000000000E+00 -0.30267790667E+03  0.30267790667E+03  0.00000000000E+00 0. -1.
         23    2    1    2    0    0  0.80730819091E+01  0.23419461748E+02 -0.11191933142E+03  0.14612250315E+03  0.90621208021E+02 0.  0.
          5    1    1    2  502    0 -0.64699011708E+02 -0.12077488208E+02 -0.13580887899E+03  0.15097467287E+03  0.41800000000E+01 0. -1.
         -5    1    1    2    0  502  0.56625929799E+02 -0.11341973539E+02 -0.25716313933E+01  0.57958795513E+02  0.41800000000E+01 0.  1.
        -11    1    3    3    0    0 -0.41037835863E+02  0.51396315326E+01 -0.53944405271E+02  0.67974396979E+02  0.00000000000E+00 0.  1.
         11    1    3    3    0    0  0.49110917772E+02  0.18279830215E+02 -0.57974926147E+02  0.78148106176E+02  0.00000000000E+00 0. -1.
</event>
<event>
 7    1  0.4687179E-006  0.1281263E+03  0.7561462E-02  0.1230263E+00
          4   -1    0    0  501    0  0.00000000000E+00  0.00000000000E+00  0.90677433618E+02  0.90677433618E+02  0.00000000000E+00 0.  1.
         -4   -1    0    0    0  501 -0.00000000000E+00 -0.00000000000E+00 -0.24939081332E+03  0.24939081332E+03  0.00000000000E+00 0. -1.
         23    2    1    2    0    0  0.78231746223E+02  0.67288082099E+01  0.35578960396E+01  0.12065310638E+03  0.91537044298E+02 0.  0.
          5    1    1    2  502    0 -0.23011900803E+02 -0.60164827189E+02 -0.43314566923E+02  0.77736594452E+02  0.41800000000E+01 0. -1.
         -5    1    1    2    0  502 -0.55219845420E+02  0.53436018979E+02 -0.11895670882E+03  0.14167854610E+03  0.41800000000E+01 0. -1.
        -11    1    3    3    0    0  0.28682026891E+02  0.44153404420E+02  0.20156688594E+02  0.56377955652E+02  0.00000000000E+00 0.  1.
         11    1    3    3    0    0  0.49549719332E+02 -0.37424596210E+02 -0.16598792555E+02  0.64275150732E+02  0.00000000000E+00 0. -1.
</event>
<event>
 7    1  0.4687179E-006  0.1832985E+03  0.7561462E-02  0.1164648E+00
         -2   -1    0    0    0  501 -0.00000000000E+00  0.00000000000E+00  0.47778066665E+03  0.47778066665E+03  0.00000000000E+00 0.  1.
          2   -1    0    0  501    0  0.00000000000E+00 -0.00000000000E+00 -0.18390439372E+03  0.18390439372E+03  0.00000000000E+00 0. -1.
         23    2    1    2    0    0  0.31102199691E+02 -0.11514300597E+03 -0.64943021626E+02  0.16374717937E+03  0.91489256435E+02 0.  0.
          5    1    1    2  502    0  0.70056703809E+02  0.78613858260E+01 -0.33967805468E+02  0.78364707261E+02  0.41800000000E+01 0. -1.
         -5    1    1    2    0  502 -0.10115890350E+03  0.10728162015E+03  0.39278710002E+03  0.41957317374E+03  0.41800000000E+01 0.  1.
        -11    1    3    3    0    0  0.86337461810E+01  0.14506982305E+02 -0.16284927236E+02  0.23456192441E+02  0.00000000000E+00 0.  1.
         11    1    3    3    0    0  0.22468453510E+02 -0.12964998828E+03 -0.48658094390E+02  0.14029098693E+03  0.00000000000E+00 0. -1.
</event>
<event>
 7    1  0.4687179E-006  0.1251942E+03  0.7561462E-02  0.1234766E+00
         -3   -1    0    0    0  501 -0.00000000000E+00  0.00000000000E+00  0.35319011510E+03  0.35319011510E+03  0.00000000000E+00 0.  1.
          3   -1    0    0  501    0  0.00000000000E+00 -0.00000000000E+00 -0.60463634716E+02  0.60463634716E+02  0.00000000000E+00 0. -1.
         23    2    1    2    0    0  0.39189010977E+02  0.57255144088E+02  0.31549274599E+02  0.11895294432E+03  0.91326426236E+02 0.  0.
          5    1    1    2  502    0 -0.48539869111E+02  0.23707448899E+02  0.89676746735E+02  0.10477381988E+03  0.41800000000E+01 0. -1.
         -5    1    1    2    0  502  0.93508581345E+01 -0.80962592988E+02  0.17150045905E+03  0.18992698562E+03  0.41800000000E+01 0.  1.
        -11    1    3    3    0    0  0.56741838678E+02  0.21682717867E+01  0.13227954329E+02  0.58303657131E+02  0.00000000000E+00 0.  1.
         11    1    3    3    0    0 -0.17552827701E+02  0.55086872302E+02  0.18321320270E+02  0.60649287191E+02  0.00000000000E+00 0. -1.
</event>
<event>
 7    1  0.4687179E-006  0.6135780E+02  0.7561462E-02  0.1392220E+00
          2   -1    0    0  501    0  0.00000000000E+00  0.00000000000E+00  0.25312265383E+03  0.25312265383E+03  0.00000000000E+00 0. -1.
         -2   -1    0    0    0  501 -0.00000000000E+00 -0.00000000000E+00 -0.50772949059E+02  0.50772949059E+02  0.00000000000E+00 0.  1.
         23    2    1    2    0    0 -0.21719273759E+02  0.18216871260E+02  0.10131559407E+03  0.14062040474E+03  0.93304165918E+02 0.  0.
          5    1    1    2  502    0  0.11274540632E+02  0.43218425219E+01 -0.28542856023E+02  0.31272361906E+02  0.41800000000E+01 0.  1.
         -5    1    1    2    0  502  0.10444733127E+02 -0.22538713782E+02  0.12957696673E+03  0.13200283624E+03  0.41800000000E+01 0.  1.
        -11    1    3    3    0    0  0.26834377623E+02  0.23807534643E+02  0.10316834209E+02  0.37327196470E+02  0.00000000000E+00 0.  1.
         11    1    3    3    0    0 -0.48553651382E+02 -0.55906633835E+01  0.90998759857E+02  0.10329320827E+03  0.00000000000E+00 0. -1.
</event>
<event>
 7    1  0.4687179E-006  0.8413330E+02  0.7561462E-02  0.1317715E+00
         -1   -1    0    0    0  501 -0.00000000000E+00  0.00000000000E+00  0.17440083996E+03  0.17440083996E+03  0.00000000000E+00 0.  1.
          1   -1    0    0  501    0  0.00000000000E+00 -0.00000000000E+00 -0.82965684966E+02  0.82965684966E+02  0.00000000000E+00 0. -1.
         23    2    1    2    0    0  0.22071955818E+02 -0.34477330241E+02  0.22517315230E+02  0.10879310051E+03  0.98249945030E+02 0.  0.
          5    1    1    2  502    0 -0.39124309578E+02  0.56184456711E+02  0.90307109884E+02  0.11340304789E+03  0.41800000000E+01 0.  1.
         -5    1    1    2    0  502  0.17052353760E+02 -0.21707126470E+02 -0.21389270124E+02  0.35170376523E+02  0.41800000000E+01 0.  1.
        -11    1    3    3    0    0 -0.27187126807E+01 -0.44814030261E+02  0.52140321988E+02  0.68806263406E+02  0.00000000000E+00 0.  1.
         11    1    3    3    0    0  0.24790668499E+02  0.10336700020E+02 -0.29623006758E+02  0.39986837100E+02  0.00000000000E+00 0. -1.
</event>
<event>
 7    1  0.4687179E-006  0.9910631E+02  0.7561462E-02  0.1282187E+00
         -1   -1    0    0    0  501 -0.00000000000E+00  0.00000000000E+00  0.80784420042E+02  0.80784420042E+02  0.00000000000E+00 0.  1.
          1   -1    0    0  501    0  0.00000000000E+00 -0.00000000000E+00 -0.16783217313E+03  0.16783217313E+03  0.00000000000E+00 0. -1.
         23    2    1    2    0    0 -0.27003344956E+02  0.11055035992E+02 -0.74098435890E+02  0.11951313647E+03  0.89114629145E+02 0.  0.
          5    1    1    2  502    0 -0.37175025801E+02 -0.22156131614E+02  0.28316941896E+02  0.51886398118E+02  0.41800000000E+01 0.  1.
         -5    1    1    2    0  502  0.64178370757E+02  0.11101095622E+02 -0.41266259096E+02  0.77217058587E+02  0.41800000000E+01 0.  1.
        -11    1    3    3    0    0 -0.73443860969E+01 -0.36908982486E+02 -0.14010995938E+02  0.40156207521E+02  0.00000000000E+00 0.  1.
         11    1    3    3    0    0 -0.19658958859E+02  0.47964018479E+02 -0.60087439952E+02  0.79356928948E+02  0.00000000000E+00 0. -1.
</event>
<event>
 7    1  0.4687179E-006  0.1125066E+03  0.7561462E-02  0.1255997E+00
          2   -1    0    0  501    0  0.00000000000E+00  0.00000000000E+00  0.66208465101E+03  0.66208465101E+03  0.00000000000E+00 0. -1.
         -2   -1    0    0    0  501 -0.00000000000E+00 -0.00000000000E+00 -0.34738537655E+02  0.34738537655E+02  0.00000000000E+00 0.  1.
         23    2    1    2    0    0 -0.85906635862E+02 -0.33285281234E+02  0.40765556906E+03  0.42775020553E+03  0.91100578019E+02 0.  0.
          5    1    1    2  502    0  0.36210108545E+02 -0.26774434613E+01  0.20173462396E+03  0.20501871029E+03  0.41800000000E+01 0.  1.
         -5    1    1    2    0  502  0.49696527317E+02  0.35962724696E+02  0.17955920339E+02  0.64054272848E+02  0.41800000000E+01 0.  1.
        -11    1    3    3    0    0  0.13547529503E+02 -0.23394011519E+02  0.56263881257E+02  0.62421467979E+02  0.00000000000E+00 0.  1.
         11    1    3    3    0    0 -0.99454165365E+02 -0.98912697155E+01  0.35139168781E+03  0.36532873756E+03  0.00000000000E+00 0. -1.
</event>
<event>
 7    1  0.4687179E-006  0.1741375E+03  0.7561462E-02  0.1173601E+00
         -2   -1    0    0    0  501 -0.00000000000E+00  0.00000000000E+00  0.77127074915E+02  0.77127074915E+02  0.00000000000E+00 0.  1.
          2   -1    0    0  501    0  0.00000000000E+00 -0.00000000000E+00 -0.49008030276E+03  0.49008030276E+03  0.00000000000E+00 0. -1.
         23    2    1    2    0    0 -0.10371981190E+03  0.11447268390E+03 -0.27492522916E+03  0.33070226810E+03  0.99590731288E+02 0.  0.
          5    1    1    2  502    0  0.70155071945E+02 -0.12861645547E+03 -0.77640302829E+02  0.16585962668E+03  0.41800000000E+01 0. -1.
         -5    1    1    2    0  502  0.33564739959E+02  0.14143771575E+02 -0.60387695858E+02  0.70645482898E+02  0.41800000000E+01 0.  1.
        -11    1    3    3    0    0 -0.11047314943E+03  0.99723590352E+02 -0.27690000252E+03  0.31436081596E+03  0.00000000000E+00 0. -1.
         11    1    3    3    0    0  0.67533375241E+01  0.14749093547E+02  0.19747733605E+01  0.16341452138E+02  0.00000000000E+00 0.  1.
</event>
<event>
 7    1  0.4687179E-006  0.6857468E+02  0.7561462E-02  0.1365008E+00
          2   -1    0    0  501    0  0.00000000000E+00  0.00000000000E+00  0.15403702476E+03  0.15403702476E+03  0.00000000000E+00 0. -1.
         -2   -1    0    0    0  501 -0.00000000000E+00 -0.00000000000E+00 -0.97709974137E+02  0.97709974137E+02  0.00000000000E+00 0.  1.
         23    2    1    2    0    0  0.11181230555E+02 -0.51897109886E+00  0.79943423207E+02  0.12396020514E+03  0.94073866177E+02 0.  0.
          5    1    1    2  502    0 -0.38239290447E+02  0.13807778430E+02 -0.64779618212E+02  0.76594839348E+02  0.41800000000E+01 0. -1.
         -5    1    1    2    0  502  0.27058059891E+02 -0.13288807332E+02  0.41163245632E+02  0.51191954410E+02  0.41800000000E+01 0. -1.
        -11    1    3    3    0    0 -0.59686146910E+01  0.30134973514E+02 -0.58341651616E+01  0.31269449517E+02  0.00000000000E+00 0.  1.
         11    1    3    3    0    0  0.17149845246E+02 -0.30653944612E+02  0.85777588369E+02  0.92690755627E+02  0.00000000000E+00 0. -1.
</event>
<event>
 7    1  0.4687179E-006  0.1159044E+03  0.7561462E-02  0.1250011E+00
         -1   -1    0    0    0  501 -0.00000000000E+00  0.00000000000E+00  0.10082523689E+03  0.10082523689E+03  0.00000000000E+00 0.  1.
          1   -1    0    0  501    0  0.00000000000E+00 -0.00000000000E+00 -0.24942111075E+03  0.24942111075E+03  0.00000000000E+00 0. -1.
         23    2    1    2    0    0 -0.15278951636E+02 -0.52282660481E+02 -0.18134121719E+03  0.20993824093E+03  0.90678029323E+02 0.  0.
          5    1    1    2  502    0  0.60599971720E+02  0.63021659483E+02  0.93768478996E+01  0.88031152514E+02  0.41800000000E+01 0. -1.
         -5    1    1    2    0  502 -0.45321020084E+02 -0.10738999002E+02  0.23368495438E+02  0.52276954197E+02  0.41800000000E+01 0. -1.
        -11    1    3    3    0    0 -0.48367666917E+02 -0.24040730197E+02 -0.58501307005E+02  0.79622803472E+02  0.00000000000E+00 0. -1.
         11    1    3    3    0    0  0.33088715281E+02 -0.28241930284E+02 -0.12283991018E+03  0.13031543746E+03  0.00000000000E+00 0.  1.
</event>
<event>
 7    1  0.4687179E-006  0.1094871E+03  0.7561462E-02  0.1261523E+00
         -3   -1    0    0    0  501 -0.00000000000E+00  0.00000000000E+00  0.14595225757E+03  0.14595225757E+03  0.00000000000E+00 0.  1.
          3   -1    0    0  501    0  0.00000000000E+00 -0.00000000000E+00 -0.10002267679E+03  0.10002267679E+03  0.00000000000E+00 0. -1.
         23    2    1    2    0    0  0.50654715128E+02 -0.27547652891E+02  0.16528156010E+02  0.10513293245E+03  0.86342227213E+02 0.  0.
          5    1    1    2  502    0 -0.91861553546E+02  0.15048122961E+02  0.28960289491E+02  0.97576440763E+02  0.41800000000E+01 0.  1.
         -5    1    1    2    0  502  0.41206838418E+02  0.12499529930E+02  0.44113528168E+00  0.43265561145E+02  0.41800000000E+01 0.  1.
        -11    1    3    3    0    0  0.35493310147E+02  0.14113945712E+02  0.39713994194E+02  0.55101541390E+02  0.00000000000E+00 0.  1.
         11    1    3    3    0    0  0.15161404982E+02 -0.41661598603E+02 -0.23185838184E+02  0.50031391061E+02  0.00000000000E+00 0. -1.
</event>
<event>
 7    1  0.4687179E-006  0.1150210E+03  0.7561462E-02  0.1251544E+00
         -3   -1    0    0    0  501 -0.00000000000E+00  0.00000000000E+00  0.64152181027E+03  0.64152181027E+03  0.00000000000E+00 0.  1.
          3   -1    0    0  501    0  0.00000000000E+00 -0.00000000000E+00 -0.24744224043E+02  0.24744224043E+02  0.00000000000E+00 0. -1.
         23    2    1    2    0    0 -0.31334855262E+02 -0.49793326467E+02  0.20871839830E+03  0.23542659901E+03  0.91657324939E+02 0.  0.
          5    1    1    2  502    0  0.72145802863E+02  0.49906898171E+02  0.34184395929E+03  0.35294543525E+03  0.41800000000E+01 0.  1.
         -5    1    1    2    0  502 -0.40810947602E+02 -0.11357170398E+00  0.66215228628E+02  0.77894000058E+02  0.41800000000E+01 0.  1.
        -11    1    3    3    0    0  0.20982832780E+02  0.87007647668E+01  0.92111550712E+02  0.94871072270E+02  0.00000000000E+00 0.  1.
         11    1    3    3    0    0 -0.52317688042E+02 -0.58494091234E+02  0.11660684759E+03  0.14055552674E+03  0.00000000000E+00 0. -1.
</event>
<event>
 7    1  0.4687179E-006  0.2632207E+03  0.7561462E-02  0.1105223E+00
         -1   -1    0    0    0  501 -0.00000000000E+00  0.00000000000E+00  0.92616328065E+02  0.92616328065E+02  0.00000000000E+00 0.  1.
          1   -1    0    0  501    0  0.00000000000E+00 -0.00000000000E+00 -0.85909985853E+03  0.85909985853E+03  0.00000000000E+00 0. -1.
         23    2    1    2    0    0 -0.12854228705E+03  0.18845132665E+03 -0.50556674600E+03  0.56228479703E+03  0.92354946987E+02 0.  0.
          5    1    1    2  502    0 -0.12670014771E+02  0.22769603810E+02 -0.17148599235E+01  0.26446120255E+02  0.41800000000E+01 0. -1.
         -5    1    1    2    0  502  0.14121230182E+03 -0.21122093046E+03 -0.25920192454E+03  0.36298526931E+03  0.41800000000E+01 0.  1.
        -11    1    3    3    0    0 -0.13403508281E+03  0.12831789957E+03 -0.37245540665E+03  0.41611767172E+03  0.00000000000E+00 0. -1.
         11    1    3    3    0    0  0.54927957620E+01  0.60133427082E+02 -0.13311133934E+03  0.14616712530E+03  0.00000000000E+00 0.  1.
</event>
<event>
 7    1  0.4687179E-006  0.2005712E+03  0.7561462E-02  0.1149258E+00
         -1   -1    0    0    0  501 -0.00000000000E+00  0.00000000000E+00  0.82805008374E+02  0.82805008374E+02  0.00000000000E+00 0.  1.
          1   -1    0    0  501    0  0.00000000000E+00 -0.00000000000E+00 -0.96310722853E+03  0.96310722853E+03  0.00000000000E+00 0. -1.
         23    2    1    2    0    0 -0.51518486340E+02 -0.19195997469E+03 -0.74223327140E+03  0.77350603929E+03  0.88873940638E+02 0.  0.
          5    1    1    2  502    0 -0.49349747622E+01  0.30573013603E+02  0.21953042817E+02  0.38189941419E+02  0.41800000000E+01 0. -1.
         -5    1    1    2    0  502  0.56453461102E+02  0.16138696109E+03 -0.16002199157E+03  0.23421625619E+03  0.41800000000E+01 0. -1.
        -11    1    3    3    0    0 -0.26156831883E+02 -0.84620289471E+02 -0.18065215703E+03  0.20119635952E+03  0.00000000000E+00 0. -1.
         11    1    3    3    0    0 -0.25361654457E+02 -0.10733968522E+03 -0.56158111437E+03  0.57230967977E+03  0.00000000000E+00 0.  1.
</event>
<event>
 7    1  0.4687179E-006  0.1170274E+03  0.7561462E-02  0.1248083E+00
         -1   -1    0    0    0  501 -0.00000000000E+00  0.00000000000E+00  0.13617450816E+03  0.13617450816E+03  0.00000000000E+00 0.  1.
          1   -1    0    0  501    0  0.00000000000E+00 -0.00000000000E+00 -0.15366618297E+03  0.15366618297E+03  0.00000000000E+00 0. -1.
         23    2    1    2    0    0  0.46260978101E+01  0.91036485485E+02  0.19047911561E+02  0.13080397336E+03  0.91857574768E+02 0.  0.
          5    1    1    2  502    0  0.48773109777E+02 -0.53982659944E+02  0.16879232783E+02  0.74801903126E+02  0.41800000000E+01 0.  1.
         -5    1    1    2    0  502 -0.53399207587E+02 -0.37053825541E+02 -0.53418819154E+02  0.84234814643E+02  0.41800000000E+01 0.  1.
        -11    1    3    3    0    0  0.13247141345E+02  0.17180743106E+02 -0.33388168808E+02  0.39817515038E+02  0.00000000000E+00 0. -1.
         11    1    3    3    0    0 -0.86210435345E+01  0.73855742380E+02  0.52436080369E+02  0.90986458325E+02  0.00000000000E+00 0.  1.
</event>
<event>
 7    1  0.4687179E-006  0.1158858E+03  0.7561462E-02  0.1250043E+00
          1   -1    0    0  501    0  0.00000000000E+00  0.00000000000E+00  0.14223071702E+03  0.14223071702E+03  0.00000000000E+00 0. -1.
         -1   -1    0    0    0  501 -0.00000000000E+00 -0.00000000000E+00 -0.10361875767E+03  0.10361875767E+03  0.00000000000E+00 0.  1.
         23    2    1    2    0    0 -0.33360660935E+02 -0.42239669964E+02  0.26021008648E+02  0.10908851599E+03  0.91247400039E+02 0.  0.
          5    1    1    2  502    0 -0.27007092825E+02  0.62840724221E+02  0.22390501647E+02  0.72091238355E+02  0.41800000000E+01 0.  1.
         -5    1    1    2    0  502  0.60367753760E+02 -0.20601054258E+02 -0.97995509419E+01  0.64669720342E+02  0.41800000000E+01 0.  1.
        -11    1    3    3    0    0  0.27282315653E+02 -0.38570202157E+01  0.25162613182E+02  0.37314319697E+02  0.00000000000E+00 0. -1.
         11    1    3    3    0    0 -0.60642976588E+02 -0.38382649748E+02  0.85839546628E+00  0.71774196296E+02  0.00000000000E+00 0.  1.
</event>
<event>
 7    1  0.4687179E-006  0.1482532E+03  0.7561462E-02  0.1202636E+00
         -2   -1    0    0    0  501 -0.00000000000E+00  0.00000000000E+00  0.33857184628E+02  0.33857184628E+02  0.00000000000E+00 0.  1.
          2   -1    0    0  501    0  0.00000000000E+00 -0.00000000000E+00 -0.74832584429E+03  0.74832584429E+03  0.00000000000E+00 0. -1.
         23    2    1    2    0    0 -0.89941494455E+02  0.69750454391E+02 -0.36762278262E+03  0.39630145456E+03  0.94624173852E+02 0.  0.
          5    1    1    2  502    0  0.15872474393E+02  0.30523177049E+02 -0.31774119975E+02  0.47017729429E+02  0.41800000000E+01 0.  1.
         -5    1    1    2    0  502  0.74069020062E+02 -0.10027363144E+03 -0.31507175708E+03  0.33886384493E+03  0.41800000000E+01 0.  1.
        -11    1    3    3    0    0 -0.38694761084E+02 -0.12103451882E+02 -0.18842835705E+03  0.19274082033E+03  0.00000000000E+00 0. -1.
         11    1    3    3    0    0 -0.51246733371E+02  0.81853906272E+02 -0.17919442557E+03  0.20356063423E+03  0.00000000000E+00 0.  1.
</event>
<event>
 7    1  0.4687179E-006  0.1107902E+03  0.7561462E-02  0.1259113E+00
          4   -1    0    0  501    0  0.00000000000E+00  0.00000000000E+00  0.13206578260E+02  0.13206578260E+02  0.00000000000E+00 0. -1.
         -4   -1    0    0    0  501 -0.00000000000E+00 -0.00000000000E+00 -0.11797025021E+04  0.11797025021E+04  0.00000000000E+00 0.  1.
         23    2    1    2    0    0 -0.11545234231E+02  0.50931472006E+02 -0.34347800533E+03  0.35880244809E+03  0.89636763293E+02 0.  0.
          5    1    1    2  502    0  0.51816318685E+02  0.17652790722E+02 -0.28693307255E+03  0.29213800236E+03  0.41800000000E+01 0. -1.
         -5    1    1    2    0  502 -0.40271084454E+02 -0.68584262727E+02 -0.53608484594E+03  0.54196862989E+03  0.41800000000E+01 0. -1.
        -11    1    3    3    0    0 -0.41049736757E+02  0.28483093024E+02 -0.28650633648E+03  0.29083027408E+03  0.00000000000E+00 0.  1.
         11    1    3    3    0    0  0.29504502526E+02  0.22448378982E+02 -0.56971668852E+02  0.67972174013E+02  0.00000000000E+00 0. -1.
</event>
<event>
 7    1  0.4687179E-006  0.1072666E+03  0.7561462E-02  0.1265717E+00
         -1   -1    0    0    0  501 -0.00000000000E+00  0.00000000000E+00  0.67099026153E+02  0.67099026153E+02  0.00000000000E+00 0.  1.
          1   -1    0    0  501    0  0.00000000000E+00 -0.00000000000E+00 -0.28144736876E+03  0.28144736876E+03  0.00000000000E+00 0. -1.
         23    2    1    2    0    0 -0.44359873396E+02  0.49078384821E+02 -0.16274562688E+03  0.19792541713E+03  0.91169322987E+02 0.  0.
          5    1    1    2  502    0  0.67537110325E+02 -0.75934893263E+02 -0.53361225725E+02  0.11485757309E+03  0.41800000000E+01 0. -1.
         -5    1    1    2    0  502 -0.23177236929E+02  0.26856508442E+02  0.17585099997E+01  0.35763404687E+02  0.41800000000E+01 0. -1.
        -11    1    3    3    0    0 -0.21516654618E+02 -0.15376331243E+01  0.42083537304E+01  0.21978193345E+02  0.00000000000E+00 0.  1.
         11    1    3    3    0    0 -0.22843218778E+02  0.50616017945E+02 -0.16695398061E+03  0.17594722378E+03  0.00000000000E+00 0. -1.
</event>
<event>
 7    1  0.4687179E-006  0.1272818E+03  0.7561462E-02  0.1231546E+00
         -3   -1    0    0    0  501 -0.00000000000E+00  0.00000000000E+00  0.40740268067E+02  0.40740268067E+02  0.00000000000E+00 0.  1.
          3   -1    0    0  501    0  0.00000000000E+00 -0.00000000000E+00 -0.46176607127E+03  0.46176607127E+03  0.00000000000E+00 0. -1.
         23    2    1    2    0    0  0.73124434868E+02  0.41333358836E+02 -0.19073168921E+03  0.22729942149E+03  0.90723867927E+02 0.  0.
          5    1    1    2  502    0 -0.10081382252E+02  0.32933960972E+02 -0.13304221239E+03  0.13749175514E+03  0.41800000000E+01 0.  1.
         -5    1    1    2    0  502 -0.63043052615E+02 -0.74267319809E+02 -0.97251901591E+02  0.13771516270E+03  0.41800000000E+01 0.  1.
        -11    1    3    3    0    0  0.60378555551E+02 -0.16940717718E+02 -0.81416099240E+02  0.10276740292E+03  0.00000000000E+00 0.  1.
         11    1    3    3    0    0  0.12745879317E+02  0.58274076555E+02 -0.10931558997E+03  0.12453201857E+03  0.00000000000E+00 0. -1.
</event>
<event>
 7    1  0.4687179E-006  0.1141896E+03  0.7561462E-02  0.1253002E+00
         -2   -1    0    0    0  501 -0.00000000000E+00  0.00000000000E+00  0.54684577434E+03  0.54684577434E+03  0.00000000000E+00 0.  1.
          2   -1    0    0  501    0  0.00000000000E+00 -0.00000000000E+00 -0.39051988280E+02  0.39051988280E+02  0.00000000000E+00 0. -1.
         23    2    1    2    0    0 -0.56382898655E+02 -0.61974142577E+02  0.13172235916E+03  0.18080781298E+03  0.91218746553E+02 0.  0.
          5    1    1    2  502    0  0.73966880769E+02 -0.58907997549E+01  0.24957351520E+03  0.26040394172E+03  0.41800000000E+01 0. -1.
         -5    1    1    2    0  502 -0.17583982114E+02  0.67864942332E+02  0.12649791169E+03  0.14468600792E+03  0.41800000000E+01 0. -1.
        -11    1    3    3    0    0 -0.40561472610E+02 -0.46395290431E+02  0.14313850436E+03  0.15584090433E+03  0.00000000000E+00 0.  1.
         11    1    3    3    0    0 -0.15821426045E+02 -0.15578852147E+02 -0.11416145193E+02  0.24966908647E+02  0.00000000000E+00 0. -1.
</event>
<event>
 6    1  0.4687179E-006  0.1221801E+03  0.7561462E-02  0.1239543E+00
         -3   -1    0    0    0  501 -0.00000000000E+00  0.00000000000E+00  0.35301496597E+03  0.35301496597E+03  0.00000000000E+00 0.  1.
          3   -1    0    0  501    0  0.00000000000E+00 -0.00000000000E+00 -0.81518135769E+02  0.81518135769E+02  0.00000000000E+00 0. -1.
          5    1    1    2  502    0  0.80290657741E+01  0.45643965356E+02  0.42241470265E+02  0.62846254309E+02  0.41800000000E+01 0.  1.
         -5    1    1    2    0  502 -0.91217633011E+02 -0.44475576003E+02  0.14951525913E+03  0.18075126153E+03  0.41800000000E+01 0.  1.
        -11    1    1    2    0    0  0.73223797993E+02 -0.19162431811E+02  0.12220792574E+03  0.14374874086E+03  0.00000000000E+00 0.  1.
         11    1    1    2    0    0  0.99647692436E+01  0.17994042458E+02 -0.42467824932E+02  0.47186845037E+02  0.00000000000E+00 0. -1.
</event>
<event>
 7    1  0.4687179E-006  0.1003612E+03  0.7561462E-02  0.1279538E+00
         -1   -1    0    0    0  501 -0.00000000000E+00  0.00000000000E+00  0.27731041064E+02  0.27731041064E+02  0.00000000000E+00 0.  1.
          1   -1    0    0  501    0  0.00000000000E+00 -0.00000000000E+00 -0.52403345803E+03  0.52403345803E+03  0.00000000000E+00 0. -1.
         23    2    1    2    0    0 -0.35722159801E+02 -0.46660975180E+01 -0.29903951446E+03  0.31538755058E+03  0.93524492413E+02 0.  0.
          5    1    1    2  502    0  0.39702687840E+02  0.54906435114E+02 -0.61877303210E+02  0.91854739078E+02  0.41800000000E+01 0. -1.
         -5    1    1    2    0  502 -0.39805280392E+01 -0.50240337596E+02 -0.13538559930E+03  0.14452220944E+03  0.41800000000E+01 0. -1.
        -11    1    3    3    0    0  0.97474917621E+00  0.31045318881E+02 -0.36618432482E+02  0.48017408904E+02  0.00000000000E+00 0.  1.
         11    1    3    3    0    0 -0.36696908977E+02 -0.35711416399E+02 -0.26242108198E+03  0.26737014167E+03  0.00000000000E+00 0. -1.
</event>
<event>
 7    1  0.4687179E-006  0.1440586E+03  0.7561462E-02  0.1207970E+00
         -1   -1    0    0    0  501 -0.00000000000E+00  0.00000000000E+00  0.10617734402E+03  0.10617734402E+03  0.00000000000E+00 0.  1.
          1   -1    0    0  501    0  0.00000000000E+00 -0.00000000000E+00 -0.25364098083E+03  0.25364098083E+03  0.00000000000E+00 0. -1.
         23    2    1    2    0    0  0.10571673021E+03 -0.19886779869E+02 -0.13488282627E+03  0.19435493190E+03  0.89492746461E+02 0.  0.
          5    1    1    2  502    0 -0.43262654502E+02  0.63766702582E+02  0.23866000536E+02  0.80776902728E+02  0.41800000000E+01 0.  1.
         -5    1    1    2    0  502 -0.62454075712E+02 -0.43879922713E+02 -0.36446811072E+02  0.84686490231E+02  0.41800000000E+01 0.  1.
        -11    1    3    3    0    0  0.28090805056E+02  0.30884816342E+02 -0.18856274834E+02  0.45809653019E+02  0.00000000000E+00 0.  1.
         11    1    3    3    0    0  0.77625925158E+02 -0.50771596211E+02 -0.11602655144E+03  0.14854527888E+03  0.00000000000E+00 0. -1.
</event>
<event>
 7    1  0.4687179E-006  0.1842005E+03  0.7561462E-02  0.1163799E+00
         -2   -1    0    0    0  501 -0.00000000000E+00  0.00000000000E+00  0.28988673429E+02  0.28988673429E+02  0.00000000000E+00 0. -1.
          2   -1    0    0  501    0  0.00000000000E+00 -0.00000000000E+00 -0.12984990980E+04  0.12984990980E+04  0.00000000000E+00 0.  1.
         23    2    1    2    0    0 -0.73170257583E+01  0.15501840300E+03 -0.73253181389E+03  0.75470746554E+03  0.94319966352E+02 0.  0.
          5    1    1    2  502    0  0.52384644217E+02 -0.12189257589E+03 -0.45097088381E+03  0.47010016109E+03  0.41800000000E+01 0.  1.
         -5    1    1    2    0  502 -0.45067618459E+02 -0.33125827109E+02 -0.86007726883E+02  0.10268014481E+03  0.41800000000E+01 0.  1.
        -11    1    3    3    0    0 -0.48687067935E+02  0.93893992628E+02 -0.37460368766E+03  0.38924855201E+03  0.00000000000E+00 0. -1.
         11    1    3    3    0    0  0.41370042177E+02  0.61124410373E+02 -0.35792812623E+03  0.36545891353E+03  0.00000000000E+00 0.  1.
</event>
<event>
 7    1  0.4687179E-006  0.1598790E+03  0.7561462E-02  0.1188833E+00
         -3   -1    0    0    0  501 -0.00000000000E+00  0.00000000000E+00  0.76884326635E+03  0.76884326635E+03  0.00000000000E+00 0.  1.
          3   -1    0    0  501    0  0.00000000000E+00 -0.00000000000E+00 -0.11379592465E+03  0.11379592465E+03  0.00000000000E+00 0. -1.
         23    2    1    2    0    0 -0.93132306766E+02 -0.10060940159E+03 -0.35405306417E+02  0.16776843892E+03  0.89982415635E+02 0.  0.
          5    1    1    2  502    0  0.72962622243E+02 -0.63711524585E+01  0.21772253303E+03  0.22974923202E+03  0.41800000000E+01 0.  1.
         -5    1    1    2    0  502  0.20169684524E+02  0.10698055404E+03  0.47273011508E+03  0.48512152006E+03  0.41800000000E+01 0.  1.
        -11    1    3    3    0    0 -0.46040805367E+02 -0.42499481022E+02 -0.62228891110E+02  0.88308530362E+02  0.00000000000E+00 0. -1.
         11    1    3    3    0    0 -0.47091501400E+02 -0.58109920564E+02  0.26823584692E+02  0.79459908556E+02  0.00000000000E+00 0.  1.
</event>
<event>
 7    1  0.4687179E-006  0.8436204E+02  0.7561462E-02  0.1317109E+00
          2   -1    0    0  501    0  0.00000000000E+00  0.00000000000E+00  0.28114150551E+03  0.28114150551E+03  0.00000000000E+00 0.  1.
         -2   -1    0    0    0  501 -0.00000000000E+00 -0.00000000000E+00 -0.66913471661E+02  0.66913471661E+02  0.00000000000E+00 0. -1.
         23    2    1    2    0    0  0.77100232544E+02  0.25216367154E+02  0.12199059307E+03  0.17274114762E+03  0.91528619850E+02 0.  0.
          5    1    1    2  502    0 -0.58295623066E+02 -0.95983485458E+01  0.12257226859E+03  0.13613207334E+03  0.41800000000E+01 0.  1.
         -5    1    1    2    0  502 -0.18804609478E+02 -0.15618018608E+02 -0.30334827805E+02  0.39181756224E+02  0.41800000000E+01 0.  1.
        -11    1    3    3    0    0  0.75749569996E+01  0.11594071941E+02 -0.13818032582E+02  0.19563754807E+02  0.00000000000E+00 0. -1.
         11    1    3    3    0    0  0.69525275544E+02  0.13622295213E+02  0.13580862565E+03  0.15317739281E+03  0.00000000000E+00 0.  1.
</event>
<event>
 7    1  0.4687179E-006  0.1195910E+03  0.7561462E-02  0.1243773E+00
          2   -1    0    0  501    0  0.00000000000E+00  0.00000000000E+00  0.88395544439E+02  0.88395544439E+02  0.00000000000E+00 0.  1.
         -2   -1    0    0    0  501 -0.00000000000E+00 -0.00000000000E+00 -0.19973635136E+03  0.19973635136E+03  0.00000000000E+00 0. -1.
         23    2    1    2    0    0 -0.62833449061E+02  0.45629566858E+02 -0.78144260159E+02  0.13720319858E+03  0.81780759427E+02 0.  0.
          5    1    1    2  502    0 -0.22543717540E+01 -0.75078933865E+02 -0.22847622034E+02  0.78621973614E+02  0.41800000000E+01 0. -1.
         -5    1    1    2    0  502  0.65087820815E+02  0.29449367007E+02 -0.10348924730E+02  0.72306723607E+02  0.41800000000E+01 0. -1.
        -11    1    3    3    0    0 -0.49808208400E+02  0.56575600801E+02 -0.89298921024E+02  0.11685869042E+03  0.00000000000E+00 0. -1.
         11    1    3    3    0    0 -0.13025240662E+02 -0.10946033943E+02  0.11154660866E+02  0.20344508163E+02  0.00000000000E+00 0.  1.
</event>
<event>
 7    1  0.4687179E-006  0.1071471E+03  0.7561462E-02  0.1265946E+00
         -1   -1    0    0    0  501 -0.00000000000E+00  0.00000000000E+00  0.10389571060E+03  0.10389571060E+03  0.00000000000E+00 0.  1.
          1   -1    0    0  501    0  0.00000000000E+00 -0.00000000000E+00 -0.11713142706E+03  0.11713142706E+03  0.00000000000E+00 0. -1.
         23    2    1    2    0    0 -0.62331565910E+01 -0.15758509230E+02 -0.10928442911E+02  0.94770992521E+02  0.92600903368E+02 0.  0.
          5    1    1    2  502    0  0.61320169843E+02  0.22124307425E+02  0.16809236432E+02  0.67451249344E+02  0.41800000000E+01 0. -1.
         -5    1    1    2    0  502 -0.55087013252E+02 -0.63657981950E+01 -0.19116509980E+02  0.58804895795E+02  0.41800000000E+01 0. -1.
        -11    1    3    3    0    0  0.40153917049E+02  0.84538248061E+01 -0.10852589517E+02  0.42445057515E+02  0.00000000000E+00 0.  1.
         11    1    3    3    0    0 -0.46387073640E+02 -0.24212334037E+02 -0.75853393717E-01  0.52325935005E+02  0.00000000000E+00 0. -1.
</event>
<event>
 7    1  0.4687179E-006  0.8289843E+02  0.7561462E-02  0.1321022E+00
         -4   -1    0    0    0  501 -0.00000000000E+00  0.00000000000E+00  0.75285368352E+02  0.75285368352E+02  0.00000000000E+00 0.  1.
          4   -1    0    0  501    0  0.00000000000E+00 -0.00000000000E+00 -0.24509887033E+03  0.24509887033E+03  0.00000000000E+00 0. -1.
         23    2    1    2    0    0 -0.44590367932E+02  0.64058817226E+02 -0.10366101260E+03  0.15878226620E+03  0.91511581502E+02 0.  0.
          5    1    1    2  502    0  0.12156779416E+02 -0.45176185836E+02 -0.10026007641E+03  0.11071689290E+03  0.41800000000E+01 0. -1.
         -5    1    1    2    0  502  0.32433588515E+02 -0.18882631390E+02  0.34107587023E+02  0.50885079589E+02  0.41800000000E+01 0. -1.
        -11    1    3    3    0    0 -0.12855919868E+02  0.37634665279E+02 -0.11003167410E+03  0.11699834192E+03  0.00000000000E+00 0. -1.
         11    1    3    3    0    0 -0.31734448063E+02  0.26424151948E+02  0.63706615034E+01  0.41783924278E+02  0.00000000000E+00 0.  1.
</event>
<event>
 7    1  0.4687179E-006  0.1345057E+03  0.7561462E-02  0.1220919E+00
          2   -1    0    0  501    0  0.00000000000E+00  0.00000000000E+00  0.30328757231E+02  0.30328757231E+02  0.00000000000E+00 0. -1.
         -2   -1    0    0    0  501 -0.00000000000E+00 -0.00000000000E+00 -0.71786489680E+03  0.71786489680E+03  0.00000000000E+00 0.  1.
         23    2    1    2    0    0  0.14038176930E+02 -0.55299508365E+02 -0.17905030847E+03  0.20955601213E+03  0.92734045649E+02 0.  0.
          5    1    1    2  502    0 -0.17790024402E+02 -0.55771677471E+02 -0.10706255044E+03  0.12209351778E+03  0.41800000000E+01 0. -1.
         -5    1    1    2    0  502  0.37518474721E+01  0.11107118584E+03 -0.40142328066E+03  0.41654412412E+03  0.41800000000E+01 0.  1.
        -11    1    3    3    0    0  0.35207133250E+01  0.21402029442E+02 -0.85081567681E+02  0.87802707507E+02  0.00000000000E+00 0.  1.
         11    1    3    3    0    0  0.10517463605E+02 -0.76701537807E+02 -0.93968740785E+02  0.12175330463E+03  0.00000000000E+00 0. -1.
</event>
<event>
 7    1  0.4687179E-006  0.1122234E+03  0.7561462E-02  0.1256507E+00
          2   -1    0    0  501    0  0.00000000000E+00  0.00000000000E+00  0.26501414204E+02  0.26501414204E+02  0.00000000000E+00 0. -1.
         -2   -1    0    0    0  501 -0.00000000000E+00 -0.00000000000E+00 -0.52547653092E+03  0.52547653092E+03  0.00000000000E+00 0.  1.
         23    2    1    2    0    0 -0.20746224919E+02  0.26796703351E+02 -0.17707295679E+03  0.20236196655E+03  0.91907912179E+02 0.  0.
          5    1    1    2  502    0 -0.20867076505E+02 -0.66483986919E+02 -0.23639436668E+03  0.24648595172E+03  0.41800000000E+01 0. -1.
         -5    1    1    2    0  502  0.41613301424E+02  0.39687283568E+02 -0.85507793246E+02  0.10313002685E+03  0.41800000000E+01 0.  1.
        -11    1    3    3    0    0 -0.56974001995E+02  0.16936918385E+02 -0.12199361884E+03  0.13570312873E+03  0.00000000000E+00 0.  1.
         11    1    3    3    0    0  0.36227777076E+02  0.98597849656E+01 -0.55079337946E+02  0.66658837824E+02  0.00000000000E+00 0. -1.
</event>
<event>
 7    1  0.4687179E-006  0.9007319E+02  0.7561462E-02  0.1302675E+00
         -1   -1    0    0    0  501 -0.00000000000E+00  0.00000000000E+00  0.49626697385E+02  0.49626697385E+02  0.00000000000E+00 0.  1.
          1   -1    0    0  501    0  0.00000000000E+00 -0.00000000000E+00 -0.26027487508E+03  0.26027487508E+03  0.00000000000E+00 0. -1.
         23    2    1    2    0    0 -0.29019584963E+02  0.42648372649E+01 -0.14012580231E+03  0.16333520389E+03  0.78630930360E+02 0.  0.
          5    1    1    2  502    0  0.25606952089E+02  0.43598279001E+02 -0.82574439254E+02  0.96915098644E+02  0.41800000000E+01 0. -1.
         -5    1    1    2    0  502  0.34126328736E+01 -0.47863116266E+02  0.12052063871E+02  0.49651269927E+02  0.41800000000E+01 0. -1.
        -11    1    3    3    0    0  0.23446939473E+02 -0.11968531476E+02 -0.27710461884E+02  0.38221386869E+02  0.00000000000E+00 0.  1.
         11    1    3    3    0    0 -0.52466524436E+02  0.16233368741E+02 -0.11241534043E+03  0.12511381702E+03  0.00000000000E+00 0. -1.
</event>
<event>
 6    1  0.4687179E-006  0.1724469E+03  0.7561462E-02  0.1175320E+00
          1   -1    0    0  501    0  0.00000000000E+00  0.00000000000E+00  0.35542095316E+03  0.35542095316E+03  0.00000000000E+00 0. -1.
         -1   -1    0    0    0  501 -0.00000000000E+00 -0.00000000000E+00 -0.66433790913E+03  0.66433790913E+03  0.00000000000E+00 0.  1.
          5    1    1    2  502    0 -0.36116562389E+02  0.66445540999E+02 -0.23189729646E+03  0.24395336542E+03  0.41800000000E+01 0. -1.
         -5    1    1    2    0  502  0.67835851622E+02 -0.39582948655E+02 -0.39462310233E+03  0.40238461437E+03  0.41800000000E+01 0.  1.
        -11    1    1    2    0    0  0.19876378835E+02  0.74314694258E+02  0.85454290854E+02  0.11497904176E+03  0.00000000000E+00 0.  1.
         11    1    1    2    0    0 -0.51595668068E+02 -0.10117728660E+03  0.23214915196E+03  0.25844184074E+03  0.00000000000E+00 0. -1.
</event>
<event>
 7    1  0.4687179E-006  0.9618543E+02  0.7561462E-02  0.1288528E+00
         -3   -1    0    0    0  501 -0.00000000000E+00  0.00000000000E+00  0.37435556953E+03  0.37435556953E+03  0.00000000000E+00 0. -1.
          3   -1    0    0  501    0  0.00000000000E+00 -0.00000000000E+00 -0.37681938635E+02  0.37681938635E+02  0.00000000000E+00 0.  1.
         23    2    1    2    0    0 -0.38035707635E+02  0.90311953498E+01  0.95190042471E+02  0.13728551555E+03  0.90872939040E+02 0.  0.
          5    1    1    2  502    0 -0.14754003165E+02 -0.45588879795E+02  0.37886720822E+02  0.61228282558E+02  0.41800000000E+01 0. -1.
         -5    1    1    2    0  502  0.52789710800E+02  0.36557684445E+02  0.20359686760E+03  0.21352371005E+03  0.41800000000E+01 0. -1.
        -11    1    3    3    0    0 -0.30549490553E+02  0.38711577432E+02  0.94586203673E+02  0.10666961857E+03  0.00000000000E+00 0. -1.
         11    1    3    3    0    0 -0.74862170816E+01 -0.29680382082E+02  0.60383879804E+00  0.30615896982E+02  0.00000000000E+00 0.  1.
</event>
<event>
 7    1  0.4687179E-006  0.1049839E+03  0.7561462E-02  0.1270151E+00
          2   -1    0    0  501    0  0.00000000000E+00  0.00000000000E+00  0.22601914266E+03  0.22601914266E+03  0.00000000000E+00 0. -1.
         -2   -1    0    0    0  501 -0.00000000000E+00 -0.00000000000E+00 -0.77670982647E+02  0.77670982647E+02  0.00000000000E+00 0.  1.
         23    2    1    2    0    0 -0.10252947666E+02  0.28629532175E+02  0.14388433873E+03  0.17487909574E+03  0.94632035508E+02 0.  0.
          5    1    1    2  502    0  0.64818552646E+02 -0.67636067892E+01  0.19192450521E+02  0.68066244945E+02  0.41800000000E+01 0.  1.
         -5    1    1    2    0  502 -0.54565604979E+02 -0.21865925386E+02 -0.14728629243E+02  0.60744784625E+02  0.41800000000E+01 0.  1.
        -11    1    3    3    0    0 -0.23622860547E+02  0.52948644636E+02  0.13296505175E+03  0.14505620805E+03  0.00000000000E+00 0. -1.
         11    1    3    3    0    0  0.13369912881E+02 -0.24319112461E+02  0.10919286987E+02  0.29822887682E+02  0.00000000000E+00 0.  1.
</event>
<event>
 7    1  0.4687179E-006  0.8950116E+02  0.7561462E-02  0.1304064E+00
          4   -1    0    0  501    0  0.00000000000E+00  0.00000000000E+00  0.63599417258E+02  0.63599417258E+02  0.00000000000E+00 0. -1.
         -4   -1    0    0    0  501 -0.00000000000E+00 -0.00000000000E+00 -0.20188275671E+03  0.20188275671E+03  0.00000000000E+00 0.  1.
         23    2    1    2    0    0 -0.21253170542E+02 -0.96827462948E+01 -0.40753367236E+02  0.10515509251E+03  0.94081367479E+02 0.  0.
          5    1    1    2  502    0  0.38181721408E+02 -0.25655953053E+02 -0.10974621322E+03  0.11907046440E+03  0.41800000000E+01 0.  1.
         -5    1    1    2    0  502 -0.16928550866E+02  0.35338699348E+02  0.12216241007E+02  0.41256617049E+02  0.41800000000E+01 0.  1.
        -11    1    3    3    0    0 -0.34769438799E+02 -0.44258034173E+02 -0.38041966637E+02  0.67932898428E+02  0.00000000000E+00 0.  1.
         11    1    3    3    0    0  0.13516268257E+02  0.34575287878E+02 -0.27114005990E+01  0.37222194087E+02  0.00000000000E+00 0. -1.
</event>
<event>
 7    1  0.4687179E-006  0.4635775E+03  0.7561462E-02  0.1023749E+00
          1   -1    0    0  501    0  0.00000000000E+00  0.00000000000E+00  0.28813969335E+04  0.28813969335E+04  0.00000000000E+00 0. -1.
         -1   -1    0    0    0  501 -0.00000000000E+00 -0.00000000000E+00 -0.10023604833E+03  0.10023604833E+03  0.00000000000E+00 0.  1.
         23    2    1    2    0    0 -0.42680552569E+03 -0.16719140997E+03  0.20984145879E+04  0.21498239985E+04  0.91013830336E+02 0.  0.
          5    1    1    2  502    0  0.25048725317E+02  0.21998299087E+02  0.10313683986E+02  0.35145530016E+02  0.41800000000E+01 0. -1.
         -5    1    1    2    0  502  0.40175680038E+03  0.14519311088E+03  0.67243261332E+03  0.79666345338E+03  0.41800000000E+01 0. -1.
        -11    1    3    3    0    0 -0.37077614683E+02  0.97441837345E+01  0.21467325408E+03  0.21806949499E+03  0.00000000000E+00 0. -1.
         11    1    3    3    0    0 -0.38972791101E+03 -0.17693559370E+03  0.18837413338E+04  0.19317545035E+04  0.00000000000E+00 0.  1.
</event>
<event>
 7    1  0.4687179E-006  0.1484688E+03  0.7561462E-02  0.1202367E+00
         -1   -1    0    0    0  501 -0.00000000000E+00  0.00000000000E+00  0.49067470986E+03  0.49067470986E+03  0.00000000000E+00 0.  1.
          1   -1    0    0  501    0  0.00000000000E+00 -0.00000000000E+00 -0.10580869648E+03  0.10580869648E+03  0.00000000000E+00 0. -1.
         23    2    1    2    0    0  0.35865519762E+02  0.98927794163E+02 -0.35871139738E+02  0.14510814599E+03  0.93255516737E+02 0.  0.
          5    1    1    2  502    0 -0.71420265373E+02 -0.99256658661E+02  0.36653354652E+03  0.38641564631E+03  0.41800000000E+01 0. -1.
         -5    1    1    2    0  502  0.35554745612E+02  0.32886449776E+00  0.54203606598E+02  0.64959614035E+02  0.41800000000E+01 0. -1.
        -11    1    3    3    0    0 -0.16504887193E+02 -0.90156501243E+01 -0.13280136677E+02  0.23022929409E+02  0.00000000000E+00 0. -1.
         11    1    3    3    0    0  0.52370406954E+02  0.10794344429E+03 -0.22591003061E+02  0.12208521658E+03  0.00000000000E+00 0.  1.
</event>
<event>
 7    1  0.5519530E-006  0.2078238E+03  0.7561462E-02  0.1143301E+00
          2   -1    0    0  501    0  0.00000000000E+00  0.00000000000E+00  0.11987257028E+04  0.11987257028E+04  0.00000000000E+00 0. -1.
         -2   -1    0    0    0  501 -0.00000000000E+00 -0.00000000000E+00 -0.36934637559E+02  0.36934637559E+02  0.00000000000E+00 0.  1.
         23    2    1    2    0    0 -0.17965731420E+03  0.48977417327E+01  0.54844302043E+03  0.58439663974E+03  0.91809299421E+02 0.  0.
          5    1    1    2  502    0  0.60212989743E+02 -0.57402367337E+02  0.17360389984E+03  0.19255238859E+03  0.41800000000E+01 0. -1.
         -5    1    1    2    0  502  0.11944432445E+03  0.52504625604E+02  0.43974414497E+03  0.45871131204E+03  0.41800000000E+01 0. -1.
        -11    1    3    3    0    0 -0.50384399832E+02  0.43852875597E+02  0.17949590745E+03  0.19152139107E+03  0.00000000000E+00 0. -1.
         11    1    3    3    0    0 -0.12927291437E+03 -0.38955133864E+02  0.36894711298E+03  0.39287524867E+03  0.00000000000E+00 0.  1.
</event>
<event>
 7    1  0.4687179E-006  0.2012964E+03  0.7561462E-02  0.1148650E+00
          1   -1    0    0  501    0  0.00000000000E+00  0.00000000000E+00  0.64473963467E+02  0.64473963467E+02  0.00000000000E+00 0. -1.
         -1   -1    0    0    0  501 -0.00000000000E+00 -0.00000000000E+00 -0.77742488944E+03  0.77742488944E+03  0.00000000000E+00 0.  1.
         23    2    1    2    0    0  0.18970136943E+03 -0.21081913622E+01 -0.43333391386E+03  0.48158746747E+03  0.90316963469E+02 0.  0.
          5    1    1    2  502    0 -0.18085708798E+03 -0.16798391105E+02 -0.17056616180E+03  0.24920224751E+03  0.41800000000E+01 0.  1.
         -5    1    1    2    0  502 -0.88442814486E+01  0.18906582467E+02 -0.10905085032E+03  0.11110913792E+03  0.41800000000E+01 0.  1.
        -11    1    3    3    0    0  0.34958697548E+02 -0.25296673930E+02 -0.42371228557E+02  0.60476055225E+02  0.00000000000E+00 0. -1.
         11    1    3    3    0    0  0.15474267188E+03  0.23188482567E+02 -0.39096268531E+03  0.42111141225E+03  0.00000000000E+00 0.  1.
</event>
<event>
 7    1  0.4687179E-006  0.1289859E+03  0.7561462E-02  0.1228968E+00
          1   -1    0    0  501    0  0.00000000000E+00  0.00000000000E+00  0.78172069747E+03  0.78172069747E+03  0.00000000000E+00 0. -1.
         -1   -1    0    0    0  501 -0.00000000000E+00 -0.00000000000E+00 -0.32759329167E+02  0.32759329167E+02  0.00000000000E+00 0.  1.
         23    2    1    2    0    0  0.66323049874E+02  0.97107499093E+02  0.35919768597E+03  0.38857911116E+03  0.90233778040E+02 0.  0.
          5    1    1    2  502    0 -0.20909570614E+02 -0.22898895436E+02  0.53512051505E+01  0.31743934098E+02  0.41800000000E+01 0. -1.
         -5    1    1    2    0  502 -0.45413479260E+02 -0.74208603657E+02  0.38441247719E+03  0.39415698138E+03  0.41800000000E+01 0. -1.
        -11    1    3    3    0    0  0.64024649131E+02  0.27082001432E+02  0.24435819170E+03  0.25405416027E+03  0.00000000000E+00 0. -1.
         11    1    3    3    0    0  0.22984007429E+01  0.70025497662E+02  0.11483949427E+03  0.13452495089E+03  0.00000000000E+00 0.  1.
</event>
<event>
 7    1  0.4687179E-006  0.6281158E+02  0.7561462E-02  0.1386398E+00
          1   -1    0    0  501    0  0.00000000000E+00  0.00000000000E+00  0.64009128494E+02  0.64009128494E+02  0.00000000000E+00 0. -1.
         -1   -1    0    0    0  501 -0.00000000000E+00 -0.00000000000E+00 -0.23943916933E+03  0.23943916933E+03  0.00000000000E+00 0.  1.
         23    2    1    2    0    0 -0.93515297610E+00 -0.13942653910E+01 -0.53822059228E+01  0.92338495119E+02  0.92166214272E+02 0.  0.
          5    1    1    2  502    0 -0.49475189867E+02  0.75082403660E+01 -0.22525993080E+02  0.55036904437E+02  0.41800000000E+01 0.  1.
         -5    1    1    2    0  502  0.50410342843E+02 -0.61139749750E+01 -0.14752184183E+03  0.15607289827E+03  0.41800000000E+01 0.  1.
        -11    1    3    3    0    0  0.93940799338E+01  0.65268630228E+01 -0.47187179419E+02  0.48553872969E+02  0.00000000000E+00 0.  1.
         11    1    3    3    0    0 -0.10329232910E+02 -0.79211284138E+01  0.41804973496E+02  0.43784622151E+02  0.00000000000E+00 0. -1.
</event>
<event>
 7    1  0.4687179E-006  0.9027174E+02  0.7561462E-02  0.1302195E+00
         -1   -1    0    0    0  501 -0.00000000000E+00  0.00000000000E+00  0.99731036304E+03  0.99731036304E+03  0.00000000000E+00 0.  1.
          1   -1    0    0  501    0  0.00000000000E+00 -0.00000000000E+00 -0.17016804948E+02  0.17016804948E+02  0.00000000000E+00 0. -1.
         23    2    1    2    0    0 -0.47519035673E+02 -0.14768785150E+02  0.24160967643E+03  0.26347530727E+03  0.92562551978E+02 0.  0.
          5    1    1    2  502    0  0.48359904908E+01  0.39348991418E+02  0.63217918096E+03  0.63343485787E+03  0.41800000000E+01 0.  1.
         -5    1    1    2    0  502  0.42683045182E+02 -0.24580206268E+02  0.10650470070E+03  0.11741700285E+03  0.41800000000E+01 0.  1.
        -11    1    3    3    0    0 -0.27089439492E+02  0.30974273831E+02  0.46756409262E+02  0.62284871184E+02  0.00000000000E+00 0. -1.
         11    1    3    3    0    0 -0.20429596181E+02 -0.45743058981E+02  0.19485326717E+03  0.20119043609E+03  0.00000000000E+00 0.  1.
</event>
<event>
 7    1  0.4687179E-006  0.1343017E+03  0.7561462E-02  0.1221209E+00
         -3   -1    0    0    0  501 -0.00000000000E+00  0.00000000000E+00  0.86993481426E+02  0.86993481426E+02  0.00000000000E+00 0.  1.
          3   -1    0    0  501    0  0.00000000000E+00 -0.00000000000E+00 -0.21975076208E+03  0.21975076208E+03  0.00000000000E+00 0. -1.
         23    2    1    2    0    0  0.38267124556E+02  0.75990380674E+02 -0.60318814588E+02  0.13901387454E+03  0.91910756421E+02 0.  0.
          5    1    1    2  502    0 -0.80914441893E+02 -0.71454069889E+02 -0.55247622524E+02  0.12133673477E+03  0.41800000000E+01 0.  1.
         -5    1    1    2    0  502  0.42647317336E+02 -0.45363107855E+01 -0.17190843539E+02  0.46393634187E+02  0.41800000000E+01 0.  1.
        -11    1    3    3    0    0  0.30338794646E+02  0.93480200142E+02 -0.29340154487E+02  0.10256624661E+03  0.00000000000E+00 0.  1.
         11    1    3    3    0    0  0.79283299104E+01 -0.17489819468E+02 -0.30978660101E+02  0.36447627931E+02  0.00000000000E+00 0. -1.
</event>
<event>
 7    1  0.4687179E-006  0.1312988E+03  0.7561462E-02  0.1225541E+00
          2   -1    0    0  501    0  0.00000000000E+00  0.00000000000E+00  0.20807462103E+03  0.20807462103E+03  0.00000000000E+00 0. -1.
         -2   -1    0    0    0  501 -0.00000000000E+00 -0.00000000000E+00 -0.11178699539E+03  0.11178699539E+03  0.00000000000E+00 0.  1.
         23    2    1    2    0    0 -0.55666470682E+02 -0.78011149708E+02  0.93455791822E+02  0.16225520496E+03  0.91696625207E+02 0.  0.
          5    1    1    2  502    0  0.71608309102E+02  0.25731989028E+02  0.44952977266E+02  0.88476707425E+02  0.41800000000E+01 0.  1.
         -5    1    1    2    0  502 -0.15941838419E+02  0.52279160680E+02 -0.42121143453E+02  0.69129704031E+02  0.41800000000E+01 0.  1.
        -11    1    3    3    0    0  0.19797036865E+02 -0.45089568877E+02  0.45083581716E+02  0.66764670526E+02  0.00000000000E+00 0. -1.
         11    1    3    3    0    0 -0.75463507547E+02 -0.32921580831E+02  0.48372210106E+02  0.95490534433E+02  0.00000000000E+00 0.  1.
</event>
<event>
 7    1  0.4687179E-006  0.1327377E+03  0.7561462E-02  0.1223449E+00
         -2   -1    0    0    0  501 -0.00000000000E+00  0.00000000000E+00  0.35826202275E+02  0.35826202275E+02  0.00000000000E+00 0.  1.
          2   -1    0    0  501    0  0.00000000000E+00 -0.00000000000E+00 -0.71553962335E+03  0.71553962335E+03  0.00000000000E+00 0. -1.
         23    2    1    2    0    0 -0.98919829451E+02  0.56452847256E+02 -0.35585793229E+03  0.38598504626E+03  0.96837654547E+02 0.  0.
          5    1    1    2  502    0  0.50003053339E+01 -0.13638948944E+02 -0.21418935885E+03  0.21472209440E+03  0.41800000000E+01 0. -1.
         -5    1    1    2    0  502  0.93919524117E+02 -0.42813898312E+02 -0.10966612993E+03  0.15065868496E+03  0.41800000000E+01 0. -1.
        -11    1    3    3    0    0 -0.11483457325E+03  0.34428873332E+02 -0.31371784603E+03  0.33584403143E+03  0.00000000000E+00 0. -1.
         11    1    3    3    0    0  0.15914743797E+02  0.22023973924E+02 -0.42140086267E+02  0.50141014829E+02  0.00000000000E+00 0.  1.
</event>
<event>
 7    1  0.4687179E-006  0.2185488E+03  0.7561462E-02  0.1134970E+00
         -2   -1    0    0    0  501 -0.00000000000E+00  0.00000000000E+00  0.72544671037E+02  0.72544671037E+02  0.00000000000E+00 0.  1.
          2   -1    0    0  501    0  0.00000000000E+00 -0.00000000000E+00 -0.77304137445E+03  0.77304137445E+03  0.00000000000E+00 0. -1.
         23    2    1    2    0    0 -0.14920465034E+03 -0.13326289225E+03 -0.44822535673E+03  0.50017233070E+03  0.96152815114E+02 0.  0.
          5    1    1    2  502    0  0.10023861945E+03  0.84214421619E+01 -0.12480454724E+03  0.16035070605E+03  0.41800000000E+01 0. -1.
         -5    1    1    2    0  502  0.48966030885E+02  0.12484145009E+03 -0.12746679944E+03  0.18506300873E+03  0.41800000000E+01 0. -1.
        -11    1    3    3    0    0 -0.80665331045E+02 -0.91552720486E+02 -0.16138032432E+03  0.20231758534E+03  0.00000000000E+00 0.  1.
         11    1    3    3    0    0 -0.68539319294E+02 -0.41710171765E+02 -0.28684503241E+03  0.29785474536E+03  0.00000000000E+00 0. -1.
</event>
<event>
 7    1  0.4687179E-006  0.1027834E+03  0.7561462E-02  0.1274549E+00
          3   -1    0    0  501    0  0.00000000000E+00  0.00000000000E+00  0.22220850165E+03  0.22220850165E+03  0.00000000000E+00 0. -1.
         -3   -1    0    0    0  501 -0.00000000000E+00 -0.00000000000E+00 -0.10009497186E+03  0.10009497186E+03  0.00000000000E+00 0.  1.
         23    2    1    2    0    0  0.74222459523E+02 -0.18981360444E+02  0.12727837354E+03  0.17552666921E+03  0.93490971178E+02 0.  0.
          5    1    1    2  502    0 -0.84667986966E+02  0.35339532618E+02  0.37900551243E+02  0.99355295617E+02  0.41800000000E+01 0. -1.
         -5    1    1    2    0  502  0.10445527443E+02 -0.16358172175E+02 -0.43065394986E+02  0.47421508683E+02  0.41800000000E+01 0. -1.
        -11    1    3    3    0    0  0.30524243997E+02 -0.35801062317E+02  0.11901899423E+03  0.12798033646E+03  0.00000000000E+00 0. -1.
         11    1    3    3    0    0  0.43698215526E+02  0.16819701873E+02  0.82593793145E+01  0.47546332750E+02  0.00000000000E+00 0.  1.
</event>
<event>
 7    1  0.4687179E-006  0.1034292E+03  0.7561462E-02  0.1273246E+00
          3   -1    0    0  501    0  0.00000000000E+00  0.00000000000E+00  0.12374724644E+03  0.12374724644E+03  0.00000000000E+00 0. -1.
         -3   -1    0    0    0  501 -0.00000000000E+00 -0.00000000000E+00 -0.14757195477E+03  0.14757195477E+03  0.00000000000E+00 0.  1.
         23    2    1    2    0    0 -0.56211320025E+02  0.32412682587E+02  0.36797485421E+02  0.11791632430E+03  0.91323108317E+02 0.  0.
          5    1    1    2  502    0  0.38841733177E+02  0.45177341138E+02 -0.37384160992E+02  0.70460771224E+02  0.41800000000E+01 0.  1.
         -5    1    1    2    0  502  0.17369586848E+02 -0.77590023725E+02 -0.23238032761E+02  0.82942105685E+02  0.41800000000E+01 0.  1.
        -11    1    3    3    0    0 -0.44745044504E+02  0.16059072202E+02  0.66729804233E+02  0.81932164506E+02  0.00000000000E+00 0. -1.
         11    1    3    3    0    0 -0.11466275521E+02  0.16353610385E+02 -0.29932318812E+02  0.35984159798E+02  0.00000000000E+00 0.  1.
</event>
<event>
 7    1  0.4687179E-006  0.9568983E+02  0.7561462E-02  0.1289630E+00
          2   -1    0    0  501    0  0.00000000000E+00  0.00000000000E+00  0.22288024407E+02  0.22288024407E+02  0.00000000000E+00 0. -1.
         -2   -1    0    0    0  501 -0.00000000000E+00 -0.00000000000E+00 -0.76082374032E+03  0.76082374032E+03  0.00000000000E+00 0.  1.
         23    2    1    2    0    0  0.30179951067E+02 -0.46731193499E+02 -0.18709390961E+03  0.21493105177E+03  0.89981065279E+02 0.  0.
          5    1    1    2  502    0 -0.13767162907E+02  0.70367334525E+02 -0.15677420888E+03  0.17244338640E+03  0.41800000000E+01 0.  1.
         -5    1    1    2    0  502 -0.16412788160E+02 -0.23636141026E+02 -0.39466759742E+03  0.39573732656E+03  0.41800000000E+01 0.  1.
        -11    1    3    3    0    0  0.52479549416E+02 -0.43048740436E+02 -0.17811682595E+03  0.19061191161E+03  0.00000000000E+00 0.  1.
         11    1    3    3    0    0 -0.22299598349E+02 -0.36824530632E+01 -0.89770836579E+01  0.24319140159E+02  0.00000000000E+00 0. -1.
</event>
<event>
 7    1  0.4687179E-006  0.8596663E+02  0.7561462E-02  0.1312924E+00
          2   -1    0    0  501    0  0.00000000000E+00  0.00000000000E+00  0.16661133758E+03  0.16661133758E+03  0.00000000000E+00 0. -1.
         -2   -1    0    0    0  501 -0.00000000000E+00 -0.00000000000E+00 -0.23742975987E+03  0.23742975987E+03  0.00000000000E+00 0.  1.
         23    2    1    2    0    0  0.41553658529E+02 -0.65848236950E+02  0.90794071439E+02  0.15127416327E+03  0.92615399460E+02 0.  0.
          5    1    1    2  502    0 -0.73424569745E+01  0.10310208565E+02  0.39294913151E+02  0.41494272793E+02  0.41800000000E+01 0. -1.
         -5    1    1    2    0  502 -0.34211201555E+02  0.55538028384E+02 -0.20090740688E+03  0.21127266138E+03  0.41800000000E+01 0.  1.
        -11    1    3    3    0    0  0.15206323416E+02  0.62787795262E+01  0.69736258295E+02  0.71650548254E+02  0.00000000000E+00 0.  1.
         11    1    3    3    0    0  0.26347335114E+02 -0.72127016476E+02  0.21057813144E+02  0.79623615013E+02  0.00000000000E+00 0. -1.
</event>
<event>
 7    1  0.4687179E-006  0.1345501E+03  0.7561462E-02  0.1220856E+00
         -1   -1    0    0    0  501 -0.00000000000E+00  0.00000000000E+00  0.61273164276E+02  0.61273164276E+02  0.00000000000E+00 0.  1.
          1   -1    0    0  501    0  0.00000000000E+00 -0.00000000000E+00 -0.47227212762E+03  0.47227212762E+03  0.00000000000E+00 0. -1.
         23    2    1    2    0    0 -0.26704184720E+02 -0.12899019253E+03 -0.17546206727E+03  0.23609644992E+03  0.87195259974E+02 0.  0.
          5    1    1    2  502    0 -0.92504567577E+01  0.36051345403E+02  0.43005194800E+01  0.37699301364E+02  0.41800000000E+01 0. -1.
         -5    1    1    2    0  502  0.35954641478E+02  0.92938847130E+02 -0.23983741556E+03  0.25974954062E+03  0.41800000000E+01 0. -1.
        -11    1    3    3    0    0 -0.15838574033E+02 -0.59428827343E+02 -0.18753492132E+02  0.64298829025E+02  0.00000000000E+00 0.  1.
         11    1    3    3    0    0 -0.10865610686E+02 -0.69561365190E+02 -0.15670857514E+03  0.17179762089E+03  0.00000000000E+00 0. -1.
</event>
<event>
 7    1  0.4687179E-006  0.2599102E+03  0.7561462E-02  0.1107197E+00
         -1   -1    0    0    0  501 -0.00000000000E+00  0.00000000000E+00  0.16369025472E+03  0.16369025472E+03  0.00000000000E+00 0.  1.
          1   -1    0    0  501    0  0.00000000000E+00 -0.00000000000E+00 -0.51168709605E+03  0.51168709605E+03  0.00000000000E+00 0. -1.
         23    2    1    2    0    0  0.24427633452E+03 -0.59357632223E+02 -0.62213035610E+02  0.27473493119E+03  0.91730935394E+02 0.  0.
          5    1    1    2  502    0 -0.51443891009E+01  0.25485081593E+02  0.15030601788E+00  0.26333422013E+02  0.41800000000E+01 0.  1.
         -5    1    1    2    0  502 -0.23913194542E+03  0.33872550631E+02 -0.28593411174E+03  0.37430899757E+03  0.41800000000E+01 0.  1.
        -11    1    3    3    0    0  0.22545906390E+03 -0.59250972338E+02 -0.26822661010E+02  0.23465276977E+03  0.00000000000E+00 0.  1.
         11    1    3    3    0    0  0.18817270619E+02 -0.10665988525E+00 -0.35390374599E+02  0.40082161421E+02  0.00000000000E+00 0. -1.
</event>
<event>
 7    1  0.4687179E-006  0.1015661E+03  0.7561462E-02  0.1277037E+00
          4   -1    0    0  501    0  0.00000000000E+00  0.00000000000E+00  0.43516123541E+02  0.43516123541E+02  0.00000000000E+00 0. -1.
         -4   -1    0    0    0  501 -0.00000000000E+00 -0.00000000000E+00 -0.25472356243E+03  0.25472356243E+03  0.00000000000E+00 0.  1.
         23    2    1    2    0    0  0.19575241621E+01 -0.12159107980E+02 -0.82283861449E+02  0.11819652086E+03  0.83953009957E+02 0.  0.
          5    1    1    2  502    0  0.44068279536E+02 -0.33579268708E+02 -0.34512573106E+02  0.65407726230E+02  0.41800000000E+01 0.  1.
         -5    1    1    2    0  502 -0.46025803698E+02  0.45738376688E+02 -0.94411004339E+02  0.11463543889E+03  0.41800000000E+01 0.  1.
        -11    1    3    3    0    0 -0.14005786401E+02 -0.44408674596E+02 -0.59699978254E+02  0.75712481373E+02  0.00000000000E+00 0.  1.
         11    1    3    3    0    0  0.15963310563E+02  0.32249566616E+02 -0.22583883195E+02  0.42484039488E+02  0.00000000000E+00 0. -1.
</event>
<event>
 7    1  0.4687179E-006  0.1337505E+03  0.7561462E-02  0.1221994E+00
         -1   -1    0    0    0  501 -0.00000000000E+00  0.00000000000E+00  0.25124500223E+02  0.25124500223E+02  0.00000000000E+00 0.  1.
          1   -1    0    0  501    0  0.00000000000E+00 -0.00000000000E+00 -0.97656775484E+03  0.97656775484E+03  0.00000000000E+00 0. -1.
         23    2    1    2    0    0 -0.75196513924E+02 -0.22278218192E+02 -0.69043314882E+03  0.70025196567E+03  0.86625906815E+02 0.  0.
          5    1    1    2  502    0 -0.55825697085E+01 -0.44973474378E+02 -0.74000324611E+02  0.86875191653E+02  0.41800000000E+01 0. -1.
         -5    1    1    2    0  502  0.80779083633E+02  0.67251692570E+02 -0.18700978119E+03  0.21456509774E+03  0.41800000000E+01 0.  1.
        -11    1    3    3    0    0  0.80524861978E+01 -0.31986137197E+02 -0.18529820637E+03  0.18821100071E+03  0.00000000000E+00 0.  1.
         11    1    3    3    0    0 -0.83249000122E+02  0.97079190054E+01 -0.50513494245E+03  0.51204096496E+03  0.00000000000E+00 0. -1.
</event>
<event>
 7    1  0.4687179E-006  0.1011807E+03  0.7561462E-02  0.1277832E+00
         -1   -1    0    0    0  501 -0.00000000000E+00  0.00000000000E+00  0.32355083988E+02  0.32355083988E+02  0.00000000000E+00 0.  1.
          1   -1    0    0  501    0  0.00000000000E+00 -0.00000000000E+00 -0.41395421397E+03  0.41395421397E+03  0.00000000000E+00 0. -1.
         23    2    1    2    0    0  0.12365433609E+02 -0.10549533585E+02 -0.23988247006E+03  0.25658442338E+03  0.89597825154E+02 0.  0.
          5    1    1    2  502    0 -0.13286189304E+02 -0.53429118882E+02 -0.96787096411E+02  0.11142893701E+03  0.41800000000E+01 0. -1.
         -5    1    1    2    0  502  0.92075569505E+00  0.63978652468E+02 -0.44929563509E+02  0.78295937569E+02  0.41800000000E+01 0. -1.
        -11    1    3    3    0    0  0.44504343606E+02  0.90029476088E+01 -0.18179198393E+03  0.18737666633E+03  0.00000000000E+00 0. -1.
         11    1    3    3    0    0 -0.32138909997E+02 -0.19552481194E+02 -0.58090486138E+02  0.69207757053E+02  0.00000000000E+00 0.  1.
</event>
<event>
 7    1  0.4687179E-006  0.1329657E+03  0.7561462E-02  0.1223120E+00
         -1   -1    0    0    0  501 -0.00000000000E+00  0.00000000000E+00  0.43021691529E+02  0.43021691529E+02  0.00000000000E+00 0.  1.
          1   -1    0    0  501    0  0.00000000000E+00 -0.00000000000E+00 -0.70812734171E+03  0.70812734171E+03  0.00000000000E+00 0. -1.
         23    2    1    2    0    0  0.62384089836E+02  0.79152315221E+02 -0.51147339989E+03  0.52887127548E+03  0.89123081020E+02 0.  0.
          5    1    1    2  502    0  0.16124353783E+02 -0.47509531252E+02 -0.42427883301E+01  0.50523499459E+02  0.41800000000E+01 0.  1.
         -5    1    1    2    0  502 -0.78508443619E+02 -0.31642783969E+02 -0.14938946196E+03  0.17175425829E+03  0.41800000000E+01 0.  1.
        -11    1    3    3    0    0 -0.17074126591E+02  0.37320620702E+02 -0.10821936320E+03  0.11574016200E+03  0.00000000000E+00 0.  1.
         11    1    3    3    0    0  0.79458216427E+02  0.41831694519E+02 -0.40325403668E+03  0.41313111348E+03  0.00000000000E+00 0. -1.
</event>
<event>
 7    1  0.4687179E-006  0.8307869E+02  0.7561462E-02  0.1320535E+00
          1   -1    0    0  501    0  0.00000000000E+00  0.00000000000E+00  0.99683906114E+02  0.99683906114E+02  0.00000000000E+00 0. -1.
         -1   -1    0    0    0  501 -0.00000000000E+00 -0.00000000000E+00 -0.16085035838E+03  0.16085035838E+03  0.00000000000E+00 0.  1.
         23    2    1    2    0    0 -0.42333501463E+02  0.54341174465E+02 -0.14279176947E+02  0.11022390468E+03  0.84854732815E+02 0.  0.
          5    1    1    2  502    0 -0.52806434167E+01  0.64228263911E+01  0.35871490489E+02  0.37059062639E+02  0.41800000000E+01 0. -1.
         -5    1    1    2    0  502  0.47614144880E+02 -0.60764000856E+02 -0.82758765803E+02  0.11325129717E+03  0.41800000000E+01 0. -1.
        -11    1    3    3    0    0  0.23382796357E+01  0.27137025471E+02 -0.42737906479E+02  0.50679525977E+02  0.00000000000E+00 0.  1.
         11    1    3    3    0    0 -0.44671781099E+02  0.27204148995E+02  0.28458729531E+02  0.59544378707E+02  0.00000000000E+00 0. -1.
</event>
<event>
 7    1  0.4687179E-006  0.1265798E+03  0.7561462E-02  0.1232621E+00
          1   -1    0    0  501    0  0.00000000000E+00  0.00000000000E+00  0.61037690976E+03  0.61037690976E+03  0.00000000000E+00 0. -1.
         -1   -1    0    0    0  501 -0.00000000000E+00 -0.00000000000E+00 -0.32939584104E+02  0.32939584104E+02  0.00000000000E+00 0.  1.
         23    2    1    2    0    0  0.74736645030E+02  0.50952991753E+02  0.28868742150E+03  0.31589194269E+03  0.90914897819E+02 0.  0.
          5    1    1    2  502    0  0.17848571407E+02 -0.55197698849E+02  0.79266811872E+02  0.98316109178E+02  0.41800000000E+01 0. -1.
         -5    1    1    2    0  502 -0.92585216438E+02  0.42447070963E+01  0.20948309228E+03  0.22910844199E+03  0.41800000000E+01 0. -1.
        -11    1    3    3    0    0  0.31004733516E+02  0.49569012682E+02  0.62789366878E+02  0.85795600770E+02  0.00000000000E+00 0.  1.
         11    1    3    3    0    0  0.43731911514E+02  0.13839790710E+01  0.22589805463E+03  0.23009634192E+03  0.00000000000E+00 0. -1.
</event>
<event>
 7    1  0.4687179E-006  0.1676419E+03  0.7561462E-02  0.1180330E+00
         -1   -1    0    0    0  501 -0.00000000000E+00  0.00000000000E+00  0.48254526301E+02  0.48254526301E+02  0.00000000000E+00 0.  1.
          1   -1    0    0  501    0  0.00000000000E+00 -0.00000000000E+00 -0.80578078797E+03  0.80578078797E+03  0.00000000000E+00 0. -1.
         23    2    1    2    0    0 -0.14433874880E+03  0.47170769334E+02 -0.49580815634E+03  0.52661697441E+03  0.91874664397E+02 0.  0.
          5    1    1    2  502    0  0.14720407933E+03 -0.32837192371E+02 -0.27059254748E+03  0.30981465641E+03  0.41800000000E+01 0. -1.
         -5    1    1    2    0  502 -0.28653305239E+01 -0.14333576963E+02  0.88744421507E+01  0.17603683452E+02  0.41800000000E+01 0. -1.
        -11    1    3    3    0    0 -0.10677338561E+03 -0.26479555261E+01 -0.38400553271E+03  0.39858225838E+03  0.00000000000E+00 0.  1.
         11    1    3    3    0    0 -0.37565363199E+02  0.49818724860E+02 -0.11180262363E+03  0.12803471604E+03  0.00000000000E+00 0. -1.
</event>
<event>
 7    1  0.4687179E-006  0.1257019E+03  0.7561462E-02  0.1233976E+00
          2   -1    0    0  501    0  0.00000000000E+00  0.00000000000E+00  0.71146975615E+03  0.71146975615E+03  0.00000000000E+00 0. -1.
         -2   -1    0    0    0  501 -0.00000000000E+00 -0.00000000000E+00 -0.35548951094E+02  0.35548951094E+02  0.00000000000E+00 0.  1.
         23    2    1    2    0    0 -0.49038970598E+02  0.62074198036E+02  0.51208921071E+03  0.52623286779E+03  0.91802204358E+02 0.  0.
          5    1    1    2  502    0  0.84724967555E+02 -0.36025983709E+02  0.65991494824E+02  0.11335140678E+03  0.41800000000E+01 0.  1.
         -5    1    1    2    0  502 -0.35685996958E+02 -0.26048214328E+02  0.97840099521E+02  0.10743443267E+03  0.41800000000E+01 0.  1.
        -11    1    3    3    0    0 -0.72836517456E+02  0.47575502909E+02  0.44766673406E+03  0.45604176513E+03  0.00000000000E+00 0. -1.
         11    1    3    3    0    0  0.23797546858E+02  0.14498695127E+02  0.64422476644E+02  0.70191102668E+02  0.00000000000E+00 0.  1.
</event>
<event>
 7    1  0.4687179E-006  0.9163781E+02  0.7561462E-02  0.1298933E+00
          2   -1    0    0  501    0  0.00000000000E+00  0.00000000000E+00  0.63066958305E+03  0.63066958305E+03  0.00000000000E+00 0. -1.
         -2   -1    0    0    0  501 -0.00000000000E+00 -0.00000000000E+00 -0.51067982143E+02  0.51067982143E+02  0.00000000000E+00 0.  1.
         23    2    1    2    0    0  0.93638970358E+01 -0.27286069520E+02  0.16827980675E+03  0.19362898043E+03  0.91333874026E+02 0.  0.
          5    1    1    2  502    0  0.21952388069E+02 -0.28845794186E+02  0.42134400058E+03  0.42292106404E+03  0.41800000000E+01 0. -1.
         -5    1    1    2    0  502 -0.31316285105E+02  0.56131863706E+02 -0.10022206427E+02  0.65187520720E+02  0.41800000000E+01 0.  1.
        -11    1    3    3    0    0  0.33213898064E+02 -0.42609724675E+02  0.55946220287E+02  0.77773589514E+02  0.00000000000E+00 0.  1.
         11    1    3    3    0    0 -0.23850001028E+02  0.15323655155E+02  0.11233358647E+03  0.11585539092E+03  0.00000000000E+00 0. -1.
</event>
<event>
 7    1  0.4687179E-006  0.1233184E+03  0.7561462E-02  0.1237721E+00
          1   -1    0    0  501    0  0.00000000000E+00  0.00000000000E+00  0.48146406294E+03  0.48146406294E+03  0.00000000000E+00 0. -1.
         -1   -1    0    0    0  501 -0.00000000000E+00 -0.00000000000E+00 -0.48653331885E+02  0.48653331885E+02  0.00000000000E+00 0.  1.
         23    2    1    2    0    0 -0.12420324901E+02 -0.92577866625E+02  0.28714969307E+03  0.31659774965E+03  0.95153891104E+02 0.  0.
          5    1    1    2  502    0  0.75183839707E+01  0.10959064835E+03  0.15731372605E+03  0.19191591155E+03  0.41800000000E+01 0. -1.
         -5    1    1    2    0  502  0.49019409302E+01 -0.17012781727E+02 -0.11652688070E+02  0.21603733618E+02  0.41800000000E+01 0. -1.
        -11    1    3    3    0    0  0.23361789737E+02 -0.75187379580E+02  0.11148200162E+03  0.13648132456E+03  0.00000000000E+00 0.  1.
         11    1    3    3    0    0 -0.35782114638E+02 -0.17390487045E+02  0.17566769145E+03  0.18011642509E+03  0.00000000000E+00 0. -1.
</event>
<event>
 7    1  0.4687179E-006  0.1144211E+03  0.7561462E-02  0.1252595E+00
          1   -1    0    0  501    0  0.00000000000E+00  0.00000000000E+00  0.36221853331E+03  0.36221853331E+03  0.00000000000E+00 0. -1.
         -1   -1    0    0    0  501 -0.00000000000E+00 -0.00000000000E+00 -0.58690065710E+02  0.58690065710E+02  0.00000000000E+00 0.  1.
         23    2    1    2    0    0 -0.51714756465E+02 -0.86354017790E+01  0.23386267115E+03  0.25639223189E+03  0.91083705544E+02 0.  0.
          5    1    1    2  502    0  0.68677661447E+02 -0.41615053005E+02  0.76366590060E+02  0.11089527626E+03  0.41800000000E+01 0. -1.
         -5    1    1    2    0  502 -0.16962904982E+02  0.50250454784E+02 -0.67007936113E+01  0.53621090873E+02  0.41800000000E+01 0.  1.
        -11    1    3    3    0    0  0.17573576975E+02  0.13860471286E+02  0.18485652699E+02  0.29028651840E+02  0.00000000000E+00 0.  1.
         11    1    3    3    0    0 -0.69288333440E+02 -0.22495873065E+02  0.21537701845E+03  0.22736358005E+03  0.00000000000E+00 0. -1.
</event>
<event>
 7    1  0.6640304E-006  0.2451235E+03  0.7561462E-02  0.1116426E+00
         -1   -1    0    0    0  501 -0.00000000000E+00  0.00000000000E+00  0.32876311008E+02  0.32876311008E+02  0.00000000000E+00 0.  1.
          1   -1    0    0  501    0  0.00000000000E+00 -0.00000000000E+00 -0.20050537108E+04  0.20050537108E+04  0.00000000000E+00 0. -1.
         23    2    1    2    0    0 -0.13969131722E+03  0.18157699789E+03 -0.11285024413E+04  0.11548005624E+04  0.86963835204E+02 0.  0.
          5    1    1    2  502    0  0.10157261009E+03 -0.59464913990E+02 -0.25766886172E+03  0.28330864057E+03  0.41800000000E+01 0. -1.
         -5    1    1    2    0  502  0.38118707125E+02 -0.12211208390E+03 -0.58600609680E+03  0.59982081888E+03  0.41800000000E+01 0. -1.
        -11    1    3    3    0    0 -0.45593972499E+02  0.12871753645E+03 -0.59119869105E+03  0.60676429263E+03  0.00000000000E+00 0.  1.
         11    1    3    3    0    0 -0.94097344717E+02  0.52859461446E+02 -0.53730375025E+03  0.54803626977E+03  0.00000000000E+00 0. -1.
</event>
<event>
 7    1  0.4687179E-006  0.7725083E+02  0.7561462E-02  0.1337039E+00
         -2   -1    0    0    0  501 -0.00000000000E+00  0.00000000000E+00  0.65735565124E+02  0.65735565124E+02  0.00000000000E+00 0.  1.
          2   -1    0    0  501    0  0.00000000000E+00 -0.00000000000E+00 -0.20952312761E+03  0.20952312761E+03  0.00000000000E+00 0. -1.
         23    2    1    2    0    0 -0.20716730862E+02 -0.35356110272E+02 -0.85436573796E+02  0.13237843125E+03  0.92441351386E+02 0.  0.
          5    1    1    2  502    0 -0.32300969404E+01  0.27804195320E+02 -0.94511949624E+02  0.98658440213E+02  0.41800000000E+01 0. -1.
         -5    1    1    2    0  502  0.23946827802E+02  0.75519149523E+01  0.36160960933E+02  0.44221821275E+02  0.41800000000E+01 0.  1.
        -11    1    3    3    0    0 -0.10827271378E+02  0.31423862136E+02 -0.33628536826E+02  0.47281787256E+02  0.00000000000E+00 0.  1.
         11    1    3    3    0    0 -0.98894594838E+01 -0.66779972408E+02 -0.51808036969E+02  0.85096643990E+02  0.00000000000E+00 0. -1.
</event>
<event>
 7    1  0.4687179E-006  0.1393354E+03  0.7561462E-02  0.1214226E+00
          1   -1    0    0  501    0  0.00000000000E+00  0.00000000000E+00  0.57331272996E+02  0.57331272996E+02  0.00000000000E+00 0. -1.
         -1   -1    0    0    0  501 -0.00000000000E+00 -0.00000000000E+00 -0.44558023149E+03  0.44558023149E+03  0.00000000000E+00 0.  1.
         23    2    1    2    0    0  0.97586724751E+02  0.60569479875E+02 -0.14465520619E+03  0.20596435947E+03  0.91128250033E+02 0.  0.
          5    1    1    2  502    0 -0.60254359102E+01  0.32415217019E+02 -0.86584973575E+02  0.92744176212E+02  0.41800000000E+01 0. -1.
         -5    1    1    2    0  502 -0.91561288841E+02 -0.92984696894E+02 -0.15700877873E+03  0.20420296881E+03  0.41800000000E+01 0. -1.
        -11    1    3    3    0    0  0.47668273397E+02  0.28449567704E+02 -0.68691746702E+01  0.55935925414E+02  0.00000000000E+00 0. -1.
         11    1    3    3    0    0  0.49918451354E+02  0.32119912171E+02 -0.13778603152E+03  0.15002843406E+03  0.00000000000E+00 0.  1.
</event>
<event>
 7    1  0.4687179E-006  0.1353924E+03  0.7561462E-02  0.1219667E+00
          1   -1    0    0  501    0  0.00000000000E+00  0.00000000000E+00  0.75345021868E+03  0.75345021868E+03  0.00000000000E+00 0. -1.
         -1   -1    0    0    0  501 -0.00000000000E+00 -0.00000000000E+00 -0.33975243099E+02  0.33975243099E+02  0.00000000000E+00 0.  1.
         23    2    1    2    0    0 -0.51314432385E+02  0.92670294709E+02  0.45990279012E+03  0.48043010276E+03  0.89897457056E+02 0.  0.
          5    1    1    2  502    0  0.73932483599E+02 -0.60402074767E+02  0.24790676142E+03  0.26568714219E+03  0.41800000000E+01 0. -1.
         -5    1    1    2    0  502 -0.22618051214E+02 -0.32268219941E+02  0.11665424030E+02  0.41308216819E+02  0.41800000000E+01 0. -1.
        -11    1    3    3    0    0 -0.46119581471E+01  0.88597254498E+02  0.24763534319E+03  0.26304753727E+03  0.00000000000E+00 0.  1.
         11    1    3    3    0    0 -0.46702474237E+02  0.40730402111E+01  0.21226744693E+03  0.21738256550E+03  0.00000000000E+00 0. -1.
</event>
<event>
 7    1  0.4687179E-006  0.1726074E+03  0.7561462E-02  0.1175156E+00
          2   -1    0    0  501    0  0.00000000000E+00  0.00000000000E+00  0.10839004638E+04  0.10839004638E+04  0.00000000000E+00 0. -1.
         -2   -1    0    0    0  501 -0.00000000000E+00 -0.00000000000E+00 -0.33570387593E+02  0.33570387593E+02  0.00000000000E+00 0.  1.
         23    2    1    2    0    0  0.16586863223E+02 -0.15158061464E+03  0.60266006095E+03  0.62828022042E+03  0.91022412342E+02 0.  0.
          5    1    1    2  502    0 -0.16306074953E+02 -0.34799176105E+00  0.44222264594E+00  0.16842717699E+02  0.41800000000E+01 0.  1.
         -5    1    1    2    0  502 -0.28078826998E+00  0.15192860640E+03  0.44722779266E+03  0.47234791332E+03  0.41800000000E+01 0.  1.
        -11    1    3    3    0    0 -0.31662936886E+02 -0.10366217563E+03  0.33397656372E+03  0.35112495403E+03  0.00000000000E+00 0.  1.
         11    1    3    3    0    0  0.48249800109E+02 -0.47918439017E+02  0.26868349722E+03  0.27715526639E+03  0.00000000000E+00 0. -1.
</event>
<event>
 7    1  0.4687179E-006  0.1121132E+03  0.7561462E-02  0.1256706E+00
          2   -1    0    0  501    0  0.00000000000E+00  0.00000000000E+00  0.10671437232E+03  0.10671437232E+03  0.00000000000E+00 0. -1.
         -2   -1    0    0    0  501 -0.00000000000E+00 -0.00000000000E+00 -0.13805479260E+03  0.13805479260E+03  0.00000000000E+00 0.  1.
         23    2    1    2    0    0 -0.23418858464E+02 -0.25161932493E+02 -0.18969777518E+01  0.11174594498E+03  0.10631082690E+03 0.  0.
          5    1    1    2  502    0  0.22658675446E+02  0.74971255678E+02 -0.87474028241E+01  0.78918275495E+02  0.41800000000E+01 0.  1.
         -5    1    1    2    0  502  0.76018301828E+00 -0.49809323185E+02 -0.20696039697E+02  0.54104944446E+02  0.41800000000E+01 0.  1.
        -11    1    3    3    0    0 -0.53334200984E+02  0.46929719149E+01  0.27571801070E+02  0.60222630250E+02  0.00000000000E+00 0. -1.
         11    1    3    3    0    0  0.29915342520E+02 -0.29854904407E+02 -0.29468778821E+02  0.51523314727E+02  0.00000000000E+00 0.  1.
</event>
<event>
 7    1  0.4687179E-006  0.1191650E+03  0.7561462E-02  0.1244481E+00
         -2   -1    0    0    0  501 -0.00000000000E+00  0.00000000000E+00  0.34465763841E+02  0.34465763841E+02  0.00000000000E+00 0.  1.
          2   -1    0    0  501    0  0.00000000000E+00 -0.00000000000E+00 -0.52034933870E+03  0.52034933870E+03  0.00000000000E+00 0. -1.
         23    2    1    2    0    0  0.69164386674E+02  0.34781973832E+02 -0.20630928550E+03  0.23889864185E+03  0.92279692823E+02 0.  0.
          5    1    1    2  502    0  0.23411798487E+02 -0.15072258387E+02 -0.16434032694E+03  0.16673482161E+03  0.41800000000E+01 0.  1.
         -5    1    1    2    0  502 -0.92576185161E+02 -0.19709715446E+02 -0.11523396243E+03  0.14918163908E+03  0.41800000000E+01 0.  1.
        -11    1    3    3    0    0  0.66438480638E+02  0.60326857309E+02 -0.18462776821E+03  0.20528227935E+03  0.00000000000E+00 0. -1.
         11    1    3    3    0    0  0.27259060355E+01 -0.25544883477E+02 -0.21681517286E+02  0.33616362495E+02  0.00000000000E+00 0.  1.
</event>
<event>
 7    1  0.4687179E-006  0.1204533E+03  0.7561462E-02  0.1242351E+00
         -2   -1    0    0    0  501 -0.00000000000E+00  0.00000000000E+00  0.33616323515E+02  0.33616323515E+02  0.00000000000E+00 0. -1.
          2   -1    0    0  501    0  0.00000000000E+00 -0.00000000000E+00 -0.53503661577E+03  0.53503661577E+03  0.00000000000E+00 0.  1.
         23    2    1    2    0    0 -0.74631563913E+02  0.93834899313E+01 -0.27986214532E+03  0.30333585100E+03  0.89620856430E+02 0.  0.
          5    1    1    2  502    0  0.35368267964E+02  0.51888805771E+02 -0.55290049842E+02  0.83772457017E+02  0.41800000000E+01 0. -1.
         -5    1    1    2    0  502  0.39263295949E+02 -0.61272295702E+02 -0.16626809710E+03  0.18154463127E+03  0.41800000000E+01 0. -1.
        -11    1    3    3    0    0 -0.25210020240E+02 -0.31916667482E+02 -0.17976021663E+03  0.18430397247E+03  0.00000000000E+00 0.  1.
         11    1    3    3    0    0 -0.49421543673E+02  0.41300157413E+02 -0.10010192869E+03  0.11903187854E+03  0.00000000000E+00 0. -1.
</event>
<event>
 7    1  0.4687179E-006  0.1476999E+03  0.7561462E-02  0.1203328E+00
          2   -1    0    0  501    0  0.00000000000E+00  0.00000000000E+00  0.34850157116E+03  0.34850157116E+03  0.00000000000E+00 0. -1.
         -2   -1    0    0    0  501 -0.00000000000E+00 -0.00000000000E+00 -0.72245894338E+02  0.72245894338E+02  0.00000000000E+00 0.  1.
         23    2    1    2    0    0 -0.11351999269E+03 -0.70825738459E+01  0.85634633280E+02  0.16597661476E+03  0.85311163610E+02 0.  0.
          5    1    1    2  502    0  0.13379443510E+02 -0.50364791346E+02  0.45689261930E+02  0.69430560790E+02  0.41800000000E+01 0.  1.
         -5    1    1    2    0  502  0.10014054918E+03  0.57447365192E+02  0.14493178161E+03  0.18534028995E+03  0.41800000000E+01 0.  1.
        -11    1    3    3    0    0 -0.11411767222E+01 -0.14902539424E+02 -0.10184798963E+02  0.18086406374E+02  0.00000000000E+00 0.  1.
         11    1    3    3    0    0 -0.11237881597E+03  0.78199655783E+01  0.95819432244E+02  0.14789020838E+03  0.00000000000E+00 0. -1.
</event>
<event>
 7    1  0.4687179E-006  0.9713024E+02  0.7561462E-02  0.1286449E+00
         -2   -1    0    0    0  501 -0.00000000000E+00  0.00000000000E+00  0.25248868238E+03  0.25248868238E+03  0.00000000000E+00 0.  1.
          2   -1    0    0  501    0  0.00000000000E+00 -0.00000000000E+00 -0.46456685710E+02  0.46456685710E+02  0.00000000000E+00 0. -1.
         23    2    1    2    0    0  0.13477610305E+02  0.72574550519E+01  0.76630203490E+02  0.11832156496E+03  0.88845303844E+02 0.  0.
          5    1    1    2  502    0 -0.50060531643E+02  0.33205641515E+02  0.10429121029E+03  0.12042757326E+03  0.41800000000E+01 0. -1.
         -5    1    1    2    0  502  0.36582921338E+02 -0.40463096567E+02  0.25110582890E+02  0.60196229869E+02  0.41800000000E+01 0. -1.
        -11    1    3    3    0    0 -0.27788707503E+02 -0.15898357538E+02  0.48977737989E+01  0.32387624570E+02  0.00000000000E+00 0. -1.
         11    1    3    3    0    0  0.41266317809E+02  0.23155812590E+02  0.71732429691E+02  0.85933940394E+02  0.00000000000E+00 0.  1.
</event>
<event>
 7    1  0.4687179E-006  0.1812296E+03  0.7561462E-02  0.1166618E+00
         -1   -1    0    0    0  501 -0.00000000000E+00  0.00000000000E+00  0.30428931202E+02  0.30428931202E+02  0.00000000000E+00 0.  1.
          1   -1    0    0  501    0  0.00000000000E+00 -0.00000000000E+00 -0.11789122461E+04  0.11789122461E+04  0.00000000000E+00 0. -1.
         23    2    1    2    0    0  0.80136594937E+02 -0.12383795321E+03 -0.69590419022E+03  0.71717313413E+03  0.91087594355E+02 0.  0.
          5    1    1    2  502    0 -0.80168288948E+02  0.15373535695E+02 -0.23898214186E+03  0.25257323033E+03  0.41800000000E+01 0. -1.
         -5    1    1    2    0  502  0.31694011926E-01  0.10846441751E+03 -0.21359698280E+03  0.23959481282E+03  0.41800000000E+01 0. -1.
        -11    1    3    3    0    0  0.51643467138E+02 -0.72390228274E+01 -0.17413357301E+03  0.18177445474E+03  0.00000000000E+00 0.  1.
         11    1    3    3    0    0  0.28493127798E+02 -0.11659893038E+03 -0.52177061721E+03  0.53539867938E+03  0.00000000000E+00 0. -1.
</event>
<event>
 7    1  0.4687179E-006  0.1170795E+03  0.7561462E-02  0.1247994E+00
         -2   -1    0    0    0  501 -0.00000000000E+00  0.00000000000E+00  0.32759078270E+02  0.32759078270E+02  0.00000000000E+00 0.  1.
          2   -1    0    0  501    0  0.00000000000E+00 -0.00000000000E+00 -0.59490370268E+03  0.59490370268E+03  0.00000000000E+00 0. -1.
         23    2    1    2    0    0 -0.54356241292E+02  0.70028943828E+02 -0.23265265580E+03  0.26424647856E+03  0.88545407781E+02 0.  0.
          5    1    1    2  502    0  0.78085120211E+02 -0.78250095500E+01 -0.11900653158E+03  0.14261326632E+03  0.41800000000E+01 0.  1.
         -5    1    1    2    0  502 -0.23728878919E+02 -0.62203934278E+02 -0.21048543702E+03  0.22080303606E+03  0.41800000000E+01 0.  1.
        -11    1    3    3    0    0 -0.11097897984E+02  0.10501071221E+02  0.45098768967E+01  0.15930311550E+02  0.00000000000E+00 0.  1.
         11    1    3    3    0    0 -0.43258343308E+02  0.59527872607E+02 -0.23716253270E+03  0.24831616701E+03  0.00000000000E+00 0. -1.
</event>
<event>
 7    1  0.4687179E-006  0.1468421E+03  0.7561462E-02  0.1204408E+00
          1   -1    0    0  501    0  0.00000000000E+00  0.00000000000E+00  0.15643703869E+03  0.15643703869E+03  0.00000000000E+00 0. -1.
         -1   -1    0    0    0  501 -0.00000000000E+00 -0.00000000000E+00 -0.18431028884E+03  0.18431028884E+03  0.00000000000E+00 0.  1.
         23    2    1    2    0    0  0.81895033002E+02  0.85683421020E+02  0.43072099196E+02  0.15438805256E+03  0.89061888457E+02 0.  0.
          5    1    1    2  502    0 -0.90460889256E+02 -0.37507431453E+02  0.24512674149E+01  0.98048258582E+02  0.41800000000E+01 0. -1.
         -5    1    1    2    0  502  0.85658562532E+01 -0.48175989567E+02 -0.73396616760E+02  0.88311016390E+02  0.41800000000E+01 0. -1.
        -11    1    3    3    0    0  0.63423983363E+02  0.48159748058E+01  0.30319988785E+02  0.70463444416E+02  0.00000000000E+00 0.  1.
         11    1    3    3    0    0  0.18471049639E+02  0.80867446214E+02  0.12752110411E+02  0.83924608142E+02  0.00000000000E+00 0. -1.
</event>
<event>
 7    1  0.4687179E-006  0.1591984E+03  0.7561462E-02  0.1189605E+00
          1   -1    0    0  501    0  0.00000000000E+00  0.00000000000E+00  0.83209346500E+03  0.83209346500E+03  0.00000000000E+00 0. -1.
         -1   -1    0    0    0  501 -0.00000000000E+00 -0.00000000000E+00 -0.39662573603E+02  0.39662573603E+02  0.00000000000E+00 0.  1.
         23    2    1    2    0    0 -0.14404111542E+03  0.17216707842E+02  0.39158086704E+03  0.42749022593E+03  0.91477100256E+02 0.  0.
          5    1    1    2  502    0  0.55604902903E+02  0.62708612149E+01  0.32816106846E+02  0.65004601342E+02  0.41800000000E+01 0.  1.
         -5    1    1    2    0  502  0.88436212514E+02 -0.23487569057E+02  0.36803391752E+03  0.37926121134E+03  0.41800000000E+01 0.  1.
        -11    1    3    3    0    0 -0.21050693335E+02  0.40376117272E+02  0.86903356578E+02  0.98109917543E+02  0.00000000000E+00 0.  1.
         11    1    3    3    0    0 -0.12299042208E+03 -0.23159409430E+02  0.30467751046E+03  0.32938030838E+03  0.00000000000E+00 0. -1.
</event>
<event>
 7    1  0.4687179E-006  0.1464315E+03  0.7561462E-02  0.1204928E+00
         -2   -1    0    0    0  501 -0.00000000000E+00  0.00000000000E+00  0.63565890824E+03  0.63565890824E+03  0.00000000000E+00 0. -1.
          2   -1    0    0  501    0  0.00000000000E+00 -0.00000000000E+00 -0.43495795647E+02  0.43495795647E+02  0.00000000000E+00 0.  1.
         23    2    1    2    0    0 -0.10989040681E+03 -0.36031307890E+02  0.17400003590E+03  0.22762092546E+03  0.90338898369E+02 0.  0.
          5    1    1    2  502    0  0.31810498941E+02 -0.41960829938E+02  0.20201033889E+03  0.20880198397E+03  0.41800000000E+01 0. -1.
         -5    1    1    2    0  502  0.78079907873E+02  0.77992137829E+02  0.21615273780E+03  0.24273179445E+03  0.41800000000E+01 0. -1.
        -11    1    3    3    0    0 -0.37488497283E+02  0.15674825076E+02  0.11209834967E+03  0.11923559690E+03  0.00000000000E+00 0. -1.
         11    1    3    3    0    0 -0.72401909531E+02 -0.51706132966E+02  0.61901686230E+02  0.10838532857E+03  0.00000000000E+00 0.  1.
</event>
<event>
 7    1  0.4687179E-006  0.9121966E+02  0.7561462E-02  0.1299925E+00
         -1   -1    0    0    0  501 -0.00000000000E+00  0.00000000000E+00  0.77045074633E+03  0.77045074633E+03  0.00000000000E+00 0.  1.
          1   -1    0    0  501    0  0.00000000000E+00 -0.00000000000E+00 -0.43147293199E+02  0.43147293199E+02  0.00000000000E+00 0. -1.
         23    2    1    2    0    0 -0.48824087060E+02  0.59970290553E+01  0.23895934867E+02  0.97463707311E+02  0.80674672016E+02 0.  0.
          5    1    1    2  502    0  0.81713740617E+02 -0.34483418270E+02  0.41133018627E+03  0.42080427289E+03  0.41800000000E+01 0. -1.
         -5    1    1    2    0  502 -0.32889653556E+02  0.28486389214E+02  0.29207733199E+03  0.29533005933E+03  0.41800000000E+01 0. -1.
        -11    1    3    3    0    0 -0.35613541806E+02  0.46737795945E+00  0.53676721585E+02  0.64418423159E+02  0.00000000000E+00 0.  1.
         11    1    3    3    0    0 -0.13210545255E+02  0.55296510959E+01 -0.29780786718E+02  0.33045284153E+02  0.00000000000E+00 0. -1.
</event>
<event>
 7    1  0.4687179E-006  0.8525869E+02  0.7561462E-02  0.1314757E+00
         -1   -1    0    0    0  501 -0.00000000000E+00  0.00000000000E+00  0.19062100669E+02  0.19062100669E+02  0.00000000000E+00 0.  1.
          1   -1    0    0  501    0  0.00000000000E+00 -0.00000000000E+00 -0.73083174019E+03  0.73083174019E+03  0.00000000000E+00 0. -1.
         23    2    1    2    0    0  0.23932471857E+02  0.40875880901E+02 -0.30728851423E+03  0.32387385888E+03  0.90688723881E+02 0.  0.
          5    1    1    2  502    0  0.54938025651E+01  0.10941714626E+02 -0.33130436871E+03  0.33155687311E+03  0.41800000000E+01 0. -1.
         -5    1    1    2    0  502 -0.29426274422E+02 -0.51817595527E+02 -0.73176756591E+02  0.94463108872E+02  0.41800000000E+01 0. -1.
        -11    1    3    3    0    0 -0.15138401247E+02  0.54424168846E+02 -0.12856165234E+03  0.14042528190E+03  0.00000000000E+00 0.  1.
         11    1    3    3    0    0  0.39070873104E+02 -0.13548287945E+02 -0.17872686189E+03  0.18344857697E+03  0.00000000000E+00 0. -1.
</event>
<event>
 7    1  0.4687179E-006  0.1092577E+03  0.7561462E-02  0.1261951E+00
          1   -1    0    0  501    0  0.00000000000E+00  0.00000000000E+00  0.16311381176E+03  0.16311381176E+03  0.00000000000E+00 0. -1.
         -1   -1    0    0    0  501 -0.00000000000E+00 -0.00000000000E+00 -0.11384470759E+03  0.11384470759E+03  0.00000000000E+00 0.  1.
         23    2    1    2    0    0  0.23615474559E+02 -0.57309497613E+02  0.45700297533E+02  0.12449453672E+03  0.97817704548E+02 0.  0.
          5    1    1    2  502    0  0.55504397950E+02  0.45449615958E+02 -0.41512181095E+01  0.71979933275E+02  0.41800000000E+01 0. -1.
         -5    1    1    2    0  502 -0.79119872509E+02  0.11859881655E+02  0.77200247408E+01  0.80484049356E+02  0.41800000000E+01 0.  1.
        -11    1    3    3    0    0  0.26588268452E+02 -0.34584358086E+02  0.75321447139E+02  0.87042140614E+02  0.00000000000E+00 0. -1.
         11    1    3    3    0    0 -0.29727938928E+01 -0.22725139526E+02 -0.29621149606E+02  0.37452396105E+02  0.00000000000E+00 0.  1.
</event>
<event>
 7    1  0.4687179E-006  0.1115107E+03  0.7561462E-02  0.1257798E+00
         -1   -1    0    0    0  501 -0.00000000000E+00  0.00000000000E+00  0.18120806965E+02  0.18120806965E+02  0.00000000000E+00 0.  1.
          1   -1    0    0  501    0  0.00000000000E+00 -0.00000000000E+00 -0.83239763933E+03  0.83239763933E+03  0.00000000000E+00 0. -1.
         23    2    1    2    0    0 -0.19817514728E+01  0.39842373363E+02 -0.48359884348E+03  0.49472670151E+03  0.96412269513E+02 0.  0.
          5    1    1    2  502    0 -0.41218688854E+01  0.40100159921E+02 -0.52873465854E+02  0.66618979430E+02  0.41800000000E+01 0. -1.
         -5    1    1    2    0  502  0.61036203582E+01 -0.79942533285E+02 -0.27780452303E+03  0.28917276535E+03  0.41800000000E+01 0. -1.
        -11    1    3    3    0    0  0.18177510517E+02 -0.26913158539E+02 -0.11078043951E+03  0.11544282468E+03  0.00000000000E+00 0.  1.
         11    1    3    3    0    0 -0.20159261990E+02  0.66755531902E+02 -0.37281840397E+03  0.37928387683E+03  0.00000000000E+00 0. -1.
</event>
<event>
 7    1  0.4687179E-006  0.1002881E+03  0.7561462E-02  0.1279691E+00
          1   -1    0    0  501    0  0.00000000000E+00  0.00000000000E+00  0.11606213536E+03  0.11606213536E+03  0.00000000000E+00 0. -1.
         -1   -1    0    0    0  501 -0.00000000000E+00 -0.00000000000E+00 -0.28773477934E+03  0.28773477934E+03  0.00000000000E+00 0.  1.
         23    2    1    2    0    0 -0.40605611123E+02  0.57168982978E+02  0.61096923620E+02  0.13039772290E+03  0.91398160775E+02 0.  0.
          5    1    1    2  502    0  0.31021294891E+02 -0.23490742869E+01 -0.21127605416E+03  0.21359513653E+03  0.41800000000E+01 0.  1.
         -5    1    1    2    0  502  0.95843162320E+01 -0.54819908691E+02 -0.21493513441E+02  0.59804055269E+02  0.41800000000E+01 0.  1.
        -11    1    3    3    0    0  0.85734233298E+01 -0.20062816094E+02  0.31578722715E+01  0.22045233827E+02  0.00000000000E+00 0.  1.
         11    1    3    3    0    0 -0.49179034453E+02  0.77231799072E+02  0.57939051349E+02  0.10835248908E+03  0.00000000000E+00 0. -1.
</event>
<event>
 7    1  0.4687179E-006  0.8797019E+02  0.7561462E-02  0.1307843E+00
          1   -1    0    0  501    0  0.00000000000E+00  0.00000000000E+00  0.35567995122E+02  0.35567995122E+02  0.00000000000E+00 0. -1.
         -1   -1    0    0    0  501 -0.00000000000E+00 -0.00000000000E+00 -0.62046986935E+03  0.62046986935E+03  0.00000000000E+00 0.  1.
         23    2    1    2    0    0  0.12452280878E+02 -0.46296722293E+02 -0.43897394074E+02  0.98695485824E+02  0.74265550032E+02 0.  0.
          5    1    1    2  502    0 -0.47985666422E+02  0.15604313805E+01 -0.84653813402E+02  0.97410469927E+02  0.41800000000E+01 0.  1.
         -5    1    1    2    0  502  0.35533385544E+02  0.44736290913E+02 -0.45635066675E+03  0.45993190872E+03  0.41800000000E+01 0.  1.
        -11    1    3    3    0    0  0.21723933393E+02  0.15005993799E+01  0.11759406893E+02  0.24748024791E+02  0.00000000000E+00 0. -1.
         11    1    3    3    0    0 -0.92716525155E+01 -0.47797321673E+02 -0.55656800966E+02  0.73947461033E+02  0.00000000000E+00 0.  1.
</event>
<event>
 7    1  0.4687179E-006  0.9789855E+02  0.7561462E-02  0.1284778E+00
          2   -1    0    0  501    0  0.00000000000E+00  0.00000000000E+00  0.61109949814E+03  0.61109949814E+03  0.00000000000E+00 0. -1.
         -2   -1    0    0    0  501 -0.00000000000E+00 -0.00000000000E+00 -0.25111044938E+02  0.25111044938E+02  0.00000000000E+00 0.  1.
         23    2    1    2    0    0 -0.48309772955E+02  0.27734229643E+02  0.27740381258E+03  0.29860612436E+03  0.95444856388E+02 0.  0.
          5    1    1    2  502    0  0.22198108455E+02  0.25082039362E+02  0.25692942581E+03  0.25913715860E+03  0.41800000000E+01 0. -1.
         -5    1    1    2    0  502  0.26111664500E+02 -0.52816269005E+02  0.51655214802E+02  0.78467260121E+02  0.41800000000E+01 0. -1.
        -11    1    3    3    0    0 -0.62137772617E+02 -0.98642351287E+01  0.11241752067E+03  0.12882587036E+03  0.00000000000E+00 0.  1.
         11    1    3    3    0    0  0.13827999662E+02  0.37598464772E+02  0.16498629192E+03  0.16978025400E+03  0.00000000000E+00 0. -1.
</event>
<event>
 7    1  0.4687179E-006  0.7415586E+02  0.7561462E-02  0.1346505E+00
          1   -1    0    0  501    0  0.00000000000E+00  0.00000000000E+00  0.44307189010E+02  0.44307189010E+02  0.00000000000E+00 0. -1.
         -1   -1    0    0    0  501 -0.00000000000E+00 -0.00000000000E+00 -0.35182337838E+03  0.35182337838E+03  0.00000000000E+00 0.  1.
         23    2    1    2    0    0 -0.27461785784E+02 -0.40736799267E+02 -0.75268346842E+02  0.12780208040E+03  0.90853790377E+02 0.  0.
          5    1    1    2  502    0  0.44083047192E+02  0.87610983045E+00 -0.21830767392E+03  0.22275501231E+03  0.41800000000E+01 0.  1.
         -5    1    1    2    0  502 -0.16621261407E+02  0.39860689437E+02 -0.13940168610E+02  0.45573474676E+02  0.41800000000E+01 0.  1.
        -11    1    3    3    0    0 -0.28204337793E+02 -0.10056009269E+02  0.14255700693E+02  0.33163730113E+02  0.00000000000E+00 0. -1.
         11    1    3    3    0    0  0.74255200868E+00 -0.30680789998E+02 -0.89524047535E+02  0.94638350289E+02  0.00000000000E+00 0.  1.
</event>
<event>
 7    1  0.4687179E-006  0.8242299E+02  0.7561462E-02  0.1322313E+00
         -1   -1    0    0    0  501 -0.00000000000E+00  0.00000000000E+00  0.20880938554E+03  0.20880938554E+03  0.00000000000E+00 0.  1.
          1   -1    0    0  501    0  0.00000000000E+00 -0.00000000000E+00 -0.72980410272E+02  0.72980410272E+02  0.00000000000E+00 0. -1.
         23    2    1    2    0    0 -0.52317861788E+02 -0.27654955301E+02  0.52620371519E+02  0.12031434112E+03  0.90579699523E+02 0.  0.
          5    1    1    2  502    0  0.68140515063E+02  0.39735505604E+02  0.33442390242E+01  0.79061346645E+02  0.41800000000E+01 0. -1.
         -5    1    1    2    0  502 -0.15822653276E+02 -0.12080550303E+02  0.79864364729E+02  0.82414108051E+02  0.41800000000E+01 0. -1.
        -11    1    3    3    0    0 -0.25895719057E+02  0.17835946620E+01  0.71803531839E+02  0.76351271502E+02  0.00000000000E+00 0. -1.
         11    1    3    3    0    0 -0.26422142730E+02 -0.29438549963E+02 -0.19183160320E+02  0.43963069618E+02  0.00000000000E+00 0.  1.
</event>
<event>
 7    1  0.4687179E-006  0.1276626E+03  0.7561462E-02  0.1230966E+00
         -2   -1    0    0    0  501 -0.00000000000E+00  0.00000000000E+00  0.41109930681E+02  0.41109930681E+02  0.00000000000E+00 0.  1.
          2   -1    0    0  501    0  0.00000000000E+00 -0.00000000000E+00 -0.54815525995E+03  0.54815525995E+03  0.00000000000E+00 0. -1.
         23    2    1    2    0    0 -0.31371693484E+02 -0.93020616292E+02 -0.29576372554E+03  0.32483126915E+03  0.91663263435E+02 0.  0.
          5    1    1    2  502    0 -0.18207983268E+02  0.98661643009E+02 -0.17780433091E+03  0.20419966441E+03  0.41800000000E+01 0.  1.
         -5    1    1    2    0  502  0.49579676752E+02 -0.56410267170E+01 -0.33477272815E+02  0.60234257067E+02  0.41800000000E+01 0.  1.
        -11    1    3    3    0    0 -0.38393926347E+02 -0.61172236424E+02 -0.27893218529E+03  0.28813069965E+03  0.00000000000E+00 0. -1.
         11    1    3    3    0    0  0.70222328630E+01 -0.31848379868E+02 -0.16831540257E+02  0.36700569505E+02  0.00000000000E+00 0.  1.
</event>
<event>
 7    1  0.4687179E-006  0.1503602E+03  0.7561462E-02  0.1200031E+00
          3   -1    0    0  501    0  0.00000000000E+00  0.00000000000E+00  0.90687511536E+03  0.90687511536E+03  0.00000000000E+00 0. -1.
         -3   -1    0    0    0  501 -0.00000000000E+00 -0.00000000000E+00 -0.34715170297E+02  0.34715170297E+02  0.00000000000E+00 0.  1.
         23    2    1    2    0    0 -0.62370513587E+02 -0.11412532731E+03  0.54548532429E+03  0.56838996383E+03  0.92726698793E+02 0.  0.
          5    1    1    2  502    0  0.19243418657E+02  0.88554478804E+02  0.78466602979E+02  0.11994450826E+03  0.41800000000E+01 0. -1.
         -5    1    1    2    0  502  0.43127094930E+02  0.25570848503E+02  0.24820801780E+03  0.25325581358E+03  0.41800000000E+01 0. -1.
        -11    1    3    3    0    0 -0.54759448003E+02 -0.10463514577E+02  0.19627314040E+03  0.20403731994E+03  0.00000000000E+00 0.  1.
         11    1    3    3    0    0 -0.76110655843E+01 -0.10366181273E+03  0.34921218388E+03  0.36435264389E+03  0.00000000000E+00 0. -1.
</event>
<event>
 7    1  0.4687179E-006  0.8625609E+02  0.7561462E-02  0.1312180E+00
          2   -1    0    0  501    0  0.00000000000E+00  0.00000000000E+00  0.22372832279E+03  0.22372832279E+03  0.00000000000E+00 0. -1.
         -2   -1    0    0    0  501 -0.00000000000E+00 -0.00000000000E+00 -0.63116302890E+02  0.63116302890E+02  0.00000000000E+00 0.  1.
         23    2    1    2    0    0 -0.17822593684E+02 -0.38477213481E+02  0.99368538792E+02  0.14124945661E+03  0.90989898829E+02 0.  0.
          5    1    1    2  502    0 -0.41031895501E+02 -0.79172623307E+01  0.56483720234E+02  0.70385954158E+02  0.41800000000E+01 0.  1.
         -5    1    1    2    0  502  0.58854489184E+02  0.46394475812E+02  0.47597608698E+01  0.75209214905E+02  0.41800000000E+01 0.  1.
        -11    1    3    3    0    0  0.10985284463E+02 -0.12783961567E+02  0.10121059157E+03  0.10260453203E+03  0.00000000000E+00 0. -1.
         11    1    3    3    0    0 -0.28807878147E+02 -0.25693251914E+02 -0.18420527773E+01  0.38644924579E+02  0.00000000000E+00 0.  1.
</event>
<event>
 7    1  0.4687179E-006  0.4341990E+02  0.7561462E-02  0.1484454E+00
         -2   -1    0    0    0  501 -0.00000000000E+00  0.00000000000E+00  0.12159902261E+03  0.12159902261E+03  0.00000000000E+00 0. -1.
          2   -1    0    0  501    0  0.00000000000E+00 -0.00000000000E+00 -0.10200428903E+03  0.10200428903E+03  0.00000000000E+00 0.  1.
         23    2    1    2    0    0  0.39506621085E+01 -0.23932449807E+02 -0.87070530833E+01  0.93075396428E+02  0.89436272071E+02 0.  0.
          5    1    1    2  502    0  0.66969195335E-01  0.62327112457E+01  0.77530920015E+02  0.77893306085E+02  0.41800000000E+01 0.  1.
         -5    1    1    2    0  502 -0.40176313039E+01  0.17699738561E+02 -0.49229133353E+02  0.52634609119E+02  0.41800000000E+01 0.  1.
        -11    1    3    3    0    0 -0.15479909805E+02 -0.35055162687E+02 -0.39480028628E+02  0.55019675563E+02  0.00000000000E+00 0.  1.
         11    1    3    3    0    0  0.19430571914E+02  0.11122712881E+02  0.30772975544E+02  0.38055720865E+02  0.00000000000E+00 0. -1.
</event>
<event>
 7    1  0.4687179E-006  0.1001521E+03  0.7561462E-02  0.1279976E+00
         -3   -1    0    0    0  501 -0.00000000000E+00  0.00000000000E+00  0.18732541555E+03  0.18732541555E+03  0.00000000000E+00 0.  1.
          3   -1    0    0  501    0  0.00000000000E+00 -0.00000000000E+00 -0.70004677759E+02  0.70004677759E+02  0.00000000000E+00 0. -1.
         23    2    1    2    0    0  0.31917584385E+02  0.18604082502E+01  0.43096522062E+02  0.10840000227E+03  0.94186288630E+02 0.  0.
          5    1    1    2  502    0 -0.45840764443E+02  0.41947413327E+02  0.81111806928E+02  0.10226220608E+03  0.41800000000E+01 0.  1.
         -5    1    1    2    0  502  0.13923180058E+02 -0.43807821577E+02 -0.68875911987E+01  0.46667884961E+02  0.41800000000E+01 0.  1.
        -11    1    3    3    0    0  0.56517780003E+02  0.21421151426E+02  0.74847998409E+01  0.60902770163E+02  0.00000000000E+00 0. -1.
         11    1    3    3    0    0 -0.24600195618E+02 -0.19560743176E+02  0.35611722221E+02  0.47497232104E+02  0.00000000000E+00 0.  1.
</event>
<event>
 7    1  0.4687179E-006  0.1107246E+03  0.7561462E-02  0.1259234E+00
          2   -1    0    0  501    0  0.00000000000E+00  0.00000000000E+00  0.59002569930E+03  0.59002569930E+03  0.00000000000E+00 0. -1.
         -2   -1    0    0    0  501 -0.00000000000E+00 -0.00000000000E+00 -0.24964947972E+02  0.24964947972E+02  0.00000000000E+00 0.  1.
         23    2    1    2    0    0 -0.50551296326E+02  0.14313986555E+02  0.27139646521E+03  0.29149673044E+03  0.92487722214E+02 0.  0.
          5    1    1    2  502    0 -0.29895876630E+02  0.21466930601E+02  0.38022524208E+02  0.53082740096E+02  0.41800000000E+01 0. -1.
         -5    1    1    2    0  502  0.80447172956E+02 -0.35780917156E+02  0.25564176191E+03  0.27041117673E+03  0.41800000000E+01 0. -1.
        -11    1    3    3    0    0 -0.72521879602E+02  0.59915433899E+01  0.13763698214E+03  0.15568962864E+03  0.00000000000E+00 0.  1.
         11    1    3    3    0    0  0.21970583276E+02  0.83224431651E+01  0.13375948307E+03  0.13580710181E+03  0.00000000000E+00 0. -1.
</event>
<event>
 7    1  0.4687179E-006  0.1311472E+03  0.7561462E-02  0.1225763E+00
         -1   -1    0    0    0  501 -0.00000000000E+00  0.00000000000E+00  0.14186780381E+03  0.14186780381E+03  0.00000000000E+00 0.  1.
          1   -1    0    0  501    0  0.00000000000E+00 -0.00000000000E+00 -0.17549458391E+03  0.17549458391E+03  0.00000000000E+00 0. -1.
         23    2    1    2    0    0 -0.16253541474E+02  0.70547939919E+02 -0.10270473777E+03  0.15717327940E+03  0.94413914009E+02 0.  0.
          5    1    1    2  502    0  0.29826573295E+02 -0.10369557883E+03  0.45971288553E+02  0.11735940233E+03  0.41800000000E+01 0. -1.
         -5    1    1    2    0  502 -0.13573031821E+02  0.33147638909E+02  0.23106669123E+02  0.42829706000E+02  0.41800000000E+01 0. -1.
        -11    1    3    3    0    0 -0.38514479955E+02 -0.55973040645E+01 -0.25873778064E+02  0.46734862472E+02  0.00000000000E+00 0.  1.
         11    1    3    3    0    0  0.22260938480E+02  0.76145243984E+02 -0.76830959707E+02  0.11043841692E+03  0.00000000000E+00 0. -1.
</event>
<event>
 7    1  0.4687179E-006  0.8002189E+02  0.7561462E-02  0.1328989E+00
         -4   -1    0    0    0  501 -0.00000000000E+00  0.00000000000E+00  0.17517878783E+03  0.17517878783E+03  0.00000000000E+00 0.  1.
          4   -1    0    0  501    0  0.00000000000E+00 -0.00000000000E+00 -0.78262265248E+02  0.78262265248E+02  0.00000000000E+00 0. -1.
         23    2    1    2    0    0  0.15855958507E+02  0.30695645351E+02  0.38007483306E+02  0.11093321756E+03  0.98325865910E+02 0.  0.
          5    1    1    2  502    0  0.12370846834E+02 -0.22706762768E+02  0.93419005418E+02  0.97021739317E+02  0.41800000000E+01 0. -1.
         -5    1    1    2    0  502 -0.28226805341E+02 -0.79888825835E+01 -0.34509966142E+02  0.45486096203E+02  0.41800000000E+01 0. -1.
        -11    1    3    3    0    0 -0.41163999274E+02  0.21568958372E+02  0.16735043904E+02  0.49393891282E+02  0.00000000000E+00 0.  1.
         11    1    3    3    0    0  0.57019957781E+02  0.91266869788E+01  0.21272439402E+02  0.61539326277E+02  0.00000000000E+00 0. -1.
</event>
<event>
 7    1  0.4687179E-006  0.1565819E+03  0.7561462E-02  0.1192611E+00
          2   -1    0    0  501    0  0.00000000000E+00  0.00000000000E+00  0.58375136369E+02  0.58375136369E+02  0.00000000000E+00 0. -1.
         -2   -1    0    0    0  501 -0.00000000000E+00 -0.00000000000E+00 -0.45253664276E+03  0.45253664276E+03  0.00000000000E+00 0.  1.
         23    2    1    2    0    0  0.78855601610E+02 -0.83185318875E+02 -0.12654916242E+03  0.19404907285E+03  0.92208182835E+02 0.  0.
          5    1    1    2  502    0  0.29875311820E+02  0.16863877844E+01 -0.27096269738E+02  0.40583967202E+02  0.41800000000E+01 0.  1.
         -5    1    1    2    0  502 -0.10873091343E+03  0.81498931090E+02 -0.24051607424E+03  0.27627873908E+03  0.41800000000E+01 0.  1.
        -11    1    3    3    0    0 -0.36465460280E+01 -0.61620132376E+02 -0.49542437103E+02  0.79150433265E+02  0.00000000000E+00 0. -1.
         11    1    3    3    0    0  0.82502147638E+02 -0.21565186499E+02 -0.77006725319E+02  0.11489863958E+03  0.00000000000E+00 0.  1.
</event>
<event>
 6    1  0.4687179E-006  0.1024349E+03  0.7561462E-02  0.1275257E+00
          2   -1    0    0  501    0  0.00000000000E+00  0.00000000000E+00  0.30774922590E+03  0.30774922590E+03  0.00000000000E+00 0. -1.
         -2   -1    0    0    0  501 -0.00000000000E+00 -0.00000000000E+00 -0.70885920012E+02  0.70885920012E+02  0.00000000000E+00 0.  1.
          5    1    1    2  502    0 -0.41673061606E+02 -0.83030485118E+02  0.12512952627E+03  0.15590245754E+03  0.41800000000E+01 0. -1.
         -5    1    1    2    0  502  0.22180846772E+02  0.51865884427E+02 -0.34011029212E+02  0.66002139655E+02  0.41800000000E+01 0.  1.
        -11    1    1    2    0    0  0.19368177742E+02 -0.43042744467E+01  0.32664950464E+02  0.38218478206E+02  0.00000000000E+00 0.  1.
         11    1    1    2    0    0  0.12403709136E+00  0.35468875138E+02  0.11307985836E+03  0.11851207051E+03  0.00000000000E+00 0. -1.
</event>
<event>
 7    1  0.4687179E-006  0.1066112E+03  0.7561462E-02  0.1266977E+00
          1   -1    0    0  501    0  0.00000000000E+00  0.00000000000E+00  0.26737889640E+03  0.26737889640E+03  0.00000000000E+00 0. -1.
         -1   -1    0    0    0  501 -0.00000000000E+00 -0.00000000000E+00 -0.13871488133E+03  0.13871488133E+03  0.00000000000E+00 0.  1.
         23    2    1    2    0    0 -0.71780762762E+00  0.95593649922E+02  0.19533204792E+03  0.23514549322E+03  0.89443461941E+02 0.  0.
          5    1    1    2  502    0  0.27704056898E+02 -0.45876660172E+02  0.27982283867E+02  0.60602502651E+02  0.41800000000E+01 0. -1.
         -5    1    1    2    0  502 -0.26986249270E+02 -0.49716989750E+02 -0.94650316715E+02  0.11034578186E+03  0.41800000000E+01 0. -1.
        -11    1    3    3    0    0  0.17606369220E+02  0.62305610361E+02  0.41999215233E+02  0.77174525588E+02  0.00000000000E+00 0.  1.
         11    1    3    3    0    0 -0.18324176848E+02  0.33288039561E+02  0.15333283268E+03  0.15797096763E+03  0.00000000000E+00 0. -1.
</event>
<event>
 7    1  0.4687179E-006  0.1093424E+03  0.7561462E-02  0.1261793E+00
         -1   -1    0    0    0  501 -0.00000000000E+00  0.00000000000E+00  0.29004011274E+02  0.29004011274E+02  0.00000000000E+00 0.  1.
          1   -1    0    0  501    0  0.00000000000E+00 -0.00000000000E+00 -0.46135366317E+03  0.46135366317E+03  0.00000000000E+00 0. -1.
         23    2    1    2    0    0  0.23805579217E+02  0.29120806778E+02 -0.21885477758E+03  0.24007197181E+03  0.91227249163E+02 0.  0.
          5    1    1    2  502    0 -0.62197380643E+02  0.14831754851E+02 -0.67835027850E+02  0.93314299624E+02  0.41800000000E+01 0.  1.
         -5    1    1    2    0  502  0.38391801426E+02 -0.43952561629E+02 -0.14565984647E+03  0.15697140302E+03  0.41800000000E+01 0.  1.
        -11    1    3    3    0    0  0.49092453311E+02  0.44703146709E+02 -0.17436132788E+03  0.18657522065E+03  0.00000000000E+00 0. -1.
         11    1    3    3    0    0 -0.25286874094E+02 -0.15582339932E+02 -0.44493449694E+02  0.53496751161E+02  0.00000000000E+00 0.  1.
</event>
<event>
 7    1  0.4687179E-006  0.1164505E+03  0.7561462E-02  0.1249070E+00
          1   -1    0    0  501    0  0.00000000000E+00  0.00000000000E+00  0.29127208137E+03  0.29127208137E+03  0.00000000000E+00 0. -1.
         -1   -1    0    0    0  501 -0.00000000000E+00 -0.00000000000E+00 -0.67524056233E+02  0.67524056233E+02  0.00000000000E+00 0.  1.
         23    2    1    2    0    0  0.41277215569E+02  0.24692256566E+02  0.19571201196E+03  0.22187849043E+03  0.92808172218E+02 0.  0.
          5    1    1    2  502    0  0.42377200549E+02 -0.61230647493E+01 -0.81847860619E+01  0.43792489895E+02  0.41800000000E+01 0.  1.
         -5    1    1    2    0  502 -0.83654416118E+02 -0.18569191817E+02  0.36220799240E+02  0.93125157280E+02  0.41800000000E+01 0.  1.
        -11    1    3    3    0    0 -0.13584590980E+02  0.43905273940E+02  0.96656965809E+02  0.10702702103E+03  0.00000000000E+00 0.  1.
         11    1    3    3    0    0  0.54861806550E+02 -0.19213017374E+02  0.99055046148E+02  0.11485146939E+03  0.00000000000E+00 0. -1.
</event>
<event>
 7    1  0.4687179E-006  0.1031365E+03  0.7561462E-02  0.1273835E+00
         -2   -1    0    0    0  501 -0.00000000000E+00  0.00000000000E+00  0.34343427152E+03  0.34343427152E+03  0.00000000000E+00 0.  1.
          2   -1    0    0  501    0  0.00000000000E+00 -0.00000000000E+00 -0.45575467332E+02  0.45575467332E+02  0.00000000000E+00 0. -1.
         23    2    1    2    0    0 -0.51287969826E+02 -0.35570121007E+02  0.11235038524E+03  0.15672534599E+03  0.89691335451E+02 0.  0.
          5    1    1    2  502    0  0.92971351648E+02  0.24026605470E+02  0.12154373032E+03  0.15495580266E+03  0.41800000000E+01 0. -1.
         -5    1    1    2    0  502 -0.41683381822E+02  0.11543515537E+02  0.63964688631E+02  0.77328590203E+02  0.41800000000E+01 0. -1.
        -11    1    3    3    0    0 -0.31558225814E+02 -0.75766455242E+01  0.11767298598E+03  0.12206661625E+03  0.00000000000E+00 0.  1.
         11    1    3    3    0    0 -0.19729744012E+02 -0.27993475483E+02 -0.53226007408E+01  0.34658729738E+02  0.00000000000E+00 0. -1.
</event>
<event>
 7    1  0.4687179E-006  0.1969877E+03  0.7561462E-02  0.1152306E+00
          2   -1    0    0  501    0  0.00000000000E+00  0.00000000000E+00  0.17961012462E+03  0.17961012462E+03  0.00000000000E+00 0. -1.
         -2   -1    0    0    0  501 -0.00000000000E+00 -0.00000000000E+00 -0.24592054532E+03  0.24592054532E+03  0.00000000000E+00 0.  1.
         23    2    1    2    0    0  0.55231719300E+02 -0.16735131004E+03  0.31311475942E+01  0.19853560516E+03  0.91376028823E+02 0.  0.
          5    1    1    2  502    0  0.26890650655E+02  0.47887079120E+02  0.17634841550E+02  0.57833722652E+02  0.41800000000E+01 0.  1.
         -5    1    1    2    0  502 -0.82122369955E+02  0.11946423092E+03 -0.87076409852E+02  0.16916134212E+03  0.41800000000E+01 0.  1.
        -11    1    3    3    0    0  0.32803961530E+02 -0.91109495391E+01 -0.15916920497E+02  0.37582677548E+02  0.00000000000E+00 0.  1.
         11    1    3    3    0    0  0.22427757771E+02 -0.15824036050E+03  0.19048068091E+02  0.16095292762E+03  0.00000000000E+00 0. -1.
</event>
<event>
 7    1  0.4687179E-006  0.1354374E+03  0.7561462E-02  0.1219604E+00
         -2   -1    0    0    0  501 -0.00000000000E+00  0.00000000000E+00  0.10611920646E+03  0.10611920646E+03  0.00000000000E+00 0.  1.
          2   -1    0    0  501    0  0.00000000000E+00 -0.00000000000E+00 -0.22170204206E+03  0.22170204206E+03  0.00000000000E+00 0. -1.
         23    2    1    2    0    0 -0.72772174412E+02  0.77441434768E+02 -0.75568676623E+02  0.15887864336E+03  0.90768018833E+02 0.  0.
          5    1    1    2  502    0  0.20262597380E+02  0.34373005942E+02 -0.46859505923E+01  0.40391916556E+02  0.41800000000E+01 0. -1.
         -5    1    1    2    0  502  0.52509577032E+02 -0.11181444071E+03 -0.35328208390E+02  0.12855068860E+03  0.41800000000E+01 0. -1.
        -11    1    3    3    0    0 -0.43105428054E+02  0.55408994865E+02  0.48575019656E+01  0.70369240191E+02  0.00000000000E+00 0. -1.
         11    1    3    3    0    0 -0.29666746358E+02  0.22032439903E+02 -0.80426178589E+02  0.88509403172E+02  0.00000000000E+00 0.  1.
</event>
<event>
 7    1  0.4687179E-006  0.1305630E+03  0.7561462E-02  0.1226623E+00
          2   -1    0    0  501    0  0.00000000000E+00  0.00000000000E+00  0.59778277852E+03  0.59778277852E+03  0.00000000000E+00 0. -1.
         -2   -1    0    0    0  501 -0.00000000000E+00 -0.00000000000E+00 -0.34083197787E+02  0.34083197787E+02  0.00000000000E+00 0.  1.
         23    2    1    2    0    0  0.30584740365E+02 -0.84081715085E+02  0.28467784477E+03  0.31326548301E+03  0.95334287584E+02 0.  0.
          5    1    1    2  502    0 -0.35504469726E+02  0.10790321504E+03  0.26887395228E+03  0.29191496331E+03  0.41800000000E+01 0. -1.
         -5    1    1    2    0  502  0.49197293607E+01 -0.23821499955E+02  0.10147783679E+02  0.26685529987E+02  0.41800000000E+01 0. -1.
        -11    1    3    3    0    0 -0.27473155037E+02 -0.45216024519E+02  0.17839575004E+03  0.18607607787E+03  0.00000000000E+00 0. -1.
         11    1    3    3    0    0  0.58057895402E+02 -0.38865690567E+02  0.10628209473E+03  0.12718940515E+03  0.00000000000E+00 0.  1.
</event>
<event>
 7    1  0.4687179E-006  0.1014081E+03  0.7561462E-02  0.1277362E+00
          1   -1    0    0  501    0  0.00000000000E+00  0.00000000000E+00  0.12769832396E+03  0.12769832396E+03  0.00000000000E+00 0. -1.
         -1   -1    0    0    0  501 -0.00000000000E+00 -0.00000000000E+00 -0.13194551060E+03  0.13194551060E+03  0.00000000000E+00 0.  1.
         23    2    1    2    0    0  0.19814602450E+02  0.45515553212E+02  0.50314679349E+02  0.11442483912E+03  0.89984403065E+02 0.  0.
          5    1    1    2  502    0  0.39475922483E+02 -0.59394548294E+02 -0.16607133849E+02  0.73343916705E+02  0.41800000000E+01 0.  1.
         -5    1    1    2    0  502 -0.59290524933E+02  0.13878995082E+02 -0.37954732139E+02  0.71875078734E+02  0.41800000000E+01 0.  1.
        -11    1    3    3    0    0 -0.15977366988E+02  0.23174079211E+02  0.64123976462E+02  0.70029983296E+02  0.00000000000E+00 0. -1.
         11    1    3    3    0    0  0.35791969438E+02  0.22341474001E+02 -0.13809297113E+02  0.44394855823E+02  0.00000000000E+00 0.  1.
</event>
<event>
 7    1  0.4687179E-006  0.9122185E+02  0.7561462E-02  0.1299919E+00
         -2   -1    0    0    0  501 -0.00000000000E+00  0.00000000000E+00  0.16479524123E+03  0.16479524123E+03  0.00000000000E+00 0.  1.
          2   -1    0    0  501    0  0.00000000000E+00 -0.00000000000E+00 -0.85355482645E+02  0.85355482645E+02  0.00000000000E+00 0. -1.
         23    2    1    2    0    0  0.34356411134E+02 -0.10629131521E+02  0.15146090660E+02  0.10498522513E+03  0.97463593258E+02 0.  0.
          5    1    1    2  502    0  0.32931904155E+02  0.89550456578E+01  0.69485813534E+02  0.77527116782E+02  0.41800000000E+01 0.  1.
         -5    1    1    2    0  502 -0.67288315289E+02  0.16740858633E+01 -0.51921456127E+01  0.67638381959E+02  0.41800000000E+01 0.  1.
        -11    1    3    3    0    0 -0.15627664801E+02  0.17341477094E+02 -0.25635959087E+02  0.34672080024E+02  0.00000000000E+00 0. -1.
         11    1    3    3    0    0  0.49984075934E+02 -0.27970608615E+02  0.40782049747E+02  0.70313145107E+02  0.00000000000E+00 0.  1.
</event>
<event>
 7    1  0.4687179E-006  0.1501453E+03  0.7561462E-02  0.1200295E+00
         -1   -1    0    0    0  501 -0.00000000000E+00  0.00000000000E+00  0.42653555878E+02  0.42653555878E+02  0.00000000000E+00 0.  1.
          1   -1    0    0  501    0  0.00000000000E+00 -0.00000000000E+00 -0.56063781308E+03  0.56063781308E+03  0.00000000000E+00 0. -1.
         23    2    1    2    0    0  0.40148895840E+02  0.10047259356E+03 -0.22940408577E+03  0.27067655415E+03  0.94513948751E+02 0.  0.
          5    1    1    2  502    0 -0.76997017413E+02 -0.35365198087E+02 -0.19557981536E+03  0.21318577462E+03  0.41800000000E+01 0. -1.
         -5    1    1    2    0  502  0.36848121574E+02 -0.65107395469E+02 -0.93000356071E+02  0.11942904018E+03  0.41800000000E+01 0. -1.
        -11    1    3    3    0    0 -0.27452893757E+02  0.46605976169E+02 -0.62038898972E+02  0.82307978811E+02  0.00000000000E+00 0.  1.
         11    1    3    3    0    0  0.67601789597E+02  0.53866617387E+02 -0.16736518680E+03  0.18836857534E+03  0.00000000000E+00 0. -1.
</event>
<event>
 7    1  0.4687179E-006  0.1060627E+03  0.7561462E-02  0.1268040E+00
          2   -1    0    0  501    0  0.00000000000E+00  0.00000000000E+00  0.61021585014E+03  0.61021585014E+03  0.00000000000E+00 0.  1.
         -2   -1    0    0    0  501 -0.00000000000E+00 -0.00000000000E+00 -0.23554478434E+02  0.23554478434E+02  0.00000000000E+00 0. -1.
         23    2    1    2    0    0  0.35420579727E+02 -0.31243724337E+02  0.26791236661E+03  0.28811197565E+03  0.94871948174E+02 0.  0.
          5    1    1    2  502    0 -0.59707288744E+02 -0.24262819131E+02  0.10342573463E+03  0.12193440738E+03  0.41800000000E+01 0. -1.
         -5    1    1    2    0  502  0.24286709017E+02  0.55506543469E+02  0.21532327047E+03  0.22372394554E+03  0.41800000000E+01 0. -1.
        -11    1    3    3    0    0  0.48568590375E+02  0.44496219917E+01  0.22727729778E+03  0.23245145126E+03  0.00000000000E+00 0.  1.
         11    1    3    3    0    0 -0.13148010648E+02 -0.35693346329E+02  0.40635068828E+02  0.55660524385E+02  0.00000000000E+00 0. -1.
</event>
<event>
 7    1  0.4687179E-006  0.9525737E+02  0.7561462E-02  0.1290597E+00
         -1   -1    0    0    0  501 -0.00000000000E+00  0.00000000000E+00  0.29966913804E+03  0.29966913804E+03  0.00000000000E+00 0.  1.
          1   -1    0    0  501    0  0.00000000000E+00 -0.00000000000E+00 -0.43229471678E+02  0.43229471678E+02  0.00000000000E+00 0. -1.
         23    2    1    2    0    0 -0.25390539860E+02 -0.13604740988E+02  0.84257986952E+02  0.12813529952E+03  0.92138364027E+02 0.  0.
          5    1    1    2  502    0 -0.46120602803E+02 -0.13141680950E+01  0.10767413620E+03  0.11721787000E+03  0.41800000000E+01 0.  1.
         -5    1    1    2    0  502  0.71511142662E+02  0.14918909083E+02  0.64507543207E+02  0.97545440199E+02  0.41800000000E+01 0.  1.
        -11    1    3    3    0    0  0.16339387424E+02 -0.23027667027E+02  0.80361566913E+02  0.85177640650E+02  0.00000000000E+00 0.  1.
         11    1    3    3    0    0 -0.41729927283E+02  0.94229260389E+01  0.38964200388E+01  0.42957658867E+02  0.00000000000E+00 0. -1.
</event>
<event>
 7    1  0.4687179E-006  0.9945551E+02  0.7561462E-02  0.1281445E+00
          2   -1    0    0  501    0  0.00000000000E+00  0.00000000000E+00  0.14310514758E+03  0.14310514758E+03  0.00000000000E+00 0. -1.
         -2   -1    0    0    0  501 -0.00000000000E+00 -0.00000000000E+00 -0.10985315831E+03  0.10985315831E+03  0.00000000000E+00 0.  1.
         23    2    1    2    0    0  0.61978466208E+02 -0.63008236151E+01  0.13591217952E+02  0.11183977194E+03  0.91882439726E+02 0.  0.
          5    1    1    2  502    0 -0.37845616669E+02  0.51156987046E+02  0.50572402661E+02  0.81390222605E+02  0.41800000000E+01 0. -1.
         -5    1    1    2    0  502 -0.24132849539E+02 -0.44856163431E+02 -0.30911631337E+02  0.59728311348E+02  0.41800000000E+01 0. -1.
        -11    1    3    3    0    0  0.28254239647E+02 -0.31215159449E+02 -0.29736819124E+02  0.51545772369E+02  0.00000000000E+00 0.  1.
         11    1    3    3    0    0  0.33724226561E+02  0.24914335834E+02  0.43328037076E+02  0.60293999569E+02  0.00000000000E+00 0. -1.
</event>
<event>
 7    1  0.4687179E-006  0.1999342E+03  0.7561462E-02  0.1149795E+00
          1   -1    0    0  501    0  0.00000000000E+00  0.00000000000E+00  0.12245058221E+03  0.12245058221E+03  0.00000000000E+00 0.  1.
         -1   -1    0    0    0  501 -0.00000000000E+00 -0.00000000000E+00 -0.53398267078E+03  0.53398267078E+03  0.00000000000E+00 0. -1.
         23    2    1    2    0    0  0.49649535547E+02 -0.19047602419E+03 -0.41997146111E+02  0.21945508692E+03  0.87467609552E+02 0.  0.
          5    1    1    2  502    0 -0.47447455485E+02  0.87137926996E+02 -0.28987872851E+03  0.30641708340E+03  0.41800000000E+01 0. -1.
         -5    1    1    2    0  502 -0.22020800612E+01  0.10333809720E+03 -0.79656213951E+02  0.13056108268E+03  0.41800000000E+01 0. -1.
        -11    1    3    3    0    0  0.18411923463E+02 -0.91255398416E+02 -0.64206879483E+02  0.11308877061E+03  0.00000000000E+00 0.  1.
         11    1    3    3    0    0  0.31237612084E+02 -0.99220625777E+02  0.22209733372E+02  0.10636631631E+03  0.00000000000E+00 0. -1.
</event>
<event>
 7    1  0.4687179E-006  0.1071135E+03  0.7561462E-02  0.1266010E+00
         -1   -1    0    0    0  501 -0.00000000000E+00  0.00000000000E+00  0.54076114458E+02  0.54076114458E+02  0.00000000000E+00 0.  1.
          1   -1    0    0  501    0  0.00000000000E+00 -0.00000000000E+00 -0.37826437483E+03  0.37826437483E+03  0.00000000000E+00 0. -1.
         23    2    1    2    0    0 -0.25236429438E+02 -0.58184529934E+02 -0.24954290362E+03  0.27346518663E+03  0.92137021097E+02 0.  0.
          5    1    1    2  502    0 -0.31090198403E+02  0.17949595339E+02  0.20182997181E+02  0.41395823277E+02  0.41800000000E+01 0. -1.
         -5    1    1    2    0  502  0.56326627841E+02  0.40234934595E+02 -0.94828353931E+02  0.11747947938E+03  0.41800000000E+01 0. -1.
        -11    1    3    3    0    0 -0.56437688511E+02 -0.21050412890E+02 -0.10561697225E+03  0.12158650169E+03  0.00000000000E+00 0. -1.
         11    1    3    3    0    0  0.31201259073E+02 -0.37134117044E+02 -0.14392593137E+03  0.15187868493E+03  0.00000000000E+00 0.  1.
</event>
<event>
 7    1  0.4687179E-006  0.1315556E+03  0.7561462E-02  0.1225166E+00
          2   -1    0    0  501    0  0.00000000000E+00  0.00000000000E+00  0.41820060835E+03  0.41820060835E+03  0.00000000000E+00 0. -1.
         -2   -1    0    0    0  501 -0.00000000000E+00 -0.00000000000E+00 -0.63498209129E+02  0.63498209129E+02  0.00000000000E+00 0.  1.
         23    2    1    2    0    0 -0.56342347290E+02  0.99294658099E+02  0.22462344904E+03  0.26815325134E+03  0.91741937632E+02 0.  0.
          5    1    1    2  502    0 -0.24863974701E+02 -0.84401509886E+01  0.75339469438E+02  0.79893438040E+02  0.41800000000E+01 0.  1.
         -5    1    1    2    0  502  0.81206321991E+02 -0.90854507111E+02  0.54739480746E+02  0.13365212810E+03  0.41800000000E+01 0.  1.
        -11    1    3    3    0    0 -0.14593390928E+02  0.35168927279E+02  0.86796540422E+01  0.39053257214E+02  0.00000000000E+00 0.  1.
         11    1    3    3    0    0 -0.41748956362E+02  0.64125730820E+02  0.21594379500E+03  0.22909999412E+03  0.00000000000E+00 0. -1.
</event>
<event>
 7    1  0.4687179E-006  0.8855747E+02  0.7561462E-02  0.1306383E+00
          2   -1    0    0  501    0  0.00000000000E+00  0.00000000000E+00  0.22219997051E+03  0.22219997051E+03  0.00000000000E+00 0. -1.
         -2   -1    0    0    0  501 -0.00000000000E+00 -0.00000000000E+00 -0.64618768962E+02  0.64618768962E+02  0.00000000000E+00 0.  1.
         23    2    1    2    0    0  0.48908193875E+02  0.18919022151E+02  0.79117445475E+02  0.13012337904E+03  0.89008891503E+02 0.  0.
          5    1    1    2  502    0  0.33008074437E+02  0.54281570452E+01 -0.84287527548E+01  0.34749304165E+02  0.41800000000E+01 0. -1.
         -5    1    1    2    0  502 -0.81916268312E+02 -0.24347179196E+02  0.86892508829E+02  0.12194605627E+03  0.41800000000E+01 0. -1.
        -11    1    3    3    0    0  0.24213258051E+02 -0.35305083321E+01 -0.16056855908E+02  0.29267199664E+02  0.00000000000E+00 0.  1.
         11    1    3    3    0    0  0.24694935824E+02  0.22449530483E+02  0.95174301383E+02  0.10085617937E+03  0.00000000000E+00 0. -1.
</event>
<event>
 7    1  0.4687179E-006  0.1122710E+03  0.7561462E-02  0.1256421E+00
          3   -1    0    0  501    0  0.00000000000E+00  0.00000000000E+00  0.29221742851E+03  0.29221742851E+03  0.00000000000E+00 0. -1.
         -3   -1    0    0    0  501 -0.00000000000E+00 -0.00000000000E+00 -0.64928046078E+02  0.64928046078E+02  0.00000000000E+00 0.  1.
         23    2    1    2    0    0  0.63998744540E+02  0.47540672634E+02  0.13662264778E+03  0.18329517513E+03  0.92603555457E+02 0.  0.
          5    1    1    2  502    0 -0.46411254601E+01 -0.42848274245E+02 -0.20319291778E+02  0.47831586526E+02  0.41800000000E+01 0. -1.
         -5    1    1    2    0  502 -0.59357619080E+02 -0.46923983890E+01  0.11098602644E+03  0.12601871293E+03  0.41800000000E+01 0. -1.
        -11    1    3    3    0    0  0.55915189133E+02 -0.15476945516E+02  0.74619425915E+02  0.94520383739E+02  0.00000000000E+00 0.  1.
         11    1    3    3    0    0  0.80835554071E+01  0.63017618150E+02  0.62003221861E+02  0.88774791390E+02  0.00000000000E+00 0. -1.
</event>
<event>
 7    1  0.4687179E-006  0.1070473E+03  0.7561462E-02  0.1266138E+00
         -1   -1    0    0    0  501 -0.00000000000E+00  0.00000000000E+00  0.24308381064E+03  0.24308381064E+03  0.00000000000E+00 0.  1.
          1   -1    0    0  501    0  0.00000000000E+00 -0.00000000000E+00 -0.66292631200E+02  0.66292631200E+02  0.00000000000E+00 0. -1.
         23    2    1    2    0    0 -0.10087646689E+02  0.49132521663E+02  0.26843714876E+02  0.10774864978E+03  0.91506399777E+02 0.  0.
          5    1    1    2  502    0 -0.35350960952E+01 -0.90016001447E+02  0.11397535300E+03  0.14533833257E+03  0.41800000000E+01 0. -1.
         -5    1    1    2    0  502  0.13622742784E+02  0.40883479785E+02  0.35972111564E+02  0.56289459499E+02  0.41800000000E+01 0. -1.
        -11    1    3    3    0    0  0.26824197687E+02  0.17728282455E+02  0.45588342479E+02  0.55786436975E+02  0.00000000000E+00 0.  1.
         11    1    3    3    0    0 -0.36911844376E+02  0.31404239207E+02 -0.18744627604E+02  0.51962212804E+02  0.00000000000E+00 0. -1.
</event>
<event>
 7    1  0.4687179E-006  0.2392996E+03  0.7561462E-02  0.1120260E+00
         -1   -1    0    0    0  501 -0.00000000000E+00  0.00000000000E+00  0.10527821097E+03  0.10527821097E+03  0.00000000000E+00 0.  1.
          1   -1    0    0  501    0  0.00000000000E+00 -0.00000000000E+00 -0.55609459469E+03  0.55609459469E+03  0.00000000000E+00 0. -1.
         23    2    1    2    0    0 -0.45609357234E+02 -0.20914063550E+03 -0.17630631550E+03  0.29147631549E+03  0.89746903678E+02 0.  0.
          5    1    1    2  502    0 -0.29152916419E+02  0.42423975366E+01 -0.31440077747E+02  0.43287889315E+02  0.41800000000E+01 0. -1.
         -5    1    1    2    0  502  0.74762273652E+02  0.20489823797E+03 -0.24306999048E+03  0.32660860086E+03  0.41800000000E+01 0. -1.
        -11    1    3    3    0    0 -0.31027178737E+02 -0.21328721733E+03 -0.15567426707E+03  0.26587327870E+03  0.00000000000E+00 0.  1.
         11    1    3    3    0    0 -0.14582178497E+02  0.41465818290E+01 -0.20632048424E+02  0.25603036787E+02  0.00000000000E+00 0. -1.
</event>
<event>
 7    1  0.4687179E-006  0.8858561E+02  0.7561462E-02  0.1306313E+00
          1   -1    0    0  501    0  0.00000000000E+00  0.00000000000E+00  0.16825009723E+03  0.16825009723E+03  0.00000000000E+00 0. -1.
         -1   -1    0    0    0  501 -0.00000000000E+00 -0.00000000000E+00 -0.79497469997E+02  0.79497469997E+02  0.00000000000E+00 0.  1.
         23    2    1    2    0    0 -0.13662787372E+02 -0.82089191322E+01  0.81116314949E+02  0.12141606465E+03  0.88926633198E+02 0.  0.
          5    1    1    2  502    0  0.40324391631E+02 -0.48465056126E+02  0.68452966734E+01  0.63555084079E+02  0.41800000000E+01 0.  1.
         -5    1    1    2    0  502 -0.26661604259E+02  0.56673975258E+02  0.79101560573E+00  0.62776418494E+02  0.41800000000E+01 0.  1.
        -11    1    3    3    0    0  0.11979462391E+01  0.19625136075E+02  0.87108042270E+02  0.89299451674E+02  0.00000000000E+00 0. -1.
         11    1    3    3    0    0 -0.14860733611E+02 -0.27834055207E+02 -0.59917273207E+01  0.32116612976E+02  0.00000000000E+00 0.  1.
</event>
<event>
 7    1  0.4687179E-006  0.1132786E+03  0.7561462E-02  0.1254616E+00
         -1   -1    0    0    0  501 -0.00000000000E+00  0.00000000000E+00  0.15751979144E+03  0.15751979144E+03  0.00000000000E+00 0.  1.
          1   -1    0    0  501    0  0.00000000000E+00 -0.00000000000E+00 -0.97154487119E+02  0.97154487119E+02  0.00000000000E+00 0. -1.
         23    2    1    2    0    0  0.38405252971E+02  0.25778494674E+02 -0.85028494367E+01  0.10457238210E+03  0.93400162773E+02 0.  0.
          5    1    1    2  502    0  0.40437866587E+02 -0.35197667433E+02  0.25183665265E+02  0.59378331427E+02  0.41800000000E+01 0. -1.
         -5    1    1    2    0  502 -0.78843119559E+02  0.94191727588E+01  0.43684488493E+02  0.90723565032E+02  0.41800000000E+01 0. -1.
        -11    1    3    3    0    0  0.20542689855E+02 -0.29064621070E+02  0.19360130843E+02  0.40516280316E+02  0.00000000000E+00 0.  1.
         11    1    3    3    0    0  0.17862563117E+02  0.54843115744E+02 -0.27862980280E+02  0.64056101784E+02  0.00000000000E+00 0. -1.
</event>
<event>
 7    1  0.4687179E-006  0.2057966E+03  0.7561462E-02  0.1144939E+00
          1   -1    0    0  501    0  0.00000000000E+00  0.00000000000E+00  0.12802718671E+03  0.12802718671E+03  0.00000000000E+00 0. -1.
         -1   -1    0    0    0  501 -0.00000000000E+00 -0.00000000000E+00 -0.50773396798E+03  0.50773396798E+03  0.00000000000E+00 0.  1.
         23    2    1    2    0    0 -0.14516724316E+03 -0.11467738607E+03 -0.12139161601E+02  0.20567023719E+03  0.89041876983E+02 0.  0.
          5    1    1    2  502    0  0.94057438238E+02 -0.17260227015E+01 -0.18492796936E+03  0.20752254599E+03  0.41800000000E+01 0.  1.
         -5    1    1    2    0  502  0.51109804925E+02  0.11640340877E+03 -0.18263965031E+03  0.22256837151E+03  0.41800000000E+01 0.  1.
        -11    1    3    3    0    0 -0.67438571299E+02 -0.25922559754E+02 -0.42532310806E+02  0.83838758731E+02  0.00000000000E+00 0. -1.
         11    1    3    3    0    0 -0.77728671864E+02 -0.88754826314E+02  0.30393149206E+02  0.12183147845E+03  0.00000000000E+00 0.  1.
</event>
<event>
 7    1  0.4687179E-006  0.8966012E+02  0.7561462E-02  0.1303677E+00
         -1   -1    0    0    0  501 -0.00000000000E+00  0.00000000000E+00  0.14189932775E+04  0.14189932775E+04  0.00000000000E+00 0.  1.
          1   -1    0    0  501    0  0.00000000000E+00 -0.00000000000E+00 -0.40251981863E+02  0.40251981863E+02  0.00000000000E+00 0. -1.
         23    2    1    2    0    0  0.54024880767E+02  0.52235143811E+02  0.59483261836E+02  0.13194094039E+03  0.90680512355E+02 0.  0.
          5    1    1    2  502    0 -0.33279557384E+02 -0.45550821105E+02  0.20052108717E+03  0.20834727030E+03  0.41800000000E+01 0.  1.
         -5    1    1    2    0  502 -0.20745323384E+02 -0.66843227062E+01  0.11187369467E+04  0.11189570487E+04  0.41800000000E+01 0.  1.
        -11    1    3    3    0    0  0.55488451117E+02  0.77225048458E+01 -0.19561007942E+01  0.56057395754E+02  0.00000000000E+00 0. -1.
         11    1    3    3    0    0 -0.14635703495E+01  0.44512638965E+02  0.61439362630E+02  0.75883544634E+02  0.00000000000E+00 0.  1.
</event>
<event>
 7    1  0.4687179E-006  0.1276572E+03  0.7561462E-02  0.1230974E+00
         -3   -1    0    0    0  501 -0.00000000000E+00  0.00000000000E+00  0.40446844621E+03  0.40446844621E+03  0.00000000000E+00 0.  1.
          3   -1    0    0  501    0  0.00000000000E+00 -0.00000000000E+00 -0.67090308070E+02  0.67090308070E+02  0.00000000000E+00 0. -1.
         23    2    1    2    0    0 -0.75768713626E+02  0.89141885965E+02  0.12254302206E+03  0.19680593196E+03  0.10014294183E+03 0.  0.
          5    1    1    2  502    0  0.37297478754E+02  0.37247648162E+01  0.20808037618E+00  0.37715931538E+02  0.41800000000E+01 0.  1.
         -5    1    1    2    0  502  0.38471234872E+02 -0.92866650781E+02  0.21462703570E+03  0.23703689078E+03  0.41800000000E+01 0.  1.
        -11    1    3    3    0    0 -0.16040395104E+02  0.18934711720E+02  0.98454565002E+02  0.10153383157E+03  0.00000000000E+00 0.  1.
         11    1    3    3    0    0 -0.59728318522E+02  0.70207174245E+02  0.24088457062E+02  0.95272100389E+02  0.00000000000E+00 0. -1.
</event>
<event>
 7    1  0.4687179E-006  0.2417899E+03  0.7561462E-02  0.1118606E+00
         -2   -1    0    0    0  501 -0.00000000000E+00  0.00000000000E+00  0.36338525133E+02  0.36338525133E+02  0.00000000000E+00 0.  1.
          2   -1    0    0  501    0  0.00000000000E+00 -0.00000000000E+00 -0.18643100735E+04  0.18643100735E+04  0.00000000000E+00 0. -1.
         23    2    1    2    0    0  0.21919208776E+03 -0.47164189606E+02 -0.11620842001E+04  0.11869788570E+04  0.90606218678E+02 0.  0.
          5    1    1    2  502    0 -0.12968944840E+02  0.35543519564E+02 -0.43062024794E+02  0.57474739605E+02  0.41800000000E+01 0. -1.
         -5    1    1    2    0  502 -0.20622314292E+03  0.11620670042E+02 -0.62282532347E+03  0.65619500196E+03  0.41800000000E+01 0. -1.
        -11    1    3    3    0    0  0.39877129120E+02  0.23383959232E+02 -0.16039048089E+03  0.16691944566E+03  0.00000000000E+00 0. -1.
         11    1    3    3    0    0  0.17931495864E+03 -0.70548148838E+02 -0.10016937192E+04  0.10200594114E+04  0.00000000000E+00 0.  1.
</event>
<event>
 7    1  0.4687179E-006  0.1058034E+03  0.7561462E-02  0.1268545E+00
         -2   -1    0    0    0  501 -0.00000000000E+00  0.00000000000E+00  0.34124903163E+02  0.34124903163E+02  0.00000000000E+00 0.  1.
          2   -1    0    0  501    0  0.00000000000E+00 -0.00000000000E+00 -0.57810579849E+03  0.57810579849E+03  0.00000000000E+00 0. -1.
         23    2    1    2    0    0 -0.25815089775E+02  0.74875352739E+02 -0.18513571826E+03  0.21524846944E+03  0.76052167038E+02 0.  0.
          5    1    1    2  502    0  0.48043189183E+02 -0.25950728207E+02 -0.33251608588E+03  0.33699556093E+03  0.41800000000E+01 0. -1.
         -5    1    1    2    0  502 -0.22228099408E+02 -0.48924624532E+02 -0.26329091189E+02  0.59986671284E+02  0.41800000000E+01 0.  1.
        -11    1    3    3    0    0 -0.76493231875E+01  0.82779807163E+02 -0.11202569387E+03  0.13950184481E+03  0.00000000000E+00 0. -1.
         11    1    3    3    0    0 -0.18165766587E+02 -0.79044544240E+01 -0.73110024396E+02  0.75746624628E+02  0.00000000000E+00 0.  1.
</event>
<event>
 7    1  0.4687179E-006  0.1463120E+03  0.7561462E-02  0.1205079E+00
          2   -1    0    0  501    0  0.00000000000E+00  0.00000000000E+00  0.37745821852E+03  0.37745821852E+03  0.00000000000E+00 0. -1.
         -2   -1    0    0    0  501 -0.00000000000E+00 -0.00000000000E+00 -0.71626119379E+02  0.71626119379E+02  0.00000000000E+00 0.  1.
         23    2    1    2    0    0 -0.10748798469E+03 -0.53767237531E+02  0.17713530486E+03  0.23308768646E+03  0.92240829703E+02 0.  0.
          5    1    1    2  502    0  0.11190346666E+03  0.70306759692E+02  0.60223124947E+02  0.14529185623E+03  0.41800000000E+01 0. -1.
         -5    1    1    2    0  502 -0.44154819645E+01 -0.16539522160E+02  0.68473669328E+02  0.70704795209E+02  0.41800000000E+01 0. -1.
        -11    1    3    3    0    0 -0.71877353989E+02  0.71344336830E+01  0.50521797994E+02  0.88145937133E+02  0.00000000000E+00 0.  1.
         11    1    3    3    0    0 -0.35610630705E+02 -0.60901671214E+02  0.12661350687E+03  0.14494174933E+03  0.00000000000E+00 0. -1.
</event>
<event>
 7    1  0.4687179E-006  0.4461286E+03  0.7561462E-02  0.1028883E+00
         -2   -1    0    0    0  501 -0.00000000000E+00  0.00000000000E+00  0.98203741545E+02  0.98203741545E+02  0.00000000000E+00 0.  1.
          2   -1    0    0  501    0  0.00000000000E+00 -0.00000000000E+00 -0.36594015846E+04  0.36594015846E+04  0.00000000000E+00 0. -1.
         23    2    1    2    0    0 -0.44125353271E+03  0.27238857256E+02 -0.25201183521E+04  0.25602623445E+04  0.92196140676E+02 0.  0.
          5    1    1    2  502    0  0.79955807163E+02 -0.45442883269E+01 -0.68453535648E+03  0.68921673538E+03  0.41800000000E+01 0. -1.
         -5    1    1    2    0  502  0.36129772555E+03 -0.22694568930E+02 -0.35654413441E+03  0.50812624625E+03  0.41800000000E+01 0.  1.
        -11    1    3    3    0    0 -0.22033175970E+02  0.21477872256E+02 -0.12541124831E+03  0.12913071301E+03  0.00000000000E+00 0.  1.
         11    1    3    3    0    0 -0.41922035674E+03  0.57609850003E+01 -0.23947071038E+04  0.24311316315E+04  0.00000000000E+00 0. -1.
</event>
<event>
 7    1  0.4687179E-006  0.2341818E+03  0.7561462E-02  0.1123731E+00
          2   -1    0    0  501    0  0.00000000000E+00  0.00000000000E+00  0.80307741118E+03  0.80307741118E+03  0.00000000000E+00 0. -1.
         -2   -1    0    0    0  501 -0.00000000000E+00 -0.00000000000E+00 -0.12350320649E+03  0.12350320649E+03  0.00000000000E+00 0.  1.
         23    2    1    2    0    0  0.19861984621E+02 -0.21238583765E+03  0.63367549219E+03  0.67507493106E+03  0.93162710781E+02 0.  0.
          5    1    1    2  502    0 -0.51342107380E+02  0.19116862971E+03  0.86794859030E+01  0.19817735201E+03  0.41800000000E+01 0.  1.
         -5    1    1    2    0  502  0.31480122760E+02  0.21217207943E+02  0.37219226595E+02  0.53328334591E+02  0.41800000000E+01 0.  1.
        -11    1    3    3    0    0  0.56235248032E+02 -0.11022485039E+03  0.31374656278E+03  0.33726669925E+03  0.00000000000E+00 0.  1.
         11    1    3    3    0    0 -0.36373263411E+02 -0.10216098726E+03  0.31992892941E+03  0.33780823181E+03  0.00000000000E+00 0. -1.
</event>
<event>
 7    1  0.4687179E-006  0.1135894E+03  0.7561462E-02  0.1254064E+00
         -2   -1    0    0    0  501 -0.00000000000E+00  0.00000000000E+00  0.33446075005E+02  0.33446075005E+02  0.00000000000E+00 0.  1.
          2   -1    0    0  501    0  0.00000000000E+00 -0.00000000000E+00 -0.39898817974E+03  0.39898817974E+03  0.00000000000E+00 0. -1.
         23    2    1    2    0    0 -0.39749727427E+02 -0.16097827927E+01 -0.16498557562E+03  0.19274012257E+03  0.91355801427E+02 0.  0.
          5    1    1    2  502    0  0.39886047153E+02  0.60237386215E+02 -0.10552601303E+03  0.12795566139E+03  0.41800000000E+01 0. -1.
         -5    1    1    2    0  502 -0.13631972542E+00 -0.58627603422E+02 -0.95030516090E+02  0.11173847079E+03  0.41800000000E+01 0. -1.
        -11    1    3    3    0    0  0.28069449469E+02  0.18330779079E+01 -0.74309180314E+02  0.79455071877E+02  0.00000000000E+00 0. -1.
         11    1    3    3    0    0 -0.67819176896E+02 -0.34428607007E+01 -0.90676395303E+02  0.11328505069E+03  0.00000000000E+00 0.  1.
</event>
<event>
 7    1  0.4687179E-006  0.1243146E+03  0.7561462E-02  0.1236144E+00
         -1   -1    0    0    0  501 -0.00000000000E+00  0.00000000000E+00  0.31178920411E+03  0.31178920411E+03  0.00000000000E+00 0.  1.
          1   -1    0    0  501    0  0.00000000000E+00 -0.00000000000E+00 -0.92130365118E+02  0.92130365118E+02  0.00000000000E+00 0. -1.
         23    2    1    2    0    0  0.61480112753E+02 -0.28016451356E+02 -0.31641188975E+02  0.11519226947E+03  0.87768834414E+02 0.  0.
          5    1    1    2  502    0 -0.46863244877E+01 -0.46167769315E+02  0.10785033594E+03  0.11748443268E+03  0.41800000000E+01 0. -1.
         -5    1    1    2    0  502 -0.56793788266E+02  0.74184220671E+02  0.14344969203E+03  0.17124286708E+03  0.41800000000E+01 0. -1.
        -11    1    3    3    0    0  0.82296576546E+02 -0.14154065268E+02 -0.33807284241E+02  0.90088825847E+02  0.00000000000E+00 0. -1.
         11    1    3    3    0    0 -0.20816463792E+02 -0.13862386088E+02  0.21660952665E+01  0.25103443620E+02  0.00000000000E+00 0.  1.
</event>
<event>
 7    1  0.4687179E-006  0.7899891E+02  0.7561462E-02  0.1331917E+00
          1   -1    0    0  501    0  0.00000000000E+00  0.00000000000E+00  0.60568606424E+02  0.60568606424E+02  0.00000000000E+00 0. -1.
         -1   -1    0    0    0  501 -0.00000000000E+00 -0.00000000000E+00 -0.32651551179E+03  0.32651551179E+03  0.00000000000E+00 0.  1.
         23    2    1    2    0    0 -0.19883879863E+02  0.24839217735E+02 -0.43198035325E+01  0.95350709486E+02  0.89781633316E+02 0.  0.
          5    1    1    2  502    0  0.79056773308E+01 -0.59742370852E+02 -0.24259577934E+03  0.25000367030E+03  0.41800000000E+01 0.  1.
         -5    1    1    2    0  502  0.11978202532E+02  0.34903153117E+02 -0.19031322491E+02  0.41729738427E+02  0.41800000000E+01 0.  1.
        -11    1    3    3    0    0 -0.30690375703E+02  0.34345470174E+02 -0.37363315250E+02  0.59308749850E+02  0.00000000000E+00 0.  1.
         11    1    3    3    0    0  0.10806495840E+02 -0.95062524384E+01  0.33043511718E+02  0.36041959636E+02  0.00000000000E+00 0. -1.
</event>
<event>
 7    1  0.4687179E-006  0.3852396E+03  0.7561462E-02  0.1049014E+00
         -3   -1    0    0    0  501 -0.00000000000E+00  0.00000000000E+00  0.90882168618E+03  0.90882168618E+03  0.00000000000E+00 0.  1.
          3   -1    0    0  501    0  0.00000000000E+00 -0.00000000000E+00 -0.24564691226E+03  0.24564691226E+03  0.00000000000E+00 0. -1.
         23    2    1    2    0    0 -0.13703321139E+03  0.35426327393E+03  0.13659149102E+02  0.39171088686E+03  0.94711552885E+02 0.  0.
          5    1    1    2  502    0  0.16388521312E+02 -0.16403023915E+03  0.35946371774E+03  0.39548216111E+03  0.41800000000E+01 0.  1.
         -5    1    1    2    0  502  0.12064469008E+03 -0.19023303479E+03  0.29005190708E+03  0.36727555046E+03  0.41800000000E+01 0.  1.
        -11    1    3    3    0    0 -0.25407249060E+02  0.87136123916E+02 -0.36604527712E+02  0.97867889754E+02  0.00000000000E+00 0. -1.
         11    1    3    3    0    0 -0.11162596233E+03  0.26712715002E+03  0.50263676813E+02  0.29384299711E+03  0.00000000000E+00 0.  1.
</event>
<event>
 7    1  0.4687179E-006  0.1031199E+03  0.7561462E-02  0.1273869E+00
          1   -1    0    0  501    0  0.00000000000E+00  0.00000000000E+00  0.16423871765E+03  0.16423871765E+03  0.00000000000E+00 0. -1.
         -1   -1    0    0    0  501 -0.00000000000E+00 -0.00000000000E+00 -0.77863959063E+02  0.77863959063E+02  0.00000000000E+00 0.  1.
         23    2    1    2    0    0 -0.13253725238E+02 -0.62215965954E+01  0.69308434250E+02  0.11500731873E+03  0.90601626958E+02 0.  0.
          5    1    1    2  502    0  0.65750945622E+02  0.54535858424E+01  0.30401639719E+02  0.72764418134E+02  0.41800000000E+01 0.  1.
         -5    1    1    2    0  502 -0.52497220384E+02  0.76801075302E+00 -0.13335315378E+02  0.54330939848E+02  0.41800000000E+01 0.  1.
        -11    1    3    3    0    0  0.22425850990E+02  0.29444902195E+02  0.12581506730E+02  0.39092395290E+02  0.00000000000E+00 0. -1.
         11    1    3    3    0    0 -0.35679576228E+02 -0.35666498790E+02  0.56726927520E+02  0.75914923445E+02  0.00000000000E+00 0.  1.
</event>
<event>
 7    1  0.4687179E-006  0.1105668E+03  0.7561462E-02  0.1259524E+00
         -3   -1    0    0    0  501 -0.00000000000E+00  0.00000000000E+00  0.13790219433E+03  0.13790219433E+03  0.00000000000E+00 0.  1.
          3   -1    0    0  501    0  0.00000000000E+00 -0.00000000000E+00 -0.13219895906E+03  0.13219895906E+03  0.00000000000E+00 0. -1.
         23    2    1    2    0    0 -0.15619578974E+02  0.75275890090E+02 -0.20111263748E+02  0.12102132546E+03  0.91275776692E+02 0.  0.
          5    1    1    2  502    0  0.18045896440E+02  0.97811057566E+01  0.55135870241E+02  0.58981022332E+02  0.41800000000E+01 0. -1.
         -5    1    1    2    0  502 -0.24263174659E+01 -0.85056995847E+02 -0.29321371226E+02  0.90098805594E+02  0.41800000000E+01 0. -1.
        -11    1    3    3    0    0 -0.42497758537E+02  0.89543185812E+01  0.79547359582E+01  0.44153336522E+02  0.00000000000E+00 0.  1.
         11    1    3    3    0    0  0.26878179563E+02  0.66321571509E+02 -0.28065999707E+02  0.76867988939E+02  0.00000000000E+00 0. -1.
</event>
<event>
 7    1  0.4687179E-006  0.9109115E+02  0.7561462E-02  0.1300231E+00
          1   -1    0    0  501    0  0.00000000000E+00  0.00000000000E+00  0.34830001987E+03  0.34830001987E+03  0.00000000000E+00 0. -1.
         -1   -1    0    0    0  501 -0.00000000000E+00 -0.00000000000E+00 -0.33952751888E+03  0.33952751888E+03  0.00000000000E+00 0.  1.
         23    2    1    2    0    0 -0.47086527159E+02 -0.43946381902E+02  0.32465416156E+03  0.34425472970E+03  0.94670844403E+02 0.  0.
          5    1    1    2  502    0  0.37480077127E+02  0.19204525245E+02 -0.20594288720E+02  0.47065561712E+02  0.41800000000E+01 0. -1.
         -5    1    1    2    0  502  0.96064500323E+01  0.24741856656E+02 -0.29528737184E+03  0.29650724734E+03  0.41800000000E+01 0.  1.
        -11    1    3    3    0    0  0.19879362219E+02  0.14099404381E+02  0.95507368733E+02  0.98567944730E+02  0.00000000000E+00 0.  1.
         11    1    3    3    0    0 -0.66965889378E+02 -0.58045786283E+02  0.22914679283E+03  0.24568678497E+03  0.00000000000E+00 0. -1.
</event>
<event>
 7    1  0.4687179E-006  0.1944958E+03  0.7561462E-02  0.1154468E+00
          1   -1    0    0  501    0  0.00000000000E+00  0.00000000000E+00  0.68241265543E+02  0.68241265543E+02  0.00000000000E+00 0. -1.
         -1   -1    0    0    0  501 -0.00000000000E+00 -0.00000000000E+00 -0.71751554256E+03  0.71751554256E+03  0.00000000000E+00 0.  1.
         23    2    1    2    0    0  0.72175538488E+02  0.16889911900E+03 -0.20916288762E+03  0.29272540239E+03  0.90569458944E+02 0.  0.
          5    1    1    2  502    0 -0.23763208024E+02 -0.42998957921E+02 -0.22576078649E+02  0.54228702410E+02  0.41800000000E+01 0. -1.
         -5    1    1    2    0  502 -0.48412330464E+02 -0.12590016108E+03 -0.41753531075E+03  0.43880270330E+03  0.41800000000E+01 0. -1.
        -11    1    3    3    0    0  0.92103173677E+02  0.11543360550E+03 -0.14775486373E+03  0.20890048261E+03  0.00000000000E+00 0.  1.
         11    1    3    3    0    0 -0.19927635189E+02  0.53465513503E+02 -0.61408023883E+02  0.83824919776E+02  0.00000000000E+00 0. -1.
</event>
<event>
 7    1  0.4687179E-006  0.1290302E+03  0.7561462E-02  0.1228902E+00
         -1   -1    0    0    0  501 -0.00000000000E+00  0.00000000000E+00  0.13105725419E+03  0.13105725419E+03  0.00000000000E+00 0.  1.
          1   -1    0    0  501    0  0.00000000000E+00 -0.00000000000E+00 -0.13905274328E+03  0.13905274328E+03  0.00000000000E+00 0. -1.
         23    2    1    2    0    0 -0.69136059377E+02 -0.15872242795E+02 -0.40667452503E+02  0.12264154159E+03  0.91407785410E+02 0.  0.
          5    1    1    2  502    0  0.10572710047E+03  0.15036679925E+02  0.21979064394E+02  0.10910945508E+03  0.41800000000E+01 0. -1.
         -5    1    1    2    0  502 -0.36591041090E+02  0.83556287021E+00  0.10692899019E+02  0.38359000806E+02  0.41800000000E+01 0. -1.
        -11    1    3    3    0    0  0.94380630646E+01  0.24323600202E+02 -0.17423245219E+02  0.31373301312E+02  0.00000000000E+00 0.  1.
         11    1    3    3    0    0 -0.78574122442E+02 -0.40195842997E+02 -0.23244207284E+02  0.91268240281E+02  0.00000000000E+00 0. -1.
</event>
<event>
 7    1  0.4687179E-006  0.6532170E+02  0.7561462E-02  0.1376765E+00
          3   -1    0    0  501    0  0.00000000000E+00  0.00000000000E+00  0.22723791653E+03  0.22723791653E+03  0.00000000000E+00 0. -1.
         -3   -1    0    0    0  501 -0.00000000000E+00 -0.00000000000E+00 -0.53720719617E+02  0.53720719617E+02  0.00000000000E+00 0.  1.
         23    2    1    2    0    0  0.20976513653E+01  0.18971706499E+02  0.88768301415E+02  0.12866308923E+03  0.91159494329E+02 0.  0.
          5    1    1    2  502    0 -0.29445149014E+02 -0.25829345007E+02 -0.19689479284E+02  0.44037709505E+02  0.41800000000E+01 0.  1.
         -5    1    1    2    0  502  0.27347497649E+02  0.68576385079E+01  0.10443837478E+03  0.10825783741E+03  0.41800000000E+01 0.  1.
        -11    1    3    3    0    0 -0.26326013238E+02  0.21807722343E+02 -0.12633233442E+01  0.34208649676E+02  0.00000000000E+00 0.  1.
         11    1    3    3    0    0  0.28423664603E+02 -0.28360158438E+01  0.90031624759E+02  0.94454439558E+02  0.00000000000E+00 0. -1.
</event>
<event>
 7    1  0.4687179E-006  0.2698875E+03  0.7561462E-02  0.1101344E+00
         -2   -1    0    0    0  501 -0.00000000000E+00  0.00000000000E+00  0.37161467811E+02  0.37161467811E+02  0.00000000000E+00 0.  1.
          2   -1    0    0  501    0  0.00000000000E+00 -0.00000000000E+00 -0.21597784432E+04  0.21597784432E+04  0.00000000000E+00 0. -1.
         23    2    1    2    0    0  0.11344844061E+03 -0.23551463882E+03 -0.10144561051E+04  0.10515127404E+04  0.90665099602E+02 0.  0.
          5    1    1    2  502    0 -0.11059952951E+03  0.18984779995E+03 -0.10417222053E+04  0.10646488005E+04  0.41800000000E+01 0. -1.
         -5    1    1    2    0  502 -0.28489110972E+01  0.45666838869E+02 -0.66438665062E+02  0.80778370137E+02  0.41800000000E+01 0. -1.
        -11    1    3    3    0    0  0.75590206386E+02 -0.65889475459E+02 -0.44325735664E+03  0.45445834407E+03  0.00000000000E+00 0. -1.
         11    1    3    3    0    0  0.37858234226E+02 -0.16962516336E+03 -0.57119874844E+03  0.59705439632E+03  0.00000000000E+00 0.  1.
</event>
<event>
 7    1  0.4687179E-006  0.2680046E+03  0.7561462E-02  0.1102427E+00
          2   -1    0    0  501    0  0.00000000000E+00  0.00000000000E+00  0.48219630756E+03  0.48219630756E+03  0.00000000000E+00 0.  1.
         -2   -1    0    0    0  501 -0.00000000000E+00 -0.00000000000E+00 -0.16173113233E+03  0.16173113233E+03  0.00000000000E+00 0. -1.
         23    2    1    2    0    0  0.25531872968E+03 -0.20859827419E+02  0.16460963485E+03  0.31902290407E+03  0.95165620434E+02 0.  0.
          5    1    1    2  502    0 -0.25300243202E+03  0.28339217850E+01  0.11100069219E+03  0.27632750096E+03  0.41800000000E+01 0.  1.
         -5    1    1    2    0  502 -0.23162976627E+01  0.18025905634E+02  0.44854848194E+02  0.48577034855E+02  0.41800000000E+01 0.  1.
        -11    1    3    3    0    0  0.18403155089E+03  0.14749373110E+02  0.15029235067E+03  0.23806080400E+03  0.00000000000E+00 0.  1.
         11    1    3    3    0    0  0.71287178787E+02 -0.35609200529E+02  0.14317284176E+02  0.80962100071E+02  0.00000000000E+00 0. -1.
</event>
<event>
 7    1  0.4687179E-006  0.7988081E+02  0.7561462E-02  0.1329390E+00
         -1   -1    0    0    0  501 -0.00000000000E+00  0.00000000000E+00  0.54427038135E+02  0.54427038135E+02  0.00000000000E+00 0.  1.
          1   -1    0    0  501    0  0.00000000000E+00 -0.00000000000E+00 -0.25144955600E+03  0.25144955600E+03  0.00000000000E+00 0. -1.
         23    2    1    2    0    0  0.33292830121E+02  0.28158795600E+02 -0.95217062684E+02  0.13880401503E+03  0.91098492062E+02 0.  0.
          5    1    1    2  502    0 -0.38329107083E+02 -0.32917643820E+02 -0.12905041543E+03  0.13865126702E+03  0.41800000000E+01 0.  1.
         -5    1    1    2    0  502  0.50362769622E+01  0.47588482205E+01  0.27244960243E+02  0.28421312085E+02  0.41800000000E+01 0.  1.
        -11    1    3    3    0    0 -0.14017138645E+02 -0.25707224115E+02 -0.26256270772E+02  0.39328530387E+02  0.00000000000E+00 0.  1.
         11    1    3    3    0    0  0.47309968766E+02  0.53866019715E+02 -0.68960791912E+02  0.99475484647E+02  0.00000000000E+00 0. -1.
</event>
<event>
 7    1  0.4687179E-006  0.1325819E+03  0.7561462E-02  0.1223674E+00
          2   -1    0    0  501    0  0.00000000000E+00  0.00000000000E+00  0.53350796192E+02  0.53350796192E+02  0.00000000000E+00 0. -1.
         -2   -1    0    0    0  501 -0.00000000000E+00 -0.00000000000E+00 -0.38559958524E+03  0.38559958524E+03  0.00000000000E+00 0.  1.
         23    2    1    2    0    0  0.83646951815E+02 -0.42295068202E+02 -0.11831248648E+03  0.17399296963E+03  0.86544922916E+02 0.  0.
          5    1    1    2  502    0  0.27421201779E+02  0.34919710007E+02 -0.53624465389E+02  0.69744993671E+02  0.41800000000E+01 0. -1.
         -5    1    1    2    0  502 -0.11106815359E+03  0.73753581954E+01 -0.16031183718E+03  0.19521241813E+03  0.41800000000E+01 0. -1.
        -11    1    3    3    0    0  0.65136766623E+02 -0.23817838193E+01 -0.11194470882E+03  0.12953798320E+03  0.00000000000E+00 0.  1.
         11    1    3    3    0    0  0.18510185192E+02 -0.39913284383E+02 -0.63677776623E+01  0.44454986430E+02  0.00000000000E+00 0. -1.
</event>
<event>
 7    1  0.4687179E-006  0.1779710E+03  0.7561462E-02  0.1169781E+00
         -4   -1    0    0    0  501 -0.00000000000E+00  0.00000000000E+00  0.21390986936E+03  0.21390986936E+03  0.00000000000E+00 0.  1.
          4   -1    0    0  501    0  0.00000000000E+00 -0.00000000000E+00 -0.16354428042E+03  0.16354428042E+03  0.00000000000E+00 0. -1.
         23    2    1    2    0    0 -0.28667817163E+02 -0.14967239835E+03  0.36232108953E+02  0.17979066663E+03  0.88251048266E+02 0.  0.
          5    1    1    2  502    0 -0.20787306979E+02 -0.63456141248E+01 -0.20669396254E+02  0.30283251007E+02  0.41800000000E+01 0. -1.
         -5    1    1    2    0  502  0.49455124142E+02  0.15601801247E+03  0.34802876241E+02  0.16738023215E+03  0.41800000000E+01 0. -1.
        -11    1    3    3    0    0  0.26063626304E+02 -0.48001170976E+02 -0.97882545723E+01  0.55490854731E+02  0.00000000000E+00 0. -1.
         11    1    3    3    0    0 -0.54731443467E+02 -0.10167122737E+03  0.46020363525E+02  0.12429981190E+03  0.00000000000E+00 0.  1.
</event>
<event>
 7    1  0.4687179E-006  0.1287658E+03  0.7561462E-02  0.1229299E+00
          2   -1    0    0  501    0  0.00000000000E+00  0.00000000000E+00  0.64737694180E+03  0.64737694180E+03  0.00000000000E+00 0. -1.
         -2   -1    0    0    0  501 -0.00000000000E+00 -0.00000000000E+00 -0.29427915891E+02  0.29427915891E+02  0.00000000000E+00 0.  1.
         23    2    1    2    0    0 -0.12752892795E+02 -0.72083700158E+02  0.37822310085E+03  0.39667130319E+03  0.94534187733E+02 0.  0.
          5    1    1    2  502    0  0.31034600784E+01  0.10637317369E+03  0.15431608175E+03  0.18749882408E+03  0.41800000000E+01 0.  1.
         -5    1    1    2    0  502  0.96494327166E+01 -0.34289473532E+02  0.85409843307E+02  0.92634730423E+02  0.41800000000E+01 0.  1.
        -11    1    3    3    0    0  0.36946817606E+02 -0.46114200518E+02  0.14042129137E+03  0.15234738557E+03  0.00000000000E+00 0.  1.
         11    1    3    3    0    0 -0.49699710401E+02 -0.25969499640E+02  0.23780180948E+03  0.24432391762E+03  0.00000000000E+00 0. -1.
</event>
<event>
 6    1  0.4687179E-006  0.2004291E+03  0.7561462E-02  0.1149378E+00
         -2   -1    0    0    0  501 -0.00000000000E+00  0.00000000000E+00  0.26720230296E+03  0.26720230296E+03  0.00000000000E+00 0.  1.
          2   -1    0    0  501    0  0.00000000000E+00 -0.00000000000E+00 -0.19648762816E+03  0.19648762816E+03  0.00000000000E+00 0. -1.
          5    1    1    2  502    0 -0.17388607744E+02  0.13740090761E+03  0.75140249370E+02  0.15762265880E+03  0.41800000000E+01 0.  1.
         -5    1    1    2    0  502 -0.53016939267E+02 -0.51185814638E+01  0.56837128192E+02  0.78005943789E+02  0.41800000000E+01 0.  1.
        -11    1    1    2    0    0  0.11586666248E+03 -0.10076235644E+03 -0.75252939243E+02  0.17100041174E+03  0.00000000000E+00 0. -1.
         11    1    1    2    0    0 -0.45461115467E+02 -0.31519969705E+02  0.13990236477E+02  0.57060916803E+02  0.00000000000E+00 0.  1.
</event>
<event>
 7    1  0.4687179E-006  0.1753242E+03  0.7561462E-02  0.1172407E+00
         -2   -1    0    0    0  501 -0.00000000000E+00  0.00000000000E+00  0.12978546079E+03  0.12978546079E+03  0.00000000000E+00 0. -1.
          2   -1    0    0  501    0  0.00000000000E+00 -0.00000000000E+00 -0.28346707761E+03  0.28346707761E+03  0.00000000000E+00 0.  1.
         23    2    1    2    0    0  0.84256026596E+02  0.11408018349E+03 -0.14928826614E+03  0.22409598365E+03  0.88423171151E+02 0.  0.
          5    1    1    2  502    0 -0.44237790537E+02 -0.13230695926E+03 -0.22586070094E+02  0.14138499405E+03  0.41800000000E+01 0.  1.
         -5    1    1    2    0  502 -0.40018236059E+02  0.18226775768E+02  0.18192719413E+02  0.47771560701E+02  0.41800000000E+01 0.  1.
        -11    1    3    3    0    0 -0.17513719060E+02  0.61473215205E+01 -0.20387693400E+02  0.27571324948E+02  0.00000000000E+00 0.  1.
         11    1    3    3    0    0  0.10176974566E+03  0.10793286197E+03 -0.12890057274E+03  0.19652465870E+03  0.00000000000E+00 0. -1.
</event>
<event>
 7    1  0.4687179E-006  0.1051395E+03  0.7561462E-02  0.1269845E+00
         -3   -1    0    0    0  501 -0.00000000000E+00  0.00000000000E+00  0.26941064216E+03  0.26941064216E+03  0.00000000000E+00 0.  1.
          3   -1    0    0  501    0  0.00000000000E+00 -0.00000000000E+00 -0.47397916635E+02  0.47397916635E+02  0.00000000000E+00 0. -1.
         23    2    1    2    0    0 -0.83055318946E+01 -0.26050909641E+02  0.72790514330E+02  0.12018164503E+03  0.91638076539E+02 0.  0.
          5    1    1    2  502    0 -0.19125186902E+02  0.65465843668E+02  0.45053706991E+02  0.81846553836E+02  0.41800000000E+01 0.  1.
         -5    1    1    2    0  502  0.27430718797E+02 -0.39414934027E+02  0.10416850420E+03  0.11478035993E+03  0.41800000000E+01 0.  1.
        -11    1    3    3    0    0  0.75667710683E+01  0.32352101917E+02  0.37585965991E+02  0.50165918335E+02  0.00000000000E+00 0.  1.
         11    1    3    3    0    0 -0.15872302963E+02 -0.58403011559E+02  0.35204548338E+02  0.70015726692E+02  0.00000000000E+00 0. -1.
</event>
<event>
 7    1  0.4687179E-006  0.9296535E+02  0.7561462E-02  0.1295825E+00
         -1   -1    0    0    0  501 -0.00000000000E+00  0.00000000000E+00  0.29272882838E+02  0.29272882838E+02  0.00000000000E+00 0.  1.
          1   -1    0    0  501    0  0.00000000000E+00 -0.00000000000E+00 -0.50291646438E+03  0.50291646438E+03  0.00000000000E+00 0. -1.
         23    2    1    2    0    0 -0.55793481835E+02  0.84681552745E+01 -0.19214597637E+03  0.21902525165E+03  0.88698153054E+02 0.  0.
          5    1    1    2  502    0 -0.94494204518E+01 -0.14847343867E+02  0.53722864319E+01  0.18869791422E+02  0.41800000000E+01 0. -1.
         -5    1    1    2    0  502  0.65242902287E+02  0.63791885929E+01 -0.28686989161E+03  0.29429430415E+03  0.41800000000E+01 0. -1.
        -11    1    3    3    0    0 -0.75453018150E+02 -0.88305294458E+01 -0.11749989755E+03  0.13991912708E+03  0.00000000000E+00 0.  1.
         11    1    3    3    0    0  0.19659536315E+02  0.17298684720E+02 -0.74646078818E+02  0.79106124567E+02  0.00000000000E+00 0. -1.
</event>
<event>
 7    1  0.4687179E-006  0.1349567E+03  0.7561462E-02  0.1220281E+00
          2   -1    0    0  501    0  0.00000000000E+00  0.00000000000E+00  0.34062415225E+03  0.34062415225E+03  0.00000000000E+00 0. -1.
         -2   -1    0    0    0  501 -0.00000000000E+00 -0.00000000000E+00 -0.74638206966E+02  0.74638206966E+02  0.00000000000E+00 0.  1.
         23    2    1    2    0    0  0.49249813069E+02 -0.62744634213E+01  0.19982580502E+03  0.22553395396E+03  0.92034227634E+02 0.  0.
          5    1    1    2  502    0 -0.93588026702E+02  0.54066294642E+02  0.61050334980E+02  0.12420345712E+03  0.41800000000E+01 0. -1.
         -5    1    1    2    0  502  0.44338213633E+02 -0.47791831221E+02  0.51098052852E+01  0.65524948147E+02  0.41800000000E+01 0.  1.
        -11    1    3    3    0    0  0.10219662927E+02  0.36861407650E+02  0.39523800549E+02  0.55003051680E+02  0.00000000000E+00 0. -1.
         11    1    3    3    0    0  0.39030150142E+02 -0.43135871072E+02  0.16030200447E+03  0.17053090227E+03  0.00000000000E+00 0.  1.
</event>
<event>
 7    1  0.4687179E-006  0.1408486E+03  0.7561462E-02  0.1212192E+00
          1   -1    0    0  501    0  0.00000000000E+00  0.00000000000E+00  0.36123458288E+03  0.36123458288E+03  0.00000000000E+00 0. -1.
         -1   -1    0    0    0  501 -0.00000000000E+00 -0.00000000000E+00 -0.60501787663E+02  0.60501787663E+02  0.00000000000E+00 0.  1.
         23    2    1    2    0    0 -0.65457678458E+02  0.72644454840E+02  0.16567888725E+03  0.21329280314E+03  0.92099954957E+02 0.  0.
          5    1    1    2  502    0  0.92454731916E+02 -0.14906723294E+02  0.92474003391E+02  0.13167764258E+03  0.41800000000E+01 0.  1.
         -5    1    1    2    0  502 -0.26997053458E+02 -0.57737731546E+02  0.42579904574E+02  0.76765924817E+02  0.41800000000E+01 0.  1.
        -11    1    3    3    0    0 -0.67735283826E+02  0.86598152141E+02  0.10877454943E+03  0.15465836942E+03  0.00000000000E+00 0.  1.
         11    1    3    3    0    0  0.22776053679E+01 -0.13953697301E+02  0.56904337817E+02  0.58634433714E+02  0.00000000000E+00 0. -1.
</event>
<event>
 7    1  0.4687179E-006  0.7263284E+02  0.7561462E-02  0.1351362E+00
          2   -1    0    0  501    0  0.00000000000E+00  0.00000000000E+00  0.33451604575E+03  0.33451604575E+03  0.00000000000E+00 0. -1.
         -2   -1    0    0    0  501 -0.00000000000E+00 -0.00000000000E+00 -0.46018143802E+02  0.46018143802E+02  0.00000000000E+00 0.  1.
         23    2    1    2    0    0 -0.19563069800E+02 -0.49639538550E+02  0.16612628612E+03  0.19758894466E+03  0.92718124577E+02 0.  0.
          5    1    1    2  502    0  0.45481939629E+02  0.29359794873E+02  0.13648891544E+03  0.14689214010E+03  0.41800000000E+01 0. -1.
         -5    1    1    2    0  502 -0.25918869829E+02  0.20279743677E+02 -0.14117299605E+02  0.36053104789E+02  0.41800000000E+01 0. -1.
        -11    1    3    3    0    0  0.18717401633E+01 -0.25274387556E+02 -0.28695368864E+01  0.25505535076E+02  0.00000000000E+00 0.  1.
         11    1    3    3    0    0 -0.21434809963E+02 -0.24365150994E+02  0.16899582301E+03  0.17208340959E+03  0.00000000000E+00 0. -1.
</event>
<event>
 7    1  0.4687179E-006  0.9198953E+02  0.7561462E-02  0.1298104E+00
          2   -1    0    0  501    0  0.00000000000E+00  0.00000000000E+00  0.35599562369E+03  0.35599562369E+03  0.00000000000E+00 0. -1.
         -2   -1    0    0    0  501 -0.00000000000E+00 -0.00000000000E+00 -0.37784815370E+02  0.37784815370E+02  0.00000000000E+00 0.  1.
         23    2    1    2    0    0 -0.43182600361E+02  0.69069578806E+01  0.15989711611E+03  0.18732285000E+03  0.87237144333E+02 0.  0.
          5    1    1    2  502    0 -0.12053874999E+02 -0.28005657138E+02 -0.63731501370E+01  0.31427729427E+02  0.41800000000E+01 0. -1.
         -5    1    1    2    0  502  0.55236475360E+02  0.21098699258E+02  0.16468684234E+03  0.17502985963E+03  0.41800000000E+01 0. -1.
        -11    1    3    3    0    0  0.15222669455E+02  0.27967097547E+02  0.31949575011E+02  0.45107245027E+02  0.00000000000E+00 0. -1.
         11    1    3    3    0    0 -0.58405269815E+02 -0.21060139667E+02  0.12794754110E+03  0.14221560498E+03  0.00000000000E+00 0.  1.
</event>
<event>
 7    1  0.4687179E-006  0.1048810E+03  0.7561462E-02  0.1270354E+00
         -4   -1    0    0    0  501 -0.00000000000E+00  0.00000000000E+00  0.13197458245E+04  0.13197458245E+04  0.00000000000E+00 0.  1.
          4   -1    0    0  501    0  0.00000000000E+00 -0.00000000000E+00 -0.15755702466E+02  0.15755702466E+02  0.00000000000E+00 0. -1.
         23    2    1    2    0    0  0.21628218939E+02  0.49960979712E+02  0.24180103891E+03  0.26458705166E+03  0.92599601182E+02 0.  0.
          5    1    1    2  502    0 -0.48172998800E+02  0.25240542980E+02  0.52428082905E+03  0.52711059839E+03  0.41800000000E+01 0.  1.
         -5    1    1    2    0  502  0.26544779861E+02 -0.75201522692E+02  0.53790825411E+03  0.54380387696E+03  0.41800000000E+01 0.  1.
        -11    1    3    3    0    0 -0.28170807835E+01  0.50819851241E+02  0.23315143720E+03  0.23864238075E+03  0.00000000000E+00 0.  1.
         11    1    3    3    0    0  0.24445299722E+02 -0.85887152874E+00  0.86496017191E+01  0.25944670912E+02  0.00000000000E+00 0. -1.
</event>
<event>
 7    1  0.4687179E-006  0.1468233E+03  0.7561462E-02  0.1204432E+00
          1   -1    0    0  501    0  0.00000000000E+00  0.00000000000E+00  0.18087433503E+03  0.18087433503E+03  0.00000000000E+00 0. -1.
         -1   -1    0    0    0  501 -0.00000000000E+00 -0.00000000000E+00 -0.15923248952E+03  0.15923248952E+03  0.00000000000E+00 0.  1.
         23    2    1    2    0    0 -0.12633270549E+03 -0.45221193518E+01  0.41356061443E+02  0.16117478625E+03  0.91030686383E+02 0.  0.
          5    1    1    2  502    0  0.36154408790E+02 -0.38147483184E+02 -0.51938391343E+02  0.74009733438E+02  0.41800000000E+01 0.  1.
         -5    1    1    2    0  502  0.90178296702E+02  0.42669602535E+02  0.32224175413E+02  0.10492230486E+03  0.41800000000E+01 0.  1.
        -11    1    3    3    0    0  0.11438676659E+01 -0.13246895654E+02 -0.16265372811E+02  0.21008356204E+02  0.00000000000E+00 0.  1.
         11    1    3    3    0    0 -0.12747657316E+03  0.87247763021E+01  0.57621434254E+02  0.14016643004E+03  0.00000000000E+00 0. -1.
</event>
<event>
 7    1  0.4687179E-006  0.1347754E+03  0.7561462E-02  0.1220537E+00
          2   -1    0    0  501    0  0.00000000000E+00  0.00000000000E+00  0.78372904989E+03  0.78372904989E+03  0.00000000000E+00 0. -1.
         -2   -1    0    0    0  501 -0.00000000000E+00 -0.00000000000E+00 -0.39901824024E+02  0.39901824024E+02  0.00000000000E+00 0.  1.
         23    2    1    2    0    0  0.11745687028E+03 -0.17671916392E+02  0.51912693186E+03  0.54033653173E+03  0.91446066838E+02 0.  0.
          5    1    1    2  502    0 -0.41767687365E+02 -0.34430654794E+01 -0.31534910361E+01  0.42235190462E+02  0.41800000000E+01 0. -1.
         -5    1    1    2    0  502 -0.75689182911E+02  0.21114981872E+02  0.22785378504E+03  0.24105915172E+03  0.41800000000E+01 0. -1.
        -11    1    3    3    0    0  0.61770978146E+02 -0.54172872056E+02  0.25297203000E+03  0.26597970180E+03  0.00000000000E+00 0.  1.
         11    1    3    3    0    0  0.55685892129E+02  0.36500955664E+02  0.26615490186E+03  0.27435682994E+03  0.00000000000E+00 0. -1.
</event>
<event>
 7    1  0.4687179E-006  0.9751797E+02  0.7561462E-02  0.1285604E+00
          2   -1    0    0  501    0  0.00000000000E+00  0.00000000000E+00  0.70139834845E+03  0.70139834845E+03  0.00000000000E+00 0. -1.
         -2   -1    0    0    0  501 -0.00000000000E+00 -0.00000000000E+00 -0.22166845847E+02  0.22166845847E+02  0.00000000000E+00 0.  1.
         23    2    1    2    0    0 -0.51111299444E+02  0.32980573249E+02  0.36388574941E+03  0.37996862496E+03  0.90902333233E+02 0.  0.
          5    1    1    2  502    0  0.34008555032E+01  0.18515474543E+02  0.23907906823E+03  0.23985550209E+03  0.41800000000E+01 0. -1.
         -5    1    1    2    0  502  0.47710443941E+02 -0.51496047792E+02  0.76266684969E+02  0.10374106726E+03  0.41800000000E+01 0.  1.
        -11    1    3    3    0    0 -0.13835311856E+02  0.58590294021E+02  0.25607207955E+03  0.26305350849E+03  0.00000000000E+00 0. -1.
         11    1    3    3    0    0 -0.37275987588E+02 -0.25609720772E+02  0.10781366986E+03  0.11691511646E+03  0.00000000000E+00 0.  1.
</event>
<event>
 7    1  0.4687179E-006  0.8440568E+02  0.7561462E-02  0.1316994E+00
         -1   -1    0    0    0  501 -0.00000000000E+00  0.00000000000E+00  0.28661983397E+02  0.28661983397E+02  0.00000000000E+00 0.  1.
          1   -1    0    0  501    0  0.00000000000E+00 -0.00000000000E+00 -0.49301455680E+03  0.49301455680E+03  0.00000000000E+00 0. -1.
         23    2    1    2    0    0 -0.16469612831E+02 -0.42335863078E+02 -0.24840054496E+03  0.26801137672E+03  0.89798072715E+02 0.  0.
          5    1    1    2  502    0  0.26362045465E+02  0.81700413622E+00 -0.20841963899E+03  0.21012340006E+03  0.41800000000E+01 0.  1.
         -5    1    1    2    0  502 -0.98924326340E+01  0.41518858941E+02 -0.75323894586E+01  0.43541763425E+02  0.41800000000E+01 0.  1.
        -11    1    3    3    0    0  0.35660562445E+02 -0.27468851238E+02 -0.13528793068E+03  0.14257993439E+03  0.00000000000E+00 0. -1.
         11    1    3    3    0    0 -0.52130175276E+02 -0.14867011839E+02 -0.11311261428E+03  0.12543144233E+03  0.00000000000E+00 0.  1.
</event>
<event>
 7    1  0.4687179E-006  0.9071043E+02  0.7561462E-02  0.1301140E+00
          1   -1    0    0  501    0  0.00000000000E+00  0.00000000000E+00  0.23055936130E+03  0.23055936130E+03  0.00000000000E+00 0. -1.
         -1   -1    0    0    0  501 -0.00000000000E+00 -0.00000000000E+00 -0.60981293128E+02  0.60981293128E+02  0.00000000000E+00 0.  1.
         23    2    1    2    0    0  0.38552710271E+01 -0.34804091118E+02  0.70885177675E+02  0.12004394432E+03  0.90330793641E+02 0.  0.
          5    1    1    2  502    0 -0.16171818662E+02 -0.43953312770E+02  0.33350166108E+01  0.47138266389E+02  0.41800000000E+01 0. -1.
         -5    1    1    2    0  502  0.12316547635E+02  0.78757403888E+02  0.95357873886E+02  0.12435844372E+03  0.41800000000E+01 0.  1.
        -11    1    3    3    0    0 -0.95476388236E+00 -0.44099777280E+02  0.88881635344E+02  0.99225233845E+02  0.00000000000E+00 0. -1.
         11    1    3    3    0    0  0.48100349095E+01  0.92956861620E+01 -0.17996457669E+02  0.20818710471E+02  0.00000000000E+00 0.  1.
</event>
<event>
 7    1  0.4687179E-006  0.1082992E+03  0.7561462E-02  0.1263752E+00
         -1   -1    0    0    0  501 -0.00000000000E+00  0.00000000000E+00  0.52803569829E+02  0.52803569829E+02  0.00000000000E+00 0.  1.
          1   -1    0    0  501    0  0.00000000000E+00 -0.00000000000E+00 -0.28297367980E+03  0.28297367980E+03  0.00000000000E+00 0. -1.
         23    2    1    2    0    0  0.23661996850E+00  0.39232965605E+02 -0.15807685930E+03  0.18615785273E+03  0.90150824225E+02 0.  0.
          5    1    1    2  502    0  0.10588131428E+02  0.42477188680E+02 -0.70461861691E+01  0.44536964701E+02  0.41800000000E+01 0. -1.
         -5    1    1    2    0  502 -0.10824751397E+02 -0.81710154285E+02 -0.65047064507E+02  0.10508243220E+03  0.41800000000E+01 0. -1.
        -11    1    3    3    0    0  0.37018971507E+02  0.38345889631E+02 -0.54456646662E+02  0.76199329844E+02  0.00000000000E+00 0.  1.
         11    1    3    3    0    0 -0.36782351539E+02  0.88707597379E+00 -0.10362021264E+03  0.10995852289E+03  0.00000000000E+00 0. -1.
</event>
<event>
 7    1  0.4687179E-006  0.1022584E+03  0.7561462E-02  0.1275617E+00
         -1   -1    0    0    0  501 -0.00000000000E+00  0.00000000000E+00  0.93892637150E+03  0.93892637150E+03  0.00000000000E+00 0.  1.
          1   -1    0    0  501    0  0.00000000000E+00 -0.00000000000E+00 -0.25730870483E+02  0.25730870483E+02  0.00000000000E+00 0. -1.
         23    2    1    2    0    0 -0.15534789506E+02  0.17118429072E+02  0.70586599387E+02  0.11249917782E+03  0.84493944748E+02 0.  0.
          5    1    1    2  502    0  0.75976861459E+01  0.49506832298E+02  0.20746388016E+03  0.21346518510E+03  0.41800000000E+01 0. -1.
         -5    1    1    2    0  502  0.79371033605E+01 -0.66625261370E+02  0.63514502147E+03  0.63869287906E+03  0.41800000000E+01 0. -1.
        -11    1    3    3    0    0  0.43222454725E+01 -0.32916253094E+02  0.20812354576E+02  0.39183103842E+02  0.00000000000E+00 0.  1.
         11    1    3    3    0    0 -0.19857034979E+02  0.50034682166E+02  0.49774244811E+02  0.73316073982E+02  0.00000000000E+00 0. -1.
</event>
<event>
 7    1  0.4687179E-006  0.1261497E+03  0.7561462E-02  0.1233283E+00
          2   -1    0    0  501    0  0.00000000000E+00  0.00000000000E+00  0.76474375206E+02  0.76474375206E+02  0.00000000000E+00 0. -1.
         -2   -1    0    0    0  501 -0.00000000000E+00 -0.00000000000E+00 -0.25442298285E+03  0.25442298285E+03  0.00000000000E+00 0.  1.
         23    2    1    2    0    0 -0.86436690898E+02 -0.48835377313E+01 -0.61590470022E+02  0.13937097265E+03  0.90198290142E+02 0.  0.
          5    1    1    2  502    0  0.70482401651E+02 -0.54842978130E+02 -0.59197078285E+02  0.10722540590E+03  0.41800000000E+01 0. -1.
         -5    1    1    2    0  502  0.15954289247E+02  0.59726515862E+02 -0.57161059340E+02  0.84300979515E+02  0.41800000000E+01 0. -1.
        -11    1    3    3    0    0 -0.32321383404E+02  0.23371848233E+02  0.13941826771E+02  0.42252688064E+02  0.00000000000E+00 0. -1.
         11    1    3    3    0    0 -0.54115307495E+02 -0.28255385964E+02 -0.75532296793E+02  0.97118284581E+02  0.00000000000E+00 0.  1.
</event>
<event>
 7    1  0.4687179E-006  0.1173522E+03  0.7561462E-02  0.1247530E+00
          1   -1    0    0  501    0  0.00000000000E+00  0.00000000000E+00  0.88248731867E+02  0.88248731867E+02  0.00000000000E+00 0. -1.
         -1   -1    0    0    0  501 -0.00000000000E+00 -0.00000000000E+00 -0.24572136741E+03  0.24572136741E+03  0.00000000000E+00 0.  1.
         23    2    1    2    0    0 -0.37546931216E+02  0.44632286067E+01  0.16073398830E+02  0.10195073044E+03  0.93305438391E+02 0.  0.
          5    1    1    2  502    0 -0.23740652729E+02 -0.52287607399E+02 -0.21982173050E+02  0.61630356250E+02  0.41800000000E+01 0. -1.
         -5    1    1    2    0  502  0.61287583944E+02  0.47824378792E+02 -0.15156386132E+03  0.17038901259E+03  0.41800000000E+01 0.  1.
        -11    1    3    3    0    0  0.11719729883E+02  0.37942187989E+02  0.14776773896E+02  0.42371154630E+02  0.00000000000E+00 0.  1.
         11    1    3    3    0    0 -0.49266661098E+02 -0.33478959382E+02  0.12966249336E+01  0.59579575807E+02  0.00000000000E+00 0. -1.
</event>
<event>
 7    1  0.4687179E-006  0.1082996E+03  0.7561462E-02  0.1263752E+00
          3   -1    0    0  501    0  0.00000000000E+00  0.00000000000E+00  0.91208704799E+02  0.91208704799E+02  0.00000000000E+00 0. -1.
         -3   -1    0    0    0  501 -0.00000000000E+00 -0.00000000000E+00 -0.18704507557E+03  0.18704507557E+03  0.00000000000E+00 0.  1.
         23    2    1    2    0    0  0.28011938576E+02 -0.28834141747E+02  0.20535277230E+02  0.10273961606E+03  0.92291140770E+02 0.  0.
          5    1    1    2  502    0 -0.75115837347E+02  0.86118105441E+01 -0.90313277111E+02  0.11785801934E+03  0.41800000000E+01 0.  1.
         -5    1    1    2    0  502  0.47103898772E+02  0.20222331203E+02 -0.26058370893E+02  0.57656144966E+02  0.41800000000E+01 0.  1.
        -11    1    3    3    0    0  0.29322624079E+02  0.23201959043E+02 -0.14379858546E+02  0.40061546627E+02  0.00000000000E+00 0.  1.
         11    1    3    3    0    0 -0.13106855037E+01 -0.52036100789E+02  0.34915135776E+02  0.62678069435E+02  0.00000000000E+00 0. -1.
</event>
<event>
 7    1  0.4687179E-006  0.6982969E+02  0.7561462E-02  0.1360673E+00
          1   -1    0    0  501    0  0.00000000000E+00  0.00000000000E+00  0.75197585057E+02  0.75197585057E+02  0.00000000000E+00 0. -1.
         -1   -1    0    0    0  501 -0.00000000000E+00 -0.00000000000E+00 -0.18047856626E+03  0.18047856626E+03  0.00000000000E+00 0.  1.
         23    2    1    2    0    0 -0.20177338070E+02  0.19173107339E+02 -0.91925031495E+01  0.96054093663E+02  0.91472147557E+02 0.  0.
          5    1    1    2  502    0 -0.12873831595E+02 -0.11003552737E+02 -0.11776203638E+03  0.11904697948E+03  0.41800000000E+01 0.  1.
         -5    1    1    2    0  502  0.33051169665E+02 -0.81695546025E+01  0.21673558319E+02  0.40575078174E+02  0.41800000000E+01 0.  1.
        -11    1    3    3    0    0  0.27839231198E+02 -0.12369834235E+02  0.14710496439E+02  0.33829488589E+02  0.00000000000E+00 0. -1.
         11    1    3    3    0    0 -0.48016569268E+02  0.31542941574E+02 -0.23902999589E+02  0.62224605075E+02  0.00000000000E+00 0.  1.
</event>
<event>
 7    1  0.4687179E-006  0.8832952E+02  0.7561462E-02  0.1306948E+00
         -1   -1    0    0    0  501 -0.00000000000E+00  0.00000000000E+00  0.62640967567E+02  0.62640967567E+02  0.00000000000E+00 0.  1.
          1   -1    0    0  501    0  0.00000000000E+00 -0.00000000000E+00 -0.30353218859E+03  0.30353218859E+03  0.00000000000E+00 0. -1.
         23    2    1    2    0    0  0.33871898660E+02 -0.10862319908E+02 -0.21119786984E+03  0.23277902209E+03  0.91193406469E+02 0.  0.
          5    1    1    2  502    0  0.26620423679E+02 -0.11396016885E+02  0.32498328923E+02  0.43727908028E+02  0.41800000000E+01 0.  1.
         -5    1    1    2    0  502 -0.60492322340E+02  0.22258336793E+02 -0.62191680100E+02  0.89666226041E+02  0.41800000000E+01 0.  1.
        -11    1    3    3    0    0  0.39281087359E+02  0.24986361070E+02 -0.17671530620E+03  0.18274468942E+03  0.00000000000E+00 0. -1.
         11    1    3    3    0    0 -0.54091886982E+01 -0.35848680978E+02 -0.34482563640E+02  0.50034332667E+02  0.00000000000E+00 0.  1.
</event>
<event>
 7    1  0.4687179E-006  0.1656661E+03  0.7561462E-02  0.1182444E+00
         -1   -1    0    0    0  501 -0.00000000000E+00  0.00000000000E+00  0.29633161205E+03  0.29633161205E+03  0.00000000000E+00 0.  1.
          1   -1    0    0  501    0  0.00000000000E+00 -0.00000000000E+00 -0.11022703063E+03  0.11022703063E+03  0.00000000000E+00 0. -1.
         23    2    1    2    0    0  0.82776203422E+02 -0.12144713498E+03  0.75638732497E+02  0.19104933930E+03  0.95798359832E+02 0.  0.
          5    1    1    2  502    0 -0.10872644248E+03  0.86379672744E+02  0.97777474399E+02  0.16988464927E+03  0.41800000000E+01 0. -1.
         -5    1    1    2    0  502  0.25950239055E+02  0.35067462233E+02  0.12688374530E+02  0.45624654111E+02  0.41800000000E+01 0.  1.
        -11    1    3    3    0    0  0.46520829628E+02 -0.48982572723E+02 -0.15283579652E+02  0.69260867933E+02  0.00000000000E+00 0. -1.
         11    1    3    3    0    0  0.36255373793E+02 -0.72464562254E+02  0.90922312149E+02  0.12178847137E+03  0.00000000000E+00 0.  1.
</event>
<event>
 7    1  0.4687179E-006  0.1322253E+03  0.7561462E-02  0.1224191E+00
         -1   -1    0    0    0  501 -0.00000000000E+00  0.00000000000E+00  0.25347765350E+03  0.25347765350E+03  0.00000000000E+00 0.  1.
          1   -1    0    0  501    0  0.00000000000E+00 -0.00000000000E+00 -0.13358995367E+03  0.13358995367E+03  0.00000000000E+00 0. -1.
         23    2    1    2    0    0  0.96252993475E+02 -0.44615799359E+02 -0.51792881312E+02  0.14963031963E+03  0.91932158092E+02 0.  0.
          5    1    1    2  502    0  0.52438284108E+00 -0.32575254403E+02  0.11172826890E+02  0.34694763834E+02  0.41800000000E+01 0.  1.
         -5    1    1    2    0  502 -0.96777376316E+02  0.77191053762E+02  0.16050775425E+03  0.20274252371E+03  0.41800000000E+01 0.  1.
        -11    1    3    3    0    0  0.40852384138E+02 -0.88515242653E+01  0.24767309116E+02  0.48586895069E+02  0.00000000000E+00 0.  1.
         11    1    3    3    0    0  0.55400609337E+02 -0.35764275094E+02 -0.76560190428E+02  0.10104342456E+03  0.00000000000E+00 0. -1.
</event>
<event>
 7    1  0.4687179E-006  0.1927406E+03  0.7561462E-02  0.1156012E+00
          1   -1    0    0  501    0  0.00000000000E+00  0.00000000000E+00  0.28317036195E+03  0.28317036195E+03  0.00000000000E+00 0. -1.
         -1   -1    0    0    0  501 -0.00000000000E+00 -0.00000000000E+00 -0.16368030532E+03  0.16368030532E+03  0.00000000000E+00 0.  1.
         23    2    1    2    0    0 -0.10592815350E+02 -0.18189487467E+03  0.91647171971E+02  0.22409291723E+03  0.92846530661E+02 0.  0.
          5    1    1    2  502    0  0.12852756258E+02  0.88238102858E+02  0.76091103168E+02  0.11729656653E+03  0.41800000000E+01 0.  1.
         -5    1    1    2    0  502 -0.22599409084E+01  0.93656771808E+02 -0.48248218511E+02  0.10546118351E+03  0.41800000000E+01 0.  1.
        -11    1    3    3    0    0  0.35947266570E+02 -0.11823570075E+03  0.40268738824E+02  0.12997483692E+03  0.00000000000E+00 0. -1.
         11    1    3    3    0    0 -0.46540081920E+02 -0.63659173914E+02  0.51378433147E+02  0.94118080309E+02  0.00000000000E+00 0.  1.
</event>
<event>
 7    1  0.4687179E-006  0.1084841E+03  0.7561462E-02  0.1263403E+00
         -2   -1    0    0    0  501 -0.00000000000E+00  0.00000000000E+00  0.42448146790E+03  0.42448146790E+03  0.00000000000E+00 0.  1.
          2   -1    0    0  501    0  0.00000000000E+00 -0.00000000000E+00 -0.35995612816E+02  0.35995612816E+02  0.00000000000E+00 0. -1.
         23    2    1    2    0    0 -0.51307491983E+02 -0.13033389250E+02  0.12158028947E+03  0.16099318584E+03  0.91294639119E+02 0.  0.
          5    1    1    2  502    0  0.59692454224E+02 -0.32677368848E+02  0.23029257418E+03  0.24017314931E+03  0.41800000000E+01 0.  1.
         -5    1    1    2    0  502 -0.83849622409E+01  0.45710758098E+02  0.36612991437E+02  0.59310745566E+02  0.41800000000E+01 0.  1.
        -11    1    3    3    0    0  0.14166207093E+02 -0.31127592915E+02  0.22770149537E+02  0.41086350216E+02  0.00000000000E+00 0. -1.
         11    1    3    3    0    0 -0.65473699076E+02  0.18094203665E+02  0.98810139931E+02  0.11990683563E+03  0.00000000000E+00 0.  1.
</event>
<event>
 7    1  0.4687179E-006  0.9300913E+02  0.7561462E-02  0.1295724E+00
         -1   -1    0    0    0  501 -0.00000000000E+00  0.00000000000E+00  0.12363274163E+03  0.12363274163E+03  0.00000000000E+00 0.  1.
          1   -1    0    0  501    0  0.00000000000E+00 -0.00000000000E+00 -0.10214492643E+03  0.10214492643E+03  0.00000000000E+00 0. -1.
         23    2    1    2    0    0 -0.11919011623E+02 -0.16150146132E+02 -0.32204432705E+02  0.98910402972E+02  0.91341405026E+02 0.  0.
          5    1    1    2  502    0 -0.43936406728E+02  0.27178968126E+02  0.54350045893E+01  0.52116368057E+02  0.41800000000E+01 0. -1.
         -5    1    1    2    0  502  0.55855418351E+02 -0.11028821994E+02  0.48257243318E+02  0.74750897028E+02  0.41800000000E+01 0.  1.
        -11    1    3    3    0    0  0.21027924656E+02  0.19413626904E+02  0.14070082146E+02  0.31890903664E+02  0.00000000000E+00 0.  1.
         11    1    3    3    0    0 -0.32946936279E+02 -0.35563773036E+02 -0.46274514851E+02  0.67019499308E+02  0.00000000000E+00 0. -1.
</event>
<event>
 7    1  0.4687179E-006  0.1515843E+03  0.7561462E-02  0.1198540E+00
          1   -1    0    0  501    0  0.00000000000E+00  0.00000000000E+00  0.27030860416E+03  0.27030860416E+03  0.00000000000E+00 0. -1.
         -1   -1    0    0    0  501 -0.00000000000E+00 -0.00000000000E+00 -0.12624198914E+03  0.12624198914E+03  0.00000000000E+00 0.  1.
         23    2    1    2    0    0  0.19223540463E+02  0.12009681652E+03  0.16139426228E+03  0.22122007487E+03  0.89985686536E+02 0.  0.
          5    1    1    2  502    0  0.97674294204E+01 -0.13889446042E+03 -0.18400620107E+02  0.14051024529E+03  0.41800000000E+01 0. -1.
         -5    1    1    2    0  502 -0.28990969884E+02  0.18797643898E+02  0.10729728388E+01  0.34820273141E+02  0.41800000000E+01 0. -1.
        -11    1    3    3    0    0  0.25842470500E+02  0.33963458117E+02  0.55532471570E+01  0.43037057553E+02  0.00000000000E+00 0.  1.
         11    1    3    3    0    0 -0.66189300367E+01  0.86133358401E+02  0.15584101513E+03  0.17818301732E+03  0.00000000000E+00 0. -1.
</event>
<event>
 7    1  0.4687179E-006  0.1235377E+03  0.7561462E-02  0.1237373E+00
         -1   -1    0    0    0  501 -0.00000000000E+00  0.00000000000E+00  0.16663277938E+03  0.16663277938E+03  0.00000000000E+00 0.  1.
          1   -1    0    0  501    0  0.00000000000E+00 -0.00000000000E+00 -0.13417268643E+03  0.13417268643E+03  0.00000000000E+00 0. -1.
         23    2    1    2    0    0 -0.49307286287E+02 -0.89888918481E+02  0.22105462513E+02  0.13873992120E+03  0.90823389688E+02 0.  0.
          5    1    1    2  502    0  0.80765791133E+02  0.70024705008E+02  0.40102838805E+02  0.11424658598E+03  0.41800000000E+01 0. -1.
         -5    1    1    2    0  502 -0.31458504846E+02  0.19864213474E+02 -0.29748208368E+02  0.47818958637E+02  0.41800000000E+01 0. -1.
        -11    1    3    3    0    0 -0.15062186765E+02 -0.32678776928E+02 -0.35557847149E+02  0.50587868363E+02  0.00000000000E+00 0. -1.
         11    1    3    3    0    0 -0.34245099522E+02 -0.57210141553E+02  0.57663309662E+02  0.88152052835E+02  0.00000000000E+00 0.  1.
</event>
<event>
 7    1  0.4687179E-006  0.1122951E+03  0.7561462E-02  0.1256378E+00
         -2   -1    0    0    0  501 -0.00000000000E+00  0.00000000000E+00  0.10000856839E+03  0.10000856839E+03  0.00000000000E+00 0.  1.
          2   -1    0    0  501    0  0.00000000000E+00 -0.00000000000E+00 -0.48476722203E+03  0.48476722203E+03  0.00000000000E+00 0. -1.
         23    2    1    2    0    0 -0.12588308735E+02  0.32120511347E+02 -0.10533951873E+03  0.14447313130E+03  0.92660016707E+02 0.  0.
          5    1    1    2  502    0 -0.23553015302E+02 -0.71118478336E+02 -0.34654110973E+03  0.35457128426E+03  0.41800000000E+01 0. -1.
         -5    1    1    2    0  502  0.36141324038E+02  0.38997966989E+02  0.67121974810E+02  0.85731374857E+02  0.41800000000E+01 0.  1.
        -11    1    3    3    0    0 -0.85854855756E+01 -0.31411941017E+02 -0.20776518300E+02  0.38627507215E+02  0.00000000000E+00 0.  1.
         11    1    3    3    0    0 -0.40028231596E+01  0.63532452364E+02 -0.84563000432E+02  0.10584562409E+03  0.00000000000E+00 0. -1.
</event>
<event>
 7    1  0.4687179E-006  0.7804016E+02  0.7561462E-02  0.1334707E+00
         -2   -1    0    0    0  501 -0.00000000000E+00  0.00000000000E+00  0.38273933244E+02  0.38273933244E+02  0.00000000000E+00 0. -1.
          2   -1    0    0  501    0  0.00000000000E+00 -0.00000000000E+00 -0.40941032024E+03  0.40941032024E+03  0.00000000000E+00 0.  1.
         23    2    1    2    0    0  0.47162840493E+02 -0.15246974508E+02 -0.23156616348E+03  0.25381834550E+03  0.91345830157E+02 0.  0.
          5    1    1    2  502    0 -0.39435019155E+02 -0.71785727869E+00  0.11817388645E+02  0.41385494188E+02  0.41800000000E+01 0.  1.
         -5    1    1    2    0  502 -0.77278213384E+01  0.15964831786E+02 -0.15138761216E+03  0.15248041380E+03  0.41800000000E+01 0.  1.
        -11    1    3    3    0    0 -0.23794026386E+02 -0.13196858709E+02 -0.32003919096E+02  0.42006709094E+02  0.00000000000E+00 0. -1.
         11    1    3    3    0    0  0.70956866879E+02 -0.20501157989E+01 -0.19956224439E+03  0.21181163641E+03  0.00000000000E+00 0.  1.
</event>
<event>
 7    1  0.4687179E-006  0.1111122E+03  0.7561462E-02  0.1258524E+00
         -2   -1    0    0    0  501 -0.00000000000E+00  0.00000000000E+00  0.24412704230E+03  0.24412704230E+03  0.00000000000E+00 0.  1.
          2   -1    0    0  501    0  0.00000000000E+00 -0.00000000000E+00 -0.68076943768E+02  0.68076943768E+02  0.00000000000E+00 0. -1.
         23    2    1    2    0    0 -0.61922378570E+00  0.46433110878E+02  0.13264959609E+02  0.10172241879E+03  0.89526946265E+02 0.  0.
          5    1    1    2  502    0  0.56444074059E+02 -0.17639396112E+02  0.37163666727E+02  0.69969224064E+02  0.41800000000E+01 0.  1.
         -5    1    1    2    0  502 -0.55824850273E+02 -0.28793714765E+02  0.12562147220E+03  0.14051234321E+03  0.41800000000E+01 0.  1.
        -11    1    3    3    0    0 -0.27131802810E+02 -0.16461034038E+02 -0.19448893570E+01  0.31794385667E+02  0.00000000000E+00 0. -1.
         11    1    3    3    0    0  0.26512579025E+02  0.62894144915E+02  0.15209848966E+02  0.69928033125E+02  0.00000000000E+00 0.  1.
</event>
<event>
 7    1  0.4687179E-006  0.9907699E+02  0.7561462E-02  0.1282249E+00
          1   -1    0    0  501    0  0.00000000000E+00  0.00000000000E+00  0.14731901429E+03  0.14731901429E+03  0.00000000000E+00 0. -1.
         -1   -1    0    0    0  501 -0.00000000000E+00 -0.00000000000E+00 -0.13265868419E+03  0.13265868419E+03  0.00000000000E+00 0.  1.
         23    2    1    2    0    0 -0.40825285108E+02  0.42170265084E+02  0.48866539683E+02  0.13763034715E+03  0.11449514659E+03 0.  0.
          5    1    1    2  502    0  0.46482202015E+02 -0.26584803077E+02  0.39507894443E+02  0.66676030042E+02  0.41800000000E+01 0.  1.
         -5    1    1    2    0  502 -0.56569169071E+01 -0.15585462008E+02 -0.73714104021E+02  0.75671321295E+02  0.41800000000E+01 0.  1.
        -11    1    3    3    0    0 -0.44503680370E+02 -0.30901489545E+02  0.30584643714E+02  0.62216557714E+02  0.00000000000E+00 0.  1.
         11    1    3    3    0    0  0.36783952620E+01  0.73071754630E+02  0.18281895969E+02  0.75413789433E+02  0.00000000000E+00 0. -1.
</event>
<event>
 7    1  0.4687179E-006  0.1229886E+03  0.7561462E-02  0.1238247E+00
         -2   -1    0    0    0  501 -0.00000000000E+00  0.00000000000E+00  0.13113085083E+03  0.13113085083E+03  0.00000000000E+00 0.  1.
          2   -1    0    0  501    0  0.00000000000E+00 -0.00000000000E+00 -0.13579098684E+03  0.13579098684E+03  0.00000000000E+00 0. -1.
         23    2    1    2    0    0 -0.70616798541E+02  0.16192711983E+02 -0.27731628212E+02  0.12053590046E+03  0.92254668929E+02 0.  0.
          5    1    1    2  502    0 -0.80813684262E+01 -0.47807572025E+02 -0.18220268507E+02  0.51964632617E+02  0.41800000000E+01 0. -1.
         -5    1    1    2    0  502  0.78698166967E+02  0.31614860041E+02  0.41291760707E+02  0.94421304597E+02  0.41800000000E+01 0. -1.
        -11    1    3    3    0    0 -0.57897256732E+02 -0.29491613448E+02  0.11969318178E+01  0.64986769781E+02  0.00000000000E+00 0. -1.
         11    1    3    3    0    0 -0.12719541809E+02  0.45684325431E+02 -0.28928560030E+02  0.55549130680E+02  0.00000000000E+00 0.  1.
</event>
<event>
 7    1  0.4687179E-006  0.1497899E+03  0.7561462E-02  0.1200731E+00
          2   -1    0    0  501    0  0.00000000000E+00  0.00000000000E+00  0.10090422492E+03  0.10090422492E+03  0.00000000000E+00 0. -1.
         -2   -1    0    0    0  501 -0.00000000000E+00 -0.00000000000E+00 -0.34828589850E+03  0.34828589850E+03  0.00000000000E+00 0.  1.
         23    2    1    2    0    0 -0.96943563510E+00  0.11438271860E+03  0.22685876663E+01  0.14743373892E+03  0.92990401445E+02 0.  0.
          5    1    1    2  502    0 -0.14763650358E+02 -0.12922620704E+03 -0.14508729360E+03  0.19489785305E+03  0.41800000000E+01 0.  1.
         -5    1    1    2    0  502  0.15733085993E+02  0.14843488434E+02 -0.10456296764E+03  0.10685853146E+03  0.41800000000E+01 0.  1.
        -11    1    3    3    0    0  0.32030952251E+02  0.10945960703E+03  0.15570467881E+01  0.11406056229E+03  0.00000000000E+00 0.  1.
         11    1    3    3    0    0 -0.33000387886E+02  0.49231115688E+01  0.71154087825E+00  0.33373176633E+02  0.00000000000E+00 0. -1.
</event>
<event>
 7    1  0.4687179E-006  0.1048401E+03  0.7561462E-02  0.1270435E+00
          2   -1    0    0  501    0  0.00000000000E+00  0.00000000000E+00  0.32137888716E+03  0.32137888716E+03  0.00000000000E+00 0. -1.
         -2   -1    0    0    0  501 -0.00000000000E+00 -0.00000000000E+00 -0.54902728883E+02  0.54902728883E+02  0.00000000000E+00 0.  1.
         23    2    1    2    0    0 -0.33811350757E+02  0.37026674286E+02  0.19657454465E+03  0.22445989130E+03  0.96054719572E+02 0.  0.
          5    1    1    2  502    0 -0.35517694432E+02 -0.29252018388E+02 -0.82991423401E+01  0.46941829546E+02  0.41800000000E+01 0.  1.
         -5    1    1    2    0  502  0.69329045188E+02 -0.77746558979E+01  0.78200755964E+02  0.10487989519E+03  0.41800000000E+01 0.  1.
        -11    1    3    3    0    0  0.20718357585E+02  0.32930241235E+02  0.29969779770E+02  0.49110475749E+02  0.00000000000E+00 0.  1.
         11    1    3    3    0    0 -0.54529708342E+02  0.40964330514E+01  0.16660476488E+03  0.17534941556E+03  0.00000000000E+00 0. -1.
</event>
<event>
 6    1  0.4687179E-006  0.1605943E+03  0.7561462E-02  0.1188027E+00
          2   -1    0    0  501    0  0.00000000000E+00  0.00000000000E+00  0.71470674072E+02  0.71470674072E+02  0.00000000000E+00 0.  1.
         -2   -1    0    0    0  501 -0.00000000000E+00 -0.00000000000E+00 -0.46919830022E+03  0.46919830022E+03  0.00000000000E+00 0. -1.
          5    1    1    2  502    0 -0.23720845963E+02  0.51535749361E+02 -0.56713746657E+02  0.80327663076E+02  0.41800000000E+01 0.  1.
         -5    1    1    2    0  502  0.11389471842E+03  0.39180457588E+02 -0.17283118083E+03  0.21070169579E+03  0.41800000000E+01 0.  1.
        -11    1    1    2    0    0 -0.68298455444E+02 -0.22130710625E+02 -0.58165268021E+01  0.72029711598E+02  0.00000000000E+00 0.  1.
         11    1    1    2    0    0 -0.21875417008E+02 -0.68585496324E+02 -0.16236617185E+03  0.17760990383E+03  0.00000000000E+00 0. -1.
</event>
<event>
 7    1  0.4687179E-006  0.9323113E+02  0.7561462E-02  0.1295210E+00
         -1   -1    0    0    0  501 -0.00000000000E+00  0.00000000000E+00  0.66971890407E+02  0.66971890407E+02  0.00000000000E+00 0.  1.
          1   -1    0    0  501    0  0.00000000000E+00 -0.00000000000E+00 -0.18594096904E+03  0.18594096904E+03  0.00000000000E+00 0. -1.
         23    2    1    2    0    0  0.24113569899E+02  0.26217760882E+01 -0.63620557128E+02  0.11398991531E+03  0.91420936008E+02 0.  0.
          5    1    1    2  502    0  0.48637905676E+02  0.16158115165E+02 -0.15152132533E+02  0.53607742673E+02  0.41800000000E+01 0. -1.
         -5    1    1    2    0  502 -0.72751475575E+02 -0.18779891253E+02 -0.40196388971E+02  0.85315201460E+02  0.41800000000E+01 0. -1.
        -11    1    3    3    0    0 -0.11769323930E+02 -0.15601494964E+02 -0.70502205134E+02  0.73160676320E+02  0.00000000000E+00 0. -1.
         11    1    3    3    0    0  0.35882893829E+02  0.18223271052E+02  0.68816480064E+01  0.40829238992E+02  0.00000000000E+00 0.  1.
</event>
<event>
 7    1  0.4687179E-006  0.1563573E+03  0.7561462E-02  0.1192872E+00
         -2   -1    0    0    0  501 -0.00000000000E+00  0.00000000000E+00  0.10132710086E+03  0.10132710086E+03  0.00000000000E+00 0.  1.
          2   -1    0    0  501    0  0.00000000000E+00 -0.00000000000E+00 -0.27012518551E+03  0.27012518551E+03  0.00000000000E+00 0. -1.
         23    2    1    2    0    0 -0.11226345162E+03 -0.28603504291E+02 -0.13080937860E+03  0.19677788651E+03  0.90494199043E+02 0.  0.
          5    1    1    2  502    0  0.68871819887E+02  0.78293340600E+02 -0.24950777484E+02  0.10729952681E+03  0.41800000000E+01 0.  1.
         -5    1    1    2    0  502  0.43391631737E+02 -0.49689836309E+02 -0.13037928560E+02  0.67374873048E+02  0.41800000000E+01 0.  1.
        -11    1    3    3    0    0 -0.47135461584E+02  0.28971074639E+02 -0.27570727523E+02  0.61816016700E+02  0.00000000000E+00 0.  1.
         11    1    3    3    0    0 -0.65127990040E+02 -0.57574578931E+02 -0.10323865108E+03  0.13496186981E+03  0.00000000000E+00 0. -1.
</event>
<event>
 7    1  0.4687179E-006  0.1306871E+03  0.7561462E-02  0.1226440E+00
          1   -1    0    0  501    0  0.00000000000E+00  0.00000000000E+00  0.13877897593E+02  0.13877897593E+02  0.00000000000E+00 0. -1.
         -1   -1    0    0    0  501 -0.00000000000E+00 -0.00000000000E+00 -0.22233289949E+04  0.22233289949E+04  0.00000000000E+00 0.  1.
         23    2    1    2    0    0  0.61158003877E+02 -0.16922789995E+02 -0.32011171454E+03  0.33740872000E+03  0.85711447814E+02 0.  0.
          5    1    1    2  502    0 -0.66999279539E+02 -0.52323520036E+02 -0.15976673146E+04  0.15999328032E+04  0.41800000000E+01 0. -1.
         -5    1    1    2    0  502  0.58412756624E+01  0.69246310031E+02 -0.29167206816E+03  0.29986536929E+03  0.41800000000E+01 0.  1.
        -11    1    3    3    0    0  0.26440247372E+02 -0.51345801705E+02 -0.17264781428E+03  0.18205149219E+03  0.00000000000E+00 0. -1.
         11    1    3    3    0    0  0.34717756504E+02  0.34423011710E+02 -0.14746390026E+03  0.15535722780E+03  0.00000000000E+00 0.  1.
</event>
<event>
 7    1  0.4687179E-006  0.9116459E+02  0.7561462E-02  0.1300056E+00
         -4   -1    0    0    0  501 -0.00000000000E+00  0.00000000000E+00  0.33244183121E+03  0.33244183121E+03  0.00000000000E+00 0.  1.
          4   -1    0    0  501    0  0.00000000000E+00 -0.00000000000E+00 -0.30638792485E+02  0.30638792485E+02  0.00000000000E+00 0. -1.
         23    2    1    2    0    0  0.10978091348E+02 -0.36292966310E+02  0.82958216409E+02  0.10817291182E+03  0.58151657654E+02 0.  0.
          5    1    1    2  502    0 -0.65350575708E+02  0.86406242714E+01  0.14275598944E+03  0.15729622708E+03  0.41800000000E+01 0. -1.
         -5    1    1    2    0  502  0.54372484360E+02  0.27652342038E+02  0.76088832874E+02  0.97611484794E+02  0.41800000000E+01 0. -1.
        -11    1    3    3    0    0  0.23485556887E+02 -0.35546820546E+02  0.85372392716E+02  0.95412752142E+02  0.00000000000E+00 0.  1.
         11    1    3    3    0    0 -0.12507465539E+02 -0.74614576411E+00 -0.24141763067E+01  0.12760159675E+02  0.00000000000E+00 0. -1.
</event>
<event>
 7    1  0.4687179E-006  0.9517989E+02  0.7561462E-02  0.1290771E+00
         -4   -1    0    0    0  501 -0.00000000000E+00  0.00000000000E+00  0.98061718089E+02  0.98061718089E+02  0.00000000000E+00 0.  1.
          4   -1    0    0  501    0  0.00000000000E+00 -0.00000000000E+00 -0.18875904243E+03  0.18875904243E+03  0.00000000000E+00 0. -1.
         23    2    1    2    0    0  0.26087821673E+02 -0.29335457240E+02 -0.11804263274E+03  0.15290194339E+03  0.88903305107E+02 0.  0.
          5    1    1    2  502    0 -0.22932893433E+02  0.59150707628E+02 -0.29059166355E+02  0.69904444518E+02  0.41800000000E+01 0.  1.
         -5    1    1    2    0  502 -0.31549282404E+01 -0.29815250388E+02  0.56404474752E+02  0.64014372605E+02  0.41800000000E+01 0.  1.
        -11    1    3    3    0    0  0.14064729257E+02 -0.61020458391E+02 -0.84943094354E+02  0.10553029058E+03  0.00000000000E+00 0. -1.
         11    1    3    3    0    0  0.12023092416E+02  0.31685001151E+02 -0.33099538382E+02  0.47371652814E+02  0.00000000000E+00 0.  1.
</event>
<event>
 7    1  0.4687179E-006  0.1186151E+03  0.7561462E-02  0.1245399E+00
          1   -1    0    0  501    0  0.00000000000E+00  0.00000000000E+00  0.27811374171E+03  0.27811374171E+03  0.00000000000E+00 0. -1.
         -1   -1    0    0    0  501 -0.00000000000E+00 -0.00000000000E+00 -0.75177409881E+02  0.75177409881E+02  0.00000000000E+00 0.  1.
         23    2    1    2    0    0  0.53009468038E+02  0.66401562075E+02  0.14800020085E+03  0.19239886412E+03  0.88848704636E+02 0.  0.
          5    1    1    2  502    0  0.28458895398E+01 -0.58088402793E+02  0.79978587537E+02  0.98976807842E+02  0.41800000000E+01 0.  1.
         -5    1    1    2    0  502 -0.55855357577E+02 -0.83131592824E+01 -0.25042456557E+02  0.61915479630E+02  0.41800000000E+01 0.  1.
        -11    1    3    3    0    0 -0.20342246894E+02  0.39014651304E+02  0.62868388985E+02  0.76735808842E+02  0.00000000000E+00 0.  1.
         11    1    3    3    0    0  0.73351714931E+02  0.27386910771E+02  0.85131811862E+02  0.11566305528E+03  0.00000000000E+00 0. -1.
</event>
<event>
 7    1  0.4687179E-006  0.1078731E+03  0.7561462E-02  0.1264560E+00
          1   -1    0    0  501    0  0.00000000000E+00  0.00000000000E+00  0.16623759143E+02  0.16623759143E+02  0.00000000000E+00 0. -1.
         -1   -1    0    0    0  501 -0.00000000000E+00 -0.00000000000E+00 -0.83962082579E+03  0.83962082579E+03  0.00000000000E+00 0.  1.
         23    2    1    2    0    0 -0.23475939562E+02  0.38238090671E+02 -0.28481717498E+03  0.30189990454E+03  0.89495574654E+02 0.  0.
          5    1    1    2  502    0  0.64230157345E+02 -0.37930000927E+02 -0.46051915419E+03  0.46653998956E+03  0.41800000000E+01 0.  1.
         -5    1    1    2    0  502 -0.40754217783E+02 -0.30808974428E+00 -0.77660737487E+02  0.87804690840E+02  0.41800000000E+01 0.  1.
        -11    1    3    3    0    0  0.72821095869E+01 -0.26987308777E+02 -0.83778562771E+02  0.88318693011E+02  0.00000000000E+00 0.  1.
         11    1    3    3    0    0 -0.30758049149E+02  0.65225399448E+02 -0.20103861221E+03  0.21358121153E+03  0.00000000000E+00 0. -1.
</event>
<event>
 7    1  0.4687179E-006  0.2208122E+03  0.7561462E-02  0.1133279E+00
         -1   -1    0    0    0  501 -0.00000000000E+00  0.00000000000E+00  0.46271972488E+02  0.46271972488E+02  0.00000000000E+00 0.  1.
          1   -1    0    0  501    0  0.00000000000E+00 -0.00000000000E+00 -0.12524194565E+04  0.12524194565E+04  0.00000000000E+00 0. -1.
         23    2    1    2    0    0  0.10215670974E+03 -0.17869656037E+03 -0.74546745031E+03  0.77884939666E+03  0.92283309336E+02 0.  0.
          5    1    1    2  502    0 -0.12688936257E+03  0.14515015329E+03 -0.41641986849E+03  0.45890353736E+03  0.41800000000E+01 0. -1.
         -5    1    1    2    0  502  0.24732652822E+02  0.33546407086E+02 -0.44260165242E+02  0.60938494987E+02  0.41800000000E+01 0. -1.
        -11    1    3    3    0    0  0.70609789897E+02 -0.14139395067E+03 -0.67398719591E+03  0.69226926262E+03  0.00000000000E+00 0.  1.
         11    1    3    3    0    0  0.31546919848E+02 -0.37302609707E+02 -0.71480254394E+02  0.86580134043E+02  0.00000000000E+00 0. -1.
</event>
<event>
 7    1  0.4687179E-006  0.1191177E+03  0.7561462E-02  0.1244560E+00
          1   -1    0    0  501    0  0.00000000000E+00  0.00000000000E+00  0.24555091534E+03  0.24555091534E+03  0.00000000000E+00 0. -1.
         -1   -1    0    0    0  501 -0.00000000000E+00 -0.00000000000E+00 -0.81634845412E+02  0.81634845412E+02  0.00000000000E+00 0.  1.
         23    2    1    2    0    0 -0.58565800696E+02 -0.58117335426E+02  0.11856318186E+03  0.17062315511E+03  0.90815501312E+02 0.  0.
          5    1    1    2  502    0  0.43127983886E+02  0.94983631946E+02  0.50634007574E+02  0.11603098058E+03  0.41800000000E+01 0. -1.
         -5    1    1    2    0  502  0.15437816810E+02 -0.36866296519E+02 -0.52811195057E+01  0.40531625062E+02  0.41800000000E+01 0. -1.
        -11    1    3    3    0    0 -0.52837246917E+02 -0.22256176583E+02  0.12133805339E+03  0.13420147264E+03  0.00000000000E+00 0. -1.
         11    1    3    3    0    0 -0.57285537788E+01 -0.35861158843E+02 -0.27748715300E+01  0.36421682470E+02  0.00000000000E+00 0.  1.
</event>
<event>
 7    1  0.4687179E-006  0.1359763E+03  0.7561462E-02  0.1218848E+00
         -1   -1    0    0    0  501 -0.00000000000E+00  0.00000000000E+00  0.26619808242E+03  0.26619808242E+03  0.00000000000E+00 0.  1.
          1   -1    0    0  501    0  0.00000000000E+00 -0.00000000000E+00 -0.84052463615E+02  0.84052463615E+02  0.00000000000E+00 0. -1.
         23    2    1    2    0    0  0.78832394789E+01 -0.10067046106E+03  0.13293925214E+02  0.11711368142E+03  0.57811752560E+02 0.  0.
          5    1    1    2  502    0  0.57234225229E+02  0.63002307463E+02  0.95265446933E+02  0.12782028424E+03  0.41800000000E+01 0. -1.
         -5    1    1    2    0  502 -0.65117464707E+02  0.37668153595E+02  0.73586246659E+02  0.10531658038E+03  0.41800000000E+01 0. -1.
        -11    1    3    3    0    0  0.27265956189E+02 -0.47143460071E+02  0.23436056954E+02  0.59289012135E+02  0.00000000000E+00 0.  1.
         11    1    3    3    0    0 -0.19382716711E+02 -0.53527000988E+02 -0.10142131740E+02  0.57824669286E+02  0.00000000000E+00 0. -1.
</event>
<event>
 7    1  0.4687179E-006  0.1069230E+03  0.7561462E-02  0.1266376E+00
          1   -1    0    0  501    0  0.00000000000E+00  0.00000000000E+00  0.47813516200E+03  0.47813516200E+03  0.00000000000E+00 0. -1.
         -1   -1    0    0    0  501 -0.00000000000E+00 -0.00000000000E+00 -0.33758510393E+02  0.33758510393E+02  0.00000000000E+00 0.  1.
         23    2    1    2    0    0 -0.21804568702E+02  0.60291114809E+02  0.23687542748E+03  0.26127309783E+03  0.89683921420E+02 0.  0.
          5    1    1    2  502    0  0.17981837363E+02  0.33413065973E+02  0.25717858095E+02  0.46028904806E+02  0.41800000000E+01 0. -1.
         -5    1    1    2    0  502  0.38227313385E+01 -0.93704180782E+02  0.18178336603E+03  0.20459166976E+03  0.41800000000E+01 0. -1.
        -11    1    3    3    0    0  0.15686500055E+02  0.28969131582E+02  0.19088793806E+02  0.38074386634E+02  0.00000000000E+00 0.  1.
         11    1    3    3    0    0 -0.37491068757E+02  0.31321983228E+02  0.21778663368E+03  0.22319871119E+03  0.00000000000E+00 0. -1.
</event>
<event>
 7    1  0.4687179E-006  0.1276760E+03  0.7561462E-02  0.1230945E+00
         -2   -1    0    0    0  501 -0.00000000000E+00  0.00000000000E+00  0.19324504681E+03  0.19324504681E+03  0.00000000000E+00 0.  1.
          2   -1    0    0  501    0  0.00000000000E+00 -0.00000000000E+00 -0.90237238823E+02  0.90237238823E+02  0.00000000000E+00 0. -1.
         23    2    1    2    0    0  0.28538773726E+02  0.62822499281E+02  0.18223482844E+02  0.11736309142E+03  0.93171196614E+02 0.  0.
          5    1    1    2  502    0 -0.44759041277E+02 -0.94504938142E+02  0.75662184579E+02  0.12913866069E+03  0.41800000000E+01 0. -1.
         -5    1    1    2    0  502  0.16220267550E+02  0.31682438861E+02  0.91221405687E+01  0.36980533530E+02  0.41800000000E+01 0. -1.
        -11    1    3    3    0    0 -0.12030475361E+02  0.72223039844E+02  0.38906176438E+01  0.73321461575E+02  0.00000000000E+00 0. -1.
         11    1    3    3    0    0  0.40569249088E+02 -0.94005405633E+01  0.14332865201E+02  0.44041629843E+02  0.00000000000E+00 0.  1.
</event>
<event>
 7    1  0.4687179E-006  0.2329935E+03  0.7561462E-02  0.1124550E+00
         -1   -1    0    0    0  501 -0.00000000000E+00  0.00000000000E+00  0.35043549528E+03  0.35043549528E+03  0.00000000000E+00 0.  1.
          1   -1    0    0  501    0  0.00000000000E+00 -0.00000000000E+00 -0.22986660218E+03  0.22986660218E+03  0.00000000000E+00 0. -1.
         23    2    1    2    0    0 -0.15296973464E+03 -0.15730207976E+03 -0.86191733523E+02  0.25389386158E+03  0.94283582914E+02 0.  0.
          5    1    1    2  502    0  0.14774139704E+03  0.11186888528E+03  0.10096937353E+03  0.21107926161E+03  0.41800000000E+01 0.  1.
         -5    1    1    2    0  502  0.52283375953E+01  0.45433194482E+02  0.10579125310E+03  0.11532897427E+03  0.41800000000E+01 0.  1.
        -11    1    3    3    0    0 -0.59112163225E+02 -0.11987080909E+03 -0.25630386785E+02  0.13608885127E+03  0.00000000000E+00 0.  1.
         11    1    3    3    0    0 -0.93857571410E+02 -0.37431270674E+02 -0.60561346739E+02  0.11780501031E+03  0.00000000000E+00 0. -1.
</event>
<event>
 7    1  0.4687179E-006  0.5224066E+03  0.7561462E-02  0.1008090E+00
         -1   -1    0    0    0  501 -0.00000000000E+00  0.00000000000E+00  0.94065752241E+03  0.94065752241E+03  0.00000000000E+00 0.  1.
          1   -1    0    0  501    0  0.00000000000E+00 -0.00000000000E+00 -0.34850397560E+03  0.34850397560E+03  0.00000000000E+00 0. -1.
         23    2    1    2    0    0  0.21463662106E+03 -0.47499950371E+03  0.53158345302E+03  0.74970779516E+03  0.88246263245E+02 0.  0.
          5    1    1    2  502    0 -0.24053519355E+02  0.33277998722E+02  0.40667183629E+02  0.57942119539E+02  0.41800000000E+01 0.  1.
         -5    1    1    2    0  502 -0.19058310171E+03  0.44172150499E+03  0.19902910155E+02  0.48151158331E+03  0.41800000000E+01 0.  1.
        -11    1    3    3    0    0  0.45046370277E+02 -0.68518883013E+02  0.45560311279E+02  0.93807008098E+02  0.00000000000E+00 0.  1.
         11    1    3    3    0    0  0.16959025078E+03 -0.40648062070E+03  0.48602314174E+03  0.65590078707E+03  0.00000000000E+00 0. -1.
</event>
<event>
 7    1  0.4687179E-006  0.1102245E+03  0.7561462E-02  0.1260155E+00
         -1   -1    0    0    0  501 -0.00000000000E+00  0.00000000000E+00  0.19537706794E+02  0.19537706794E+02  0.00000000000E+00 0.  1.
          1   -1    0    0  501    0  0.00000000000E+00 -0.00000000000E+00 -0.83259291088E+03  0.83259291088E+03  0.00000000000E+00 0. -1.
         23    2    1    2    0    0 -0.43459995077E+02 -0.76350530990E+01 -0.52635786422E+03  0.53623532691E+03  0.92458960630E+02 0.  0.
          5    1    1    2  502    0  0.74917903711E+02 -0.18977700034E+02 -0.24576883599E+03  0.25766769013E+03  0.41800000000E+01 0. -1.
         -5    1    1    2    0  502 -0.31457908635E+02  0.26612753133E+02 -0.40928503888E+02  0.58227600633E+02  0.41800000000E+01 0. -1.
        -11    1    3    3    0    0  0.21451955748E+02  0.21601247782E+02 -0.12839949327E+03  0.13195919894E+03  0.00000000000E+00 0.  1.
         11    1    3    3    0    0 -0.64911950825E+02 -0.29236300881E+02 -0.39795837094E+03  0.40427612798E+03  0.00000000000E+00 0. -1.
</event>
<event>
 7    1  0.4687179E-006  0.1309913E+03  0.7561462E-02  0.1225992E+00
          2   -1    0    0  501    0  0.00000000000E+00  0.00000000000E+00  0.45060479958E+03  0.45060479958E+03  0.00000000000E+00 0. -1.
         -2   -1    0    0    0  501 -0.00000000000E+00 -0.00000000000E+00 -0.46836420784E+02  0.46836420784E+02  0.00000000000E+00 0.  1.
         23    2    1    2    0    0  0.94776432138E+02 -0.57089196159E+01  0.19818326501E+03  0.23873262125E+03  0.93281799212E+02 0.  0.
          5    1    1    2  502    0 -0.92250391372E+02 -0.27103427499E+02  0.20392395539E+03  0.22549319828E+03  0.41800000000E+01 0.  1.
         -5    1    1    2    0  502 -0.25260407653E+01  0.32812347115E+02  0.16611583912E+01  0.33215400831E+02  0.41800000000E+01 0.  1.
        -11    1    3    3    0    0  0.52413262776E+02  0.43158036915E+02  0.11217432409E+03  0.13112149042E+03  0.00000000000E+00 0. -1.
         11    1    3    3    0    0  0.42363169361E+02 -0.48866956531E+02  0.86008940927E+02  0.10761113083E+03  0.00000000000E+00 0.  1.
</event>
<event>
 7    1  0.4687179E-006  0.9332221E+02  0.7561462E-02  0.1295000E+00
         -1   -1    0    0    0  501 -0.00000000000E+00  0.00000000000E+00  0.15683481677E+02  0.15683481677E+02  0.00000000000E+00 0.  1.
          1   -1    0    0  501    0  0.00000000000E+00 -0.00000000000E+00 -0.68445019539E+03  0.68445019539E+03  0.00000000000E+00 0. -1.
         23    2    1    2    0    0  0.90864718814E+01 -0.12026997592E+02 -0.24220872797E+03  0.25535246909E+03  0.79451890623E+02 0.  0.
          5    1    1    2  502    0  0.33267114618E+02  0.44327870078E+02 -0.10488563918E+03  0.11870185629E+03  0.41800000000E+01 0. -1.
         -5    1    1    2    0  502 -0.42353586500E+02 -0.32300872486E+02 -0.32167234656E+03  0.32607935168E+03  0.41800000000E+01 0. -1.
        -11    1    3    3    0    0 -0.14595450884E+02  0.27743293673E+02 -0.64499711758E+02  0.71714226951E+02  0.00000000000E+00 0.  1.
         11    1    3    3    0    0  0.23681922765E+02 -0.39770291265E+02 -0.17770901621E+03  0.18363824214E+03  0.00000000000E+00 0. -1.
</event>
<event>
 7    1  0.4687179E-006  0.1166010E+03  0.7561462E-02  0.1248812E+00
          2   -1    0    0  501    0  0.00000000000E+00  0.00000000000E+00  0.45310542092E+03  0.45310542092E+03  0.00000000000E+00 0.  1.
         -2   -1    0    0    0  501 -0.00000000000E+00 -0.00000000000E+00 -0.44031574293E+02  0.44031574293E+02  0.00000000000E+00 0. -1.
         23    2    1    2    0    0 -0.39630219002E+02 -0.57603762774E+02  0.28128939240E+03  0.30513367654E+03  0.95362941121E+02 0.  0.
          5    1    1    2  502    0  0.17889779254E+02  0.90879098138E+02  0.51944937115E+02  0.10627701338E+03  0.41800000000E+01 0. -1.
         -5    1    1    2    0  502  0.21740439748E+02 -0.33275335364E+02  0.75839517105E+02  0.85726305291E+02  0.41800000000E+01 0. -1.
        -11    1    3    3    0    0 -0.45394206786E+01 -0.64580530378E+02  0.24783668581E+03  0.25615283344E+03  0.00000000000E+00 0.  1.
         11    1    3    3    0    0 -0.35090798323E+02  0.69767676044E+01  0.33452706591E+02  0.48980843107E+02  0.00000000000E+00 0. -1.
</event>
<event>
 7    1  0.4687179E-006  0.1065854E+03  0.7561462E-02  0.1267027E+00
          3   -1    0    0  501    0  0.00000000000E+00  0.00000000000E+00  0.49425471066E+02  0.49425471066E+02  0.00000000000E+00 0. -1.
         -3   -1    0    0    0  501 -0.00000000000E+00 -0.00000000000E+00 -0.26362296003E+03  0.26362296003E+03  0.00000000000E+00 0.  1.
         23    2    1    2    0    0  0.36708449465E+02 -0.15761732817E+02 -0.71532321257E+02  0.11913774730E+03  0.86492701219E+02 0.  0.
          5    1    1    2  502    0  0.11178645052E+02 -0.47125092798E+02 -0.33373855417E+02  0.58966287841E+02  0.41800000000E+01 0.  1.
         -5    1    1    2    0  502 -0.47887094517E+02  0.62886825615E+02 -0.10929131229E+03  0.13494439595E+03  0.41800000000E+01 0.  1.
        -11    1    3    3    0    0  0.59788211261E+02 -0.51750796784E+01 -0.72013895785E+02  0.93741201409E+02  0.00000000000E+00 0.  1.
         11    1    3    3    0    0 -0.23079761797E+02 -0.10586653139E+02  0.48157452714E+00  0.25396545893E+02  0.00000000000E+00 0. -1.
</event>
<event>
 7    1  0.4687179E-006  0.1005411E+03  0.7561462E-02  0.1279162E+00
          4   -1    0    0  501    0  0.00000000000E+00  0.00000000000E+00  0.15404084354E+03  0.15404084354E+03  0.00000000000E+00 0. -1.
         -4   -1    0    0    0  501 -0.00000000000E+00 -0.00000000000E+00 -0.18472872835E+03  0.18472872835E+03  0.00000000000E+00 0.  1.
         23    2    1    2    0    0 -0.87745993600E+02  0.24046826672E+02  0.75975959426E+02  0.15087833801E+03  0.93350507258E+02 0.  0.
          5    1    1    2  502    0  0.25148317966E+02  0.20018476952E+01  0.27474231823E+02  0.37533333252E+02  0.41800000000E+01 0. -1.
         -5    1    1    2    0  502  0.62597675635E+02 -0.26048674367E+02 -0.13413807606E+03  0.15035790063E+03  0.41800000000E+01 0. -1.
        -11    1    3    3    0    0 -0.17709691522E+01  0.21494730556E+02 -0.14541555513E+02  0.26011855185E+02  0.00000000000E+00 0.  1.
         11    1    3    3    0    0 -0.85975024448E+02  0.25520961159E+01  0.90517514939E+02  0.12486648283E+03  0.00000000000E+00 0. -1.
</event>
<event>
 7    1  0.4687179E-006  0.2064999E+03  0.7561462E-02  0.1144368E+00
          3   -1    0    0  501    0  0.00000000000E+00  0.00000000000E+00  0.91618744299E+02  0.91618744299E+02  0.00000000000E+00 0. -1.
         -3   -1    0    0    0  501 -0.00000000000E+00 -0.00000000000E+00 -0.65388607037E+03  0.65388607037E+03  0.00000000000E+00 0.  1.
         23    2    1    2    0    0 -0.17445967426E+03 -0.48061571538E+02 -0.84459914144E+02  0.21948651193E+03  0.91075568736E+02 0.  0.
          5    1    1    2  502    0  0.11836925190E+03 -0.31161507564E+02 -0.28121958097E+03  0.30673155115E+03  0.41800000000E+01 0.  1.
         -5    1    1    2    0  502  0.56090422354E+02  0.79223079103E+02 -0.19658783096E+03  0.21928675159E+03  0.41800000000E+01 0.  1.
        -11    1    3    3    0    0 -0.94210177709E+02 -0.60781230186E+02 -0.16024949220E+02  0.11325508609E+03  0.00000000000E+00 0. -1.
         11    1    3    3    0    0 -0.80249496549E+02  0.12719658647E+02 -0.68434964925E+02  0.10623142584E+03  0.00000000000E+00 0.  1.
</event>
<event>
 7    1  0.4687179E-006  0.9653933E+02  0.7561462E-02  0.1287746E+00
         -1   -1    0    0    0  501 -0.00000000000E+00  0.00000000000E+00  0.14026698440E+03  0.14026698440E+03  0.00000000000E+00 0.  1.
          1   -1    0    0  501    0  0.00000000000E+00 -0.00000000000E+00 -0.11053845270E+03  0.11053845270E+03  0.00000000000E+00 0. -1.
         23    2    1    2    0    0  0.20853644896E+01  0.43036150880E+02 -0.30728395034E+02  0.10534130939E+03  0.91082919230E+02 0.  0.
          5    1    1    2  502    0  0.38795060351E+02  0.16067585488E+02  0.60152274851E+02  0.73477837344E+02  0.41800000000E+01 0. -1.
         -5    1    1    2    0  502 -0.40880424841E+02 -0.59103736368E+02  0.30465188058E+00  0.71986290366E+02  0.41800000000E+01 0. -1.
        -11    1    3    3    0    0 -0.31291588163E+02  0.29078797354E+02  0.16548468152E+02  0.45810389035E+02  0.00000000000E+00 0.  1.
         11    1    3    3    0    0  0.33376952653E+02  0.13957353526E+02 -0.47276863186E+02  0.59530920357E+02  0.00000000000E+00 0. -1.
</event>
<event>
 7    1  0.4687179E-006  0.8701309E+02  0.7561462E-02  0.1310250E+00
          3   -1    0    0  501    0  0.00000000000E+00  0.00000000000E+00  0.14526887031E+03  0.14526887031E+03  0.00000000000E+00 0. -1.
         -3   -1    0    0    0  501 -0.00000000000E+00 -0.00000000000E+00 -0.98099930677E+02  0.98099930677E+02  0.00000000000E+00 0.  1.
         23    2    1    2    0    0 -0.40749768932E+02  0.12832720262E+01  0.48603024258E+02  0.11179450675E+03  0.92051981608E+02 0.  0.
          5    1    1    2  502    0  0.31904325356E+02  0.56033227738E+02 -0.24385131010E+02  0.69063127655E+02  0.41800000000E+01 0. -1.
         -5    1    1    2    0  502  0.88454435754E+01 -0.57316499764E+02  0.22951046388E+02  0.62511166583E+02  0.41800000000E+01 0. -1.
        -11    1    3    3    0    0 -0.34204493759E+02  0.14003802318E+02 -0.19787545862E+02  0.41923750357E+02  0.00000000000E+00 0.  1.
         11    1    3    3    0    0 -0.65452751722E+01 -0.12720530292E+02  0.68390570120E+02  0.69870756396E+02  0.00000000000E+00 0. -1.
</event>
<event>
 7    1  0.4687179E-006  0.7842179E+02  0.7561462E-02  0.1333591E+00
         -2   -1    0    0    0  501 -0.00000000000E+00  0.00000000000E+00  0.30209565330E+02  0.30209565330E+02  0.00000000000E+00 0. -1.
          2   -1    0    0  501    0  0.00000000000E+00 -0.00000000000E+00 -0.45617015919E+03  0.45617015919E+03  0.00000000000E+00 0.  1.
         23    2    1    2    0    0 -0.47753289557E+02 -0.11307690991E+02 -0.20074099103E+03  0.22412006911E+03  0.86744563859E+02 0.  0.
          5    1    1    2  502    0  0.70400931725E+02  0.76721692584E+01 -0.22799773778E+03  0.23877938395E+03  0.41800000000E+01 0. -1.
         -5    1    1    2    0  502 -0.22647642168E+02  0.36355217322E+01  0.27781349457E+01  0.23480271460E+02  0.41800000000E+01 0. -1.
        -11    1    3    3    0    0 -0.24079868432E+02  0.14064157311E+02 -0.90566062470E+01  0.29320005138E+02  0.00000000000E+00 0. -1.
         11    1    3    3    0    0 -0.23673421125E+02 -0.25371848302E+02 -0.19168438478E+03  0.19480006397E+03  0.00000000000E+00 0.  1.
</event>
<event>
 7    1  0.4687179E-006  0.1134041E+03  0.7561462E-02  0.1254393E+00
          2   -1    0    0  501    0  0.00000000000E+00  0.00000000000E+00  0.15820548199E+03  0.15820548199E+03  0.00000000000E+00 0.  1.
         -2   -1    0    0    0  501 -0.00000000000E+00 -0.00000000000E+00 -0.13733421797E+03  0.13733421797E+03  0.00000000000E+00 0. -1.
         23    2    1    2    0    0  0.87718422517E+02 -0.37713458488E+02  0.39990278473E+02  0.13701768740E+03  0.89765236530E+02 0.  0.
          5    1    1    2  502    0 -0.88868229026E+02  0.23658244904E+02  0.37960504863E+02  0.99577843979E+02  0.41800000000E+01 0.  1.
         -5    1    1    2    0  502  0.11498065090E+01  0.14055213584E+02 -0.57079519317E+02  0.58944168578E+02  0.41800000000E+01 0.  1.
        -11    1    3    3    0    0  0.63944836031E+02 -0.59830334477E+02  0.52635244250E+02  0.10217181566E+03  0.00000000000E+00 0.  1.
         11    1    3    3    0    0  0.23773586486E+02  0.22116875989E+02 -0.12644965776E+02  0.34845871742E+02  0.00000000000E+00 0. -1.
</event>
<event>
 7    1  0.4687179E-006  0.1030033E+03  0.7561462E-02  0.1274104E+00
          1   -1    0    0  501    0  0.00000000000E+00  0.00000000000E+00  0.33695681126E+03  0.33695681126E+03  0.00000000000E+00 0. -1.
         -1   -1    0    0    0  501 -0.00000000000E+00 -0.00000000000E+00 -0.53426826022E+02  0.53426826022E+02  0.00000000000E+00 0.  1.
         23    2    1    2    0    0  0.47981518966E+02 -0.25797105371E+02  0.20987709612E+03  0.23534088292E+03  0.91483435064E+02 0.  0.
          5    1    1    2  502    0  0.33704794274E+02  0.22866467909E+02  0.59125314576E+02  0.71917756746E+02  0.41800000000E+01 0.  1.
         -5    1    1    2    0  502 -0.81686313240E+02  0.29306374612E+01  0.14527574546E+02  0.83124997617E+02  0.41800000000E+01 0.  1.
        -11    1    3    3    0    0  0.34692401231E+02  0.16835587113E+02  0.17352903629E+03  0.17776199294E+03  0.00000000000E+00 0. -1.
         11    1    3    3    0    0  0.13289117735E+02 -0.42632692484E+02  0.36348059827E+02  0.57578889984E+02  0.00000000000E+00 0.  1.
</event>
<event>
 7    1  0.4687179E-006  0.1126787E+03  0.7561462E-02  0.1255688E+00
          2   -1    0    0  501    0  0.00000000000E+00  0.00000000000E+00  0.34362884798E+03  0.34362884798E+03  0.00000000000E+00 0. -1.
         -2   -1    0    0    0  501 -0.00000000000E+00 -0.00000000000E+00 -0.42575629176E+02  0.42575629176E+02  0.00000000000E+00 0.  1.
         23    2    1    2    0    0 -0.17708398868E+02  0.43593321210E+02  0.12919935524E+03  0.16850057950E+03  0.97396133675E+02 0.  0.
          5    1    1    2  502    0 -0.49675302777E+02 -0.38744637627E+01  0.98137589201E+02  0.11014130011E+03  0.41800000000E+01 0.  1.
         -5    1    1    2    0  502  0.67383701645E+02 -0.39718857447E+02  0.73716274365E+02  0.10756259754E+03  0.41800000000E+01 0.  1.
        -11    1    3    3    0    0 -0.40794570459E+02  0.57178435604E+02  0.53775017163E+02  0.88460855455E+02  0.00000000000E+00 0.  1.
         11    1    3    3    0    0  0.23086171591E+02 -0.13585114394E+02  0.75424338074E+02  0.80039724049E+02  0.00000000000E+00 0. -1.
</event>
<event>
 7    1  0.4687179E-006  0.1397524E+03  0.7561462E-02  0.1213663E+00
         -1   -1    0    0    0  501 -0.00000000000E+00  0.00000000000E+00  0.12144127624E+03  0.12144127624E+03  0.00000000000E+00 0.  1.
          1   -1    0    0  501    0  0.00000000000E+00 -0.00000000000E+00 -0.27088900038E+03  0.27088900038E+03  0.00000000000E+00 0. -1.
         23    2    1    2    0    0  0.39016645857E+02 -0.11683903153E+03 -0.15026005924E+03  0.21676701268E+03  0.96105121811E+02 0.  0.
          5    1    1    2  502    0  0.14972950647E+02 -0.95383052834E+01  0.29905806844E+02  0.35028534108E+02  0.41800000000E+01 0. -1.
         -5    1    1    2    0  502 -0.53989596505E+02  0.12637733682E+03 -0.29093471743E+02  0.14053472984E+03  0.41800000000E+01 0. -1.
        -11    1    3    3    0    0  0.36590923570E+02 -0.95008192922E+02 -0.48700261062E+02  0.11285906183E+03  0.00000000000E+00 0.  1.
         11    1    3    3    0    0  0.24257222874E+01 -0.21830838612E+02 -0.10155979818E+03  0.10390795084E+03  0.00000000000E+00 0. -1.
</event>
<event>
 7    1  0.4687179E-006  0.8079986E+02  0.7561462E-02  0.1326797E+00
         -2   -1    0    0    0  501 -0.00000000000E+00  0.00000000000E+00  0.22003786792E+03  0.22003786792E+03  0.00000000000E+00 0.  1.
          2   -1    0    0  501    0  0.00000000000E+00 -0.00000000000E+00 -0.61204952388E+02  0.61204952388E+02  0.00000000000E+00 0. -1.
         23    2    1    2    0    0  0.34248982845E+02  0.19241758661E+02  0.60429218274E+02  0.11731063478E+03  0.92557314720E+02 0.  0.
          5    1    1    2  502    0 -0.45760742937E+02 -0.66730529579E+01  0.12427746141E+03  0.13266851564E+03  0.41800000000E+01 0.  1.
         -5    1    1    2    0  502  0.11511760093E+02 -0.12568705703E+02 -0.25873764148E+02  0.31263669885E+02  0.41800000000E+01 0.  1.
        -11    1    3    3    0    0 -0.16622489644E+02  0.39504403047E+02  0.12781959766E+02  0.44724529260E+02  0.00000000000E+00 0. -1.
         11    1    3    3    0    0  0.50871472489E+02 -0.20262644386E+02  0.47647258508E+02  0.72586105516E+02  0.00000000000E+00 0.  1.
</event>
<event>
 7    1  0.4687179E-006  0.7749951E+02  0.7561462E-02  0.1336301E+00
         -2   -1    0    0    0  501 -0.00000000000E+00  0.00000000000E+00  0.49041476866E+02  0.49041476866E+02  0.00000000000E+00 0.  1.
          2   -1    0    0  501    0  0.00000000000E+00 -0.00000000000E+00 -0.26445623352E+03  0.26445623352E+03  0.00000000000E+00 0. -1.
         23    2    1    2    0    0  0.34783851835E+02  0.99128570189E+01 -0.97316174259E+02  0.13770552454E+03  0.90466527694E+02 0.  0.
          5    1    1    2  502    0 -0.17449955275E+02  0.26439553429E+02 -0.12977606187E+03  0.13365197178E+03  0.41800000000E+01 0. -1.
         -5    1    1    2    0  502 -0.17333896559E+02 -0.36352410448E+02  0.11677479476E+02  0.42140214074E+02  0.41800000000E+01 0. -1.
        -11    1    3    3    0    0  0.58364522113E+02  0.77287147371E+01 -0.97646193135E+02  0.11402161859E+03  0.00000000000E+00 0. -1.
         11    1    3    3    0    0 -0.23580670278E+02  0.21841422818E+01  0.33001887614E+00  0.23683905944E+02  0.00000000000E+00 0.  1.
</event>
<event>
 7    1  0.4687179E-006  0.8732399E+02  0.7561462E-02  0.1309465E+00
         -4   -1    0    0    0  501 -0.00000000000E+00  0.00000000000E+00  0.33304624832E+03  0.33304624832E+03  0.00000000000E+00 0.  1.
          4   -1    0    0  501    0  0.00000000000E+00 -0.00000000000E+00 -0.48938518200E+02  0.48938518200E+02  0.00000000000E+00 0. -1.
         23    2    1    2    0    0  0.33907370165E+02  0.33190534620E+02  0.63409504794E+02  0.12390156424E+03  0.95286467997E+02 0.  0.
          5    1    1    2  502    0 -0.38045673967E+02 -0.42498927890E+02  0.25577983308E+02  0.62652516386E+02  0.41800000000E+01 0.  1.
         -5    1    1    2    0  502  0.41383038011E+01  0.93083932692E+01  0.19512024202E+03  0.19543068590E+03  0.41800000000E+01 0.  1.
        -11    1    3    3    0    0 -0.26285075680E+02  0.37837811391E+02  0.27911381462E+02  0.53866969374E+02  0.00000000000E+00 0.  1.
         11    1    3    3    0    0  0.60192445846E+02 -0.46472767707E+01  0.35498123332E+02  0.70034594868E+02  0.00000000000E+00 0. -1.
</event>
<event>
 7    1  0.4687179E-006  0.9977667E+02  0.7561462E-02  0.1280766E+00
          1   -1    0    0  501    0  0.00000000000E+00  0.00000000000E+00  0.48614625124E+03  0.48614625124E+03  0.00000000000E+00 0. -1.
         -1   -1    0    0    0  501 -0.00000000000E+00 -0.00000000000E+00 -0.36000908463E+02  0.36000908463E+02  0.00000000000E+00 0.  1.
         23    2    1    2    0    0  0.28466700631E+02  0.37197327695E+02  0.28266947617E+03  0.29986882426E+03  0.88460639663E+02 0.  0.
          5    1    1    2  502    0  0.56048405092E+01 -0.59216989979E+02  0.17123784511E+03  0.18132274578E+03  0.41800000000E+01 0. -1.
         -5    1    1    2    0  502 -0.34071541140E+02  0.22019662284E+02 -0.37619785032E+01  0.40955589668E+02  0.41800000000E+01 0.  1.
        -11    1    3    3    0    0 -0.21960487816E+02 -0.14977278653E+02  0.58689629099E+02  0.64428677347E+02  0.00000000000E+00 0. -1.
         11    1    3    3    0    0  0.50427188446E+02  0.52174606347E+02  0.22397984708E+03  0.23544014691E+03  0.00000000000E+00 0.  1.
</event>
<event>
 7    1  0.4687179E-006  0.9449355E+02  0.7561462E-02  0.1292321E+00
          1   -1    0    0  501    0  0.00000000000E+00  0.00000000000E+00  0.41595587369E+03  0.41595587369E+03  0.00000000000E+00 0. -1.
         -1   -1    0    0    0  501 -0.00000000000E+00 -0.00000000000E+00 -0.41601903812E+02  0.41601903812E+02  0.00000000000E+00 0.  1.
         23    2    1    2    0    0 -0.15845634180E+02  0.66988556131E+02  0.21867663523E+03  0.24631080090E+03  0.90061029689E+02 0.  0.
          5    1    1    2  502    0  0.18737073541E+02  0.62826425622E+01  0.13278815853E+03  0.13431573611E+03  0.41800000000E+01 0. -1.
         -5    1    1    2    0  502 -0.28914393617E+01 -0.73271198693E+02  0.22889176117E+02  0.76931240487E+02  0.41800000000E+01 0. -1.
        -11    1    3    3    0    0  0.23032729276E+02  0.45305565928E+02  0.47941295395E+02  0.69867508372E+02  0.00000000000E+00 0.  1.
         11    1    3    3    0    0 -0.38878363455E+02  0.21682990203E+02  0.17073533983E+03  0.17644329253E+03  0.00000000000E+00 0. -1.
</event>
<event>
 7    1  0.4687179E-006  0.1452219E+03  0.7561462E-02  0.1206470E+00
          1   -1    0    0  501    0  0.00000000000E+00  0.00000000000E+00  0.12834753664E+04  0.12834753664E+04  0.00000000000E+00 0. -1.
         -1   -1    0    0    0  501 -0.00000000000E+00 -0.00000000000E+00 -0.21436282275E+02  0.21436282275E+02  0.00000000000E+00 0.  1.
         23    2    1    2    0    0 -0.61974157605E+02 -0.10549595581E+03  0.69084039138E+03  0.70751268514E+03  0.91343091557E+02 0.  0.
          5    1    1    2  502    0 -0.76323557167E+01  0.55469146334E+02  0.74223432968E+02  0.93068090398E+02  0.41800000000E+01 0.  1.
         -5    1    1    2    0  502  0.69606513322E+02  0.50026809480E+02  0.49697525982E+03  0.50433087317E+03  0.41800000000E+01 0.  1.
        -11    1    3    3    0    0 -0.16909105966E+02 -0.10187097591E+03  0.54945903091E+03  0.55907856358E+03  0.00000000000E+00 0.  1.
         11    1    3    3    0    0 -0.45065051640E+02 -0.36249799009E+01  0.14138136046E+03  0.14843412157E+03  0.00000000000E+00 0. -1.
</event>
<event>
 7    1  0.4687179E-006  0.1021299E+03  0.7561462E-02  0.1275880E+00
          4   -1    0    0  501    0  0.00000000000E+00  0.00000000000E+00  0.34524904502E+02  0.34524904502E+02  0.00000000000E+00 0. -1.
         -4   -1    0    0    0  501 -0.00000000000E+00 -0.00000000000E+00 -0.50644541698E+03  0.50644541698E+03  0.00000000000E+00 0.  1.
         23    2    1    2    0    0 -0.61317997431E+00 -0.16276320182E+02 -0.51682688245E+02  0.10595579676E+03  0.91050733195E+02 0.  0.
          5    1    1    2  502    0  0.39792491342E+02  0.47413095719E+02 -0.24367912588E+03  0.25145264525E+03  0.41800000000E+01 0. -1.
         -5    1    1    2    0  502 -0.39179311367E+02 -0.31136775537E+02 -0.17655869835E+03  0.18356187946E+03  0.41800000000E+01 0.  1.
        -11    1    3    3    0    0 -0.39433195736E+02  0.14958416966E+02 -0.18258451759E+02  0.45957613349E+02  0.00000000000E+00 0.  1.
         11    1    3    3    0    0  0.38820015762E+02 -0.31234737148E+02 -0.33424236486E+02  0.59998183415E+02  0.00000000000E+00 0. -1.
</event>
<event>
 7    1  0.4687179E-006  0.1507314E+03  0.7561462E-02  0.1199577E+00
         -4   -1    0    0    0  501 -0.00000000000E+00  0.00000000000E+00  0.43463094984E+03  0.43463094984E+03  0.00000000000E+00 0.  1.
          4   -1    0    0  501    0  0.00000000000E+00 -0.00000000000E+00 -0.66509221910E+02  0.66509221910E+02  0.00000000000E+00 0. -1.
         23    2    1    2    0    0  0.96546569854E+02 -0.54667807002E+02  0.86893644945E+02  0.16729256763E+03  0.90147037546E+02 0.  0.
          5    1    1    2  502    0 -0.64543621246E+02 -0.27933139679E+02  0.50554544053E+02  0.86714322117E+02  0.41800000000E+01 0. -1.
         -5    1    1    2    0  502 -0.32002948608E+02  0.82600946681E+02  0.23067353894E+03  0.24713328201E+03  0.41800000000E+01 0.  1.
        -11    1    3    3    0    0  0.11374439150E+03 -0.51413337679E+02  0.70745883855E+02  0.14347856276E+03  0.00000000000E+00 0. -1.
         11    1    3    3    0    0 -0.17197821641E+02 -0.32544693230E+01  0.16147761089E+02  0.23814004871E+02  0.00000000000E+00 0.  1.
</event>
<event>
 7    1  0.4687179E-006  0.1311816E+03  0.7561462E-02  0.1225713E+00
         -2   -1    0    0    0  501 -0.00000000000E+00  0.00000000000E+00  0.72099248977E+02  0.72099248977E+02  0.00000000000E+00 0.  1.
          2   -1    0    0  501    0  0.00000000000E+00 -0.00000000000E+00 -0.36662635549E+03  0.36662635549E+03  0.00000000000E+00 0. -1.
         23    2    1    2    0    0  0.55092535392E+01 -0.11144347900E+03 -0.21675113726E+03  0.25953714392E+03  0.89041971470E+02 0.  0.
          5    1    1    2  502    0 -0.18340943113E+02  0.11251809712E+03 -0.10096153940E+03  0.15233980837E+03  0.41800000000E+01 0. -1.
         -5    1    1    2    0  502  0.12831689574E+02 -0.10746181206E+01  0.23185570143E+02  0.26848652187E+02  0.41800000000E+01 0. -1.
        -11    1    3    3    0    0 -0.28294521313E+02 -0.90869953146E+02 -0.18768676902E+03  0.21043823699E+03  0.00000000000E+00 0. -1.
         11    1    3    3    0    0  0.33803774852E+02 -0.20573525858E+02 -0.29064368231E+02  0.49098906925E+02  0.00000000000E+00 0.  1.
</event>
<event>
 7    1  0.4687179E-006  0.1234183E+03  0.7561462E-02  0.1237562E+00
         -2   -1    0    0    0  501 -0.00000000000E+00  0.00000000000E+00  0.68336793514E+03  0.68336793514E+03  0.00000000000E+00 0.  1.
          2   -1    0    0  501    0  0.00000000000E+00 -0.00000000000E+00 -0.16227568723E+03  0.16227568723E+03  0.00000000000E+00 0. -1.
         23    2    1    2    0    0 -0.12670717880E+02  0.33472959649E+02 -0.14248323644E+03  0.15649257730E+03  0.53920941810E+02 0.  0.
          5    1    1    2  502    0  0.96429964358E+02 -0.22419923095E+02  0.41145596244E+03  0.42321965031E+03  0.41800000000E+01 0. -1.
         -5    1    1    2    0  502 -0.83759246479E+02 -0.11053036554E+02  0.25211952191E+03  0.26593139475E+03  0.41800000000E+01 0.  1.
        -11    1    3    3    0    0 -0.27607372729E+02  0.38519960286E+02 -0.90314213241E+02  0.10199319332E+03  0.00000000000E+00 0. -1.
         11    1    3    3    0    0  0.14936654850E+02 -0.50470006378E+01 -0.52169023198E+02  0.54499383987E+02  0.00000000000E+00 0.  1.
</event>
<event>
 7    1  0.4687179E-006  0.1233896E+03  0.7561462E-02  0.1237608E+00
         -1   -1    0    0    0  501 -0.00000000000E+00  0.00000000000E+00  0.22915596043E+03  0.22915596043E+03  0.00000000000E+00 0.  1.
          1   -1    0    0  501    0  0.00000000000E+00 -0.00000000000E+00 -0.95598262366E+02  0.95598262366E+02  0.00000000000E+00 0. -1.
         23    2    1    2    0    0 -0.37843778090E+02 -0.82878945353E+02  0.12932411660E+02  0.12854291865E+03  0.89749448688E+02 0.  0.
          5    1    1    2  502    0  0.69239372750E+02  0.28224315361E+02  0.10858589381E+03  0.13190553988E+03  0.41800000000E+01 0.  1.
         -5    1    1    2    0  502 -0.31395594661E+02  0.54654629992E+02  0.12039392588E+02  0.64305764264E+02  0.41800000000E+01 0.  1.
        -11    1    3    3    0    0 -0.50708117690E+02 -0.81223128110E+02  0.35822152525E+02  0.10223373392E+03  0.00000000000E+00 0.  1.
         11    1    3    3    0    0  0.12864339601E+02 -0.16558172431E+01 -0.22889740865E+02  0.26309184727E+02  0.00000000000E+00 0. -1.
</event>
<event>
 7    1  0.4687179E-006  0.1752882E+03  0.7561462E-02  0.1172443E+00
          1   -1    0    0  501    0  0.00000000000E+00  0.00000000000E+00  0.49673720824E+03  0.49673720824E+03  0.00000000000E+00 0. -1.
         -1   -1    0    0    0  501 -0.00000000000E+00 -0.00000000000E+00 -0.14240333334E+03  0.14240333334E+03  0.00000000000E+00 0.  1.
         23    2    1    2    0    0  0.27541150198E+02 -0.10674587988E+03  0.40790133212E+03  0.44096129031E+03  0.12613550246E+03 0.  0.
          5    1    1    2  502    0 -0.45931508647E+02 -0.23442068905E+02  0.89950703087E+01  0.52513024775E+02  0.41800000000E+01 0. -1.
         -5    1    1    2    0  502  0.18390358449E+02  0.13018794878E+03 -0.62562527531E+02  0.14566622650E+03  0.41800000000E+01 0.  1.
        -11    1    3    3    0    0 -0.48886587156E+02 -0.61179541591E+02  0.17949133258E+03  0.19583149181E+03  0.00000000000E+00 0.  1.
         11    1    3    3    0    0  0.76427737355E+02 -0.45566338287E+02  0.22840999954E+03  0.24512979849E+03  0.00000000000E+00 0. -1.
</event>
<event>
 7    1  0.4687179E-006  0.8231487E+02  0.7561462E-02  0.1322608E+00
          3   -1    0    0  501    0  0.00000000000E+00  0.00000000000E+00  0.20571163551E+02  0.20571163551E+02  0.00000000000E+00 0. -1.
         -3   -1    0    0    0  501 -0.00000000000E+00 -0.00000000000E+00 -0.62763770070E+03  0.62763770070E+03  0.00000000000E+00 0.  1.
         23    2    1    2    0    0  0.62231985512E+01  0.68895594065E+01 -0.15863908434E+03  0.18257103071E+03  0.89886750673E+02 0.  0.
          5    1    1    2  502    0  0.59628682646E+01  0.33124076621E+02 -0.30532771064E+02  0.45634227930E+02  0.41800000000E+01 0. -1.
         -5    1    1    2    0  502 -0.12186066816E+02 -0.40013636027E+02 -0.41789468175E+03  0.42000360561E+03  0.41800000000E+01 0. -1.
        -11    1    3    3    0    0  0.46907031573E+02 -0.23224066804E+01 -0.66317031749E+02  0.81262610614E+02  0.00000000000E+00 0.  1.
         11    1    3    3    0    0 -0.40683833022E+02  0.92119660869E+01 -0.92322052590E+02  0.10130842010E+03  0.00000000000E+00 0. -1.
</event>
<event>
 7    1  0.4687179E-006  0.1247769E+03  0.7561462E-02  0.1235418E+00
         -1   -1    0    0    0  501 -0.00000000000E+00  0.00000000000E+00  0.13951297810E+03  0.13951297810E+03  0.00000000000E+00 0. -1.
          1   -1    0    0  501    0  0.00000000000E+00 -0.00000000000E+00 -0.14667323703E+03  0.14667323703E+03  0.00000000000E+00 0.  1.
         23    2    1    2    0    0 -0.74944599032E+02 -0.34691540885E+02 -0.71768851402E+02  0.12296709705E+03  0.56124352929E+02 0.  0.
          5    1    1    2  502    0 -0.16473895947E+02 -0.32186667833E+02  0.12687147483E+02  0.38546166413E+02  0.41800000000E+01 0. -1.
         -5    1    1    2    0  502  0.91418494979E+02  0.66878208718E+02  0.51921444989E+02  0.12467295166E+03  0.41800000000E+01 0. -1.
        -11    1    3    3    0    0 -0.11311195899E+01 -0.25385551035E+02 -0.16732041561E+02  0.30424773585E+02  0.00000000000E+00 0.  1.
         11    1    3    3    0    0 -0.73813479443E+02 -0.93059898499E+01 -0.55036809841E+02  0.92542323463E+02  0.00000000000E+00 0. -1.
</event>
<event>
 7    1  0.4687179E-006  0.1328997E+03  0.7561462E-02  0.1223215E+00
          1   -1    0    0  501    0  0.00000000000E+00  0.00000000000E+00  0.92943464106E+02  0.92943464106E+02  0.00000000000E+00 0. -1.
         -1   -1    0    0    0  501 -0.00000000000E+00 -0.00000000000E+00 -0.24688064770E+03  0.24688064770E+03  0.00000000000E+00 0.  1.
         23    2    1    2    0    0  0.10459609280E+03 -0.10420094265E+02 -0.73026746227E+02  0.15749772032E+03  0.91780745518E+02 0.  0.
          5    1    1    2  502    0  0.85364051706E+01 -0.35507459789E+02 -0.37921689411E+02  0.52812657968E+02  0.41800000000E+01 0. -1.
         -5    1    1    2    0  502 -0.11313249797E+03  0.45927554054E+02 -0.42988747952E+02  0.12951373351E+03  0.41800000000E+01 0. -1.
        -11    1    3    3    0    0  0.38638954369E+02 -0.13264142137E+02 -0.81276544599E+02  0.90965834044E+02  0.00000000000E+00 0.  1.
         11    1    3    3    0    0  0.65957138430E+02  0.28440478722E+01  0.82497983719E+01  0.66531886275E+02  0.00000000000E+00 0. -1.
</event>
<event>
 7    1  0.4687179E-006  0.1116625E+03  0.7561462E-02  0.1257522E+00
         -1   -1    0    0    0  501 -0.00000000000E+00  0.00000000000E+00  0.67307806908E+03  0.67307806908E+03  0.00000000000E+00 0.  1.
          1   -1    0    0  501    0  0.00000000000E+00 -0.00000000000E+00 -0.29333942939E+02  0.29333942939E+02  0.00000000000E+00 0. -1.
         23    2    1    2    0    0  0.65578193268E+02 -0.12123693049E+02  0.13545012070E+03  0.17682472497E+03  0.92047622450E+02 0.  0.
          5    1    1    2  502    0  0.29322185744E+02 -0.11861398681E+01  0.57384960642E+02  0.64588726667E+02  0.41800000000E+01 0. -1.
         -5    1    1    2    0  502 -0.94900379012E+02  0.13309832917E+02  0.45090904480E+03  0.46099856038E+03  0.41800000000E+01 0.  1.
        -11    1    3    3    0    0  0.81132043821E+02 -0.72149880013E+01  0.13807029537E+03  0.16030555527E+03  0.00000000000E+00 0.  1.
         11    1    3    3    0    0 -0.15553850553E+02 -0.49087050473E+01 -0.26201746750E+01  0.16519169701E+02  0.00000000000E+00 0. -1.
</event>
<event>
 7    1  0.4687179E-006  0.1286726E+03  0.7561462E-02  0.1229439E+00
          4   -1    0    0  501    0  0.00000000000E+00  0.00000000000E+00  0.12923697715E+03  0.12923697715E+03  0.00000000000E+00 0.  1.
         -4   -1    0    0    0  501 -0.00000000000E+00 -0.00000000000E+00 -0.15730259041E+03  0.15730259041E+03  0.00000000000E+00 0. -1.
         23    2    1    2    0    0  0.67329318248E+02  0.58314567748E+02  0.12414902800E+02  0.12772667032E+03  0.90698106880E+02 0.  0.
          5    1    1    2  502    0 -0.14686485525E+01 -0.82327972372E+02 -0.13314616421E+02  0.83515288264E+02  0.41800000000E+01 0. -1.
         -5    1    1    2    0  502 -0.65860669696E+02  0.24013404624E+02 -0.27165899645E+02  0.75297608979E+02  0.41800000000E+01 0. -1.
        -11    1    3    3    0    0  0.56355380649E+01  0.39889234002E+02  0.40821364302E+02  0.57352367536E+02  0.00000000000E+00 0.  1.
         11    1    3    3    0    0  0.61693780183E+02  0.18425333746E+02 -0.28406461502E+02  0.70374302782E+02  0.00000000000E+00 0. -1.
</event>
<event>
 7    1  0.4687179E-006  0.1585430E+03  0.7561462E-02  0.1190352E+00
          2   -1    0    0  501    0  0.00000000000E+00  0.00000000000E+00  0.13765897419E+04  0.13765897419E+04  0.00000000000E+00 0. -1.
         -2   -1    0    0    0  501 -0.00000000000E+00 -0.00000000000E+00 -0.26594719388E+02  0.26594719388E+02  0.00000000000E+00 0.  1.
         23    2    1    2    0    0  0.14107428110E+03  0.66646428863E+01  0.89108653312E+03  0.90700723334E+03  0.93169423960E+02 0.  0.
          5    1    1    2  502    0 -0.47848085164E+02 -0.23796956670E+02  0.40597447219E+02  0.67241055325E+02  0.41800000000E+01 0. -1.
         -5    1    1    2    0  502 -0.93226195938E+02  0.17132313784E+02  0.41831104217E+03  0.42893617262E+03  0.41800000000E+01 0. -1.
        -11    1    3    3    0    0  0.12371687597E+03 -0.30643988482E+02  0.70458764677E+03  0.71602281487E+03  0.00000000000E+00 0. -1.
         11    1    3    3    0    0  0.17357405127E+02  0.37308631368E+02  0.18649888635E+03  0.19098441847E+03  0.00000000000E+00 0.  1.
</event>
<event>
 7    1  0.4687179E-006  0.8564308E+02  0.7561462E-02  0.1313759E+00
          1   -1    0    0  501    0  0.00000000000E+00  0.00000000000E+00  0.28568543191E+02  0.28568543191E+02  0.00000000000E+00 0. -1.
         -1   -1    0    0    0  501 -0.00000000000E+00 -0.00000000000E+00 -0.48917075895E+03  0.48917075895E+03  0.00000000000E+00 0.  1.
         23    2    1    2    0    0 -0.25846297558E+02 -0.19157010142E+02 -0.12700207596E+03  0.16001002544E+03  0.91862172894E+02 0.  0.
          5    1    1    2  502    0  0.31748569989E+02  0.41436830991E+02 -0.32988058763E+03  0.33401146261E+03  0.41800000000E+01 0. -1.
         -5    1    1    2    0  502 -0.59022724311E+01 -0.22279820850E+02 -0.37195521702E+01  0.23717814092E+02  0.41800000000E+01 0. -1.
        -11    1    3    3    0    0  0.17725265620E+02 -0.42510506577E+02 -0.45867821993E+02  0.65001425408E+02  0.00000000000E+00 0. -1.
         11    1    3    3    0    0 -0.43571563178E+02  0.23353496435E+02 -0.81134253969E+02  0.95008600035E+02  0.00000000000E+00 0.  1.
</event>
<event>
 7    1  0.4687179E-006  0.1803937E+03  0.7561462E-02  0.1167423E+00
         -2   -1    0    0    0  501 -0.00000000000E+00  0.00000000000E+00  0.11761703289E+03  0.11761703289E+03  0.00000000000E+00 0.  1.
          2   -1    0    0  501    0  0.00000000000E+00 -0.00000000000E+00 -0.35545533682E+03  0.35545533682E+03  0.00000000000E+00 0. -1.
         23    2    1    2    0    0 -0.15912066865E+03 -0.60452829805E+02 -0.14777187213E+03  0.24343677632E+03  0.91929353576E+02 0.  0.
          5    1    1    2  502    0  0.11410605714E+03  0.17072835901E+02 -0.11429667022E+03  0.16245884164E+03  0.41800000000E+01 0. -1.
         -5    1    1    2    0  502  0.45014611511E+02  0.43379993904E+02  0.24230238432E+02  0.67176751745E+02  0.41800000000E+01 0. -1.
        -11    1    3    3    0    0 -0.13410982747E+03 -0.75090796587E+02 -0.88249050114E+02  0.17723421905E+03  0.00000000000E+00 0.  1.
         11    1    3    3    0    0 -0.25010841177E+02  0.14637966782E+02 -0.59522822020E+02  0.66202557270E+02  0.00000000000E+00 0. -1.
</event>
<event>
 7    1  0.4687179E-006  0.1543111E+03  0.7561462E-02  0.1195273E+00
         -2   -1    0    0    0  501 -0.00000000000E+00  0.00000000000E+00  0.37190351089E+03  0.37190351089E+03  0.00000000000E+00 0.  1.
          2   -1    0    0  501    0  0.00000000000E+00 -0.00000000000E+00 -0.12304342290E+03  0.12304342290E+03  0.00000000000E+00 0. -1.
         23    2    1    2    0    0 -0.10912298946E+03 -0.21319131869E+02 -0.49964926065E+02  0.15244824985E+03  0.91551312571E+02 0.  0.
          5    1    1    2  502    0  0.87661732272E+02  0.69969654123E+02  0.22476098273E+03  0.25122759315E+03  0.41800000000E+01 0.  1.
         -5    1    1    2    0  502  0.21461257192E+02 -0.48650522255E+02  0.74064031332E+02  0.91271090784E+02  0.41800000000E+01 0.  1.
        -11    1    3    3    0    0 -0.80684012150E+02  0.28591421677E+02 -0.21112546763E+02  0.88165292724E+02  0.00000000000E+00 0.  1.
         11    1    3    3    0    0 -0.28438977313E+02 -0.49910553546E+02 -0.28852379302E+02  0.64282957130E+02  0.00000000000E+00 0. -1.
</event>
<event>
 7    1  0.4687179E-006  0.7242539E+02  0.7561462E-02  0.1352034E+00
         -2   -1    0    0    0  501 -0.00000000000E+00  0.00000000000E+00  0.27135637563E+02  0.27135637563E+02  0.00000000000E+00 0.  1.
          2   -1    0    0  501    0  0.00000000000E+00 -0.00000000000E+00 -0.48537510269E+03  0.48537510269E+03  0.00000000000E+00 0. -1.
         23    2    1    2    0    0 -0.11290698310E+02 -0.35678385391E+02 -0.22664139399E+03  0.24664355646E+03  0.89812557161E+02 0.  0.
          5    1    1    2  502    0  0.42571950835E+02  0.14446508698E+02 -0.22212691422E+03  0.22666916648E+03  0.41800000000E+01 0.  1.
         -5    1    1    2    0  502 -0.31281252525E+02  0.21231876693E+02 -0.94711569155E+01  0.39198017307E+02  0.41800000000E+01 0.  1.
        -11    1    3    3    0    0 -0.10933898631E+02 -0.48054487703E+02 -0.22882440061E+03  0.23407133580E+03  0.00000000000E+00 0. -1.
         11    1    3    3    0    0 -0.35679967952E+00  0.12376102312E+02  0.21830066258E+01  0.12572220662E+02  0.00000000000E+00 0.  1.
</event>
<event>
 7    1  0.4687179E-006  0.1007019E+03  0.7561462E-02  0.1278827E+00
          1   -1    0    0  501    0  0.00000000000E+00  0.00000000000E+00  0.56092121932E+03  0.56092121932E+03  0.00000000000E+00 0. -1.
         -1   -1    0    0    0  501 -0.00000000000E+00 -0.00000000000E+00 -0.36932922427E+02  0.36932922427E+02  0.00000000000E+00 0.  1.
         23    2    1    2    0    0  0.29258942437E+02  0.26355497293E+02  0.41306002995E+03  0.42608932311E+03  0.96864983260E+02 0.  0.
          5    1    1    2  502    0 -0.65036963010E+01 -0.57726457030E+02  0.44913335761E+01  0.58414778816E+02  0.41800000000E+01 0.  1.
         -5    1    1    2    0  502 -0.22755246136E+02  0.31370959737E+02  0.10643693337E+03  0.11335003982E+03  0.41800000000E+01 0.  1.
        -11    1    3    3    0    0  0.45512821334E+02 -0.23869863722E+02  0.18560917547E+03  0.19259271357E+03  0.00000000000E+00 0.  1.
         11    1    3    3    0    0 -0.16253878897E+02  0.50225361015E+02  0.22745085447E+03  0.23349660955E+03  0.00000000000E+00 0. -1.
</event>
<event>
 7    1  0.4687179E-006  0.1250100E+03  0.7561462E-02  0.1235054E+00
         -2   -1    0    0    0  501 -0.00000000000E+00  0.00000000000E+00  0.14335894674E+03  0.14335894674E+03  0.00000000000E+00 0. -1.
          2   -1    0    0  501    0  0.00000000000E+00 -0.00000000000E+00 -0.12421188028E+03  0.12421188028E+03  0.00000000000E+00 0.  1.
         23    2    1    2    0    0  0.44648312230E+02 -0.56562321449E+01 -0.19192902183E+02  0.10467998862E+03  0.92542248599E+02 0.  0.
          5    1    1    2  502    0  0.40519253879E+01 -0.67274590053E+02  0.32393595537E+02  0.74893965030E+02  0.41800000000E+01 0. -1.
         -5    1    1    2    0  502 -0.48700237618E+02  0.72930822198E+02  0.59463731096E+01  0.87996873374E+02  0.41800000000E+01 0.  1.
        -11    1    3    3    0    0 -0.65248628096E+01 -0.35071450874E+02 -0.27540989265E+02  0.45067578044E+02  0.00000000000E+00 0. -1.
         11    1    3    3    0    0  0.51173175040E+02  0.29415218729E+02  0.83480870814E+01  0.59612410574E+02  0.00000000000E+00 0.  1.
</event>
<event>
 7    1  0.4687179E-006  0.2532372E+03  0.7561462E-02  0.1111276E+00
          2   -1    0    0  501    0  0.00000000000E+00  0.00000000000E+00  0.10226853655E+04  0.10226853655E+04  0.00000000000E+00 0. -1.
         -2   -1    0    0    0  501 -0.00000000000E+00 -0.00000000000E+00 -0.73199740501E+02  0.73199740501E+02  0.00000000000E+00 0.  1.
         23    2    1    2    0    0  0.23141521680E+03 -0.72524492245E+02  0.59135714394E+03  0.64564193326E+03  0.91309527151E+02 0.  0.
          5    1    1    2  502    0 -0.10453626422E+03  0.74663503458E+01  0.25042329263E+03  0.27150115067E+03  0.41800000000E+01 0. -1.
         -5    1    1    2    0  502 -0.12687895258E+03  0.65058141899E+02  0.10770518839E+03  0.17874202204E+03  0.41800000000E+01 0. -1.
        -11    1    3    3    0    0  0.18550196921E+03 -0.94335009821E+02  0.48489474959E+03  0.52766750217E+03  0.00000000000E+00 0.  1.
         11    1    3    3    0    0  0.45913247584E+02  0.21810517577E+02  0.10646239435E+03  0.11797443109E+03  0.00000000000E+00 0. -1.
</event>
<event>
 7    1  0.4687179E-006  0.1559242E+03  0.7561462E-02  0.1193377E+00
         -3   -1    0    0    0  501 -0.00000000000E+00  0.00000000000E+00  0.71608812190E+02  0.71608812190E+02  0.00000000000E+00 0.  1.
          3   -1    0    0  501    0  0.00000000000E+00 -0.00000000000E+00 -0.39955298040E+03  0.39955298040E+03  0.00000000000E+00 0. -1.
         23    2    1    2    0    0 -0.12154915676E+03 -0.39696208207E+02 -0.13275637967E+03  0.20640496846E+03  0.92891163242E+02 0.  0.
          5    1    1    2  502    0  0.17028751274E+01  0.46931678001E+02 -0.17550518414E+02  0.50308799233E+02  0.41800000000E+01 0. -1.
         -5    1    1    2    0  502  0.11984628163E+03 -0.72354697935E+01 -0.17763727012E+03  0.21444802489E+03  0.41800000000E+01 0. -1.
        -11    1    3    3    0    0 -0.55866679630E+02  0.16358978056E+02 -0.14523970551E+02  0.59997064732E+02  0.00000000000E+00 0.  1.
         11    1    3    3    0    0 -0.65682477127E+02 -0.56055186263E+02 -0.11823240912E+03  0.14640790373E+03  0.00000000000E+00 0. -1.
</event>
<event>
 7    1  0.4687179E-006  0.9246534E+02  0.7561462E-02  0.1296989E+00
         -1   -1    0    0    0  501 -0.00000000000E+00  0.00000000000E+00  0.10104639801E+03  0.10104639801E+03  0.00000000000E+00 0.  1.
          1   -1    0    0  501    0  0.00000000000E+00 -0.00000000000E+00 -0.11480270078E+03  0.11480270078E+03  0.00000000000E+00 0. -1.
         23    2    1    2    0    0 -0.12810057018E+02  0.34598267305E+01 -0.11036587770E+02  0.90026068645E+02  0.88356204108E+02 0.  0.
          5    1    1    2  502    0 -0.85857679650E+01  0.45712269877E+02  0.36486533507E+02  0.59262691098E+02  0.41800000000E+01 0. -1.
         -5    1    1    2    0  502  0.21395824983E+02 -0.49172096607E+02 -0.39206248515E+02  0.66560339047E+02  0.41800000000E+01 0. -1.
        -11    1    3    3    0    0  0.13196131432E+02  0.38562024114E+02 -0.20046227296E+02  0.45420466943E+02  0.00000000000E+00 0. -1.
         11    1    3    3    0    0 -0.26006188450E+02 -0.35102197383E+02  0.90096395262E+01  0.44605601702E+02  0.00000000000E+00 0.  1.
</event>
<event>
 7    1  0.4687179E-006  0.7652201E+02  0.7561462E-02  0.1339222E+00
          1   -1    0    0  501    0  0.00000000000E+00  0.00000000000E+00  0.25591328070E+02  0.25591328070E+02  0.00000000000E+00 0. -1.
         -1   -1    0    0    0  501 -0.00000000000E+00 -0.00000000000E+00 -0.59235337767E+03  0.59235337767E+03  0.00000000000E+00 0.  1.
         23    2    1    2    0    0  0.24901860730E+02  0.16013130179E+02 -0.12293213932E+03  0.15587272800E+03  0.91145342442E+02 0.  0.
          5    1    1    2  502    0  0.14999736541E+02 -0.33868845331E+01  0.31651965499E+00  0.15938496411E+02  0.41800000000E+01 0. -1.
         -5    1    1    2    0  502 -0.39901597271E+02 -0.12626245646E+02 -0.44414642993E+03  0.44613348133E+03  0.41800000000E+01 0. -1.
        -11    1    3    3    0    0 -0.32789772563E+02 -0.59362544150E+01 -0.52901667271E+02  0.62521953755E+02  0.00000000000E+00 0.  1.
         11    1    3    3    0    0  0.57691633292E+02  0.21949384594E+02 -0.70030472052E+02  0.93350774243E+02  0.00000000000E+00 0. -1.
</event>
<event>
 7    1  0.4687179E-006  0.1528755E+03  0.7561462E-02  0.1196983E+00
          1   -1    0    0  501    0  0.00000000000E+00  0.00000000000E+00  0.34839962660E+03  0.34839962660E+03  0.00000000000E+00 0. -1.
         -1   -1    0    0    0  501 -0.00000000000E+00 -0.00000000000E+00 -0.70193816736E+02  0.70193816736E+02  0.00000000000E+00 0.  1.
         23    2    1    2    0    0  0.77427718911E+02  0.78564452561E+02  0.10889247339E+03  0.18093448291E+03  0.93339656536E+02 0.  0.
          5    1    1    2  502    0 -0.81251900064E+02  0.53154232003E+01  0.97449448167E+02  0.12705901123E+03  0.41800000000E+01 0. -1.
         -5    1    1    2    0  502  0.38241811535E+01 -0.83879875761E+02  0.71863888313E+02  0.11059994920E+03  0.41800000000E+01 0. -1.
        -11    1    3    3    0    0  0.13731367031E+02 -0.19114298294E+02  0.35781925904E+01  0.23805677937E+02  0.00000000000E+00 0.  1.
         11    1    3    3    0    0  0.63696351879E+02  0.97678750855E+02  0.10531428080E+03  0.15712880497E+03  0.00000000000E+00 0. -1.
</event>
<event>
 7    1  0.4687179E-006  0.1050888E+03  0.7561462E-02  0.1269945E+00
          1   -1    0    0  501    0  0.00000000000E+00  0.00000000000E+00  0.84744273500E+02  0.84744273500E+02  0.00000000000E+00 0. -1.
         -1   -1    0    0    0  501 -0.00000000000E+00 -0.00000000000E+00 -0.25230929257E+03  0.25230929257E+03  0.00000000000E+00 0.  1.
         23    2    1    2    0    0 -0.28083424013E+02 -0.43857109368E+02  0.14385355031E+02  0.11019334261E+03  0.96039104375E+02 0.  0.
          5    1    1    2  502    0  0.68047838047E+02  0.17733993735E+02 -0.49752563599E+02  0.86242638998E+02  0.41800000000E+01 0. -1.
         -5    1    1    2    0  502 -0.39964414035E+02  0.26123115634E+02 -0.13219781051E+03  0.14061758447E+03  0.41800000000E+01 0. -1.
        -11    1    3    3    0    0  0.74576722842E+01 -0.54262221542E+02  0.37645140850E+02  0.66461734797E+02  0.00000000000E+00 0. -1.
         11    1    3    3    0    0 -0.35541096297E+02  0.10405112173E+02 -0.23259785820E+02  0.43731607811E+02  0.00000000000E+00 0.  1.
</event>
<event>
 7    1  0.4687179E-006  0.1052314E+03  0.7561462E-02  0.1269664E+00
         -2   -1    0    0    0  501 -0.00000000000E+00  0.00000000000E+00  0.17372333067E+03  0.17372333067E+03  0.00000000000E+00 0.  1.
          2   -1    0    0  501    0  0.00000000000E+00 -0.00000000000E+00 -0.73029171686E+02  0.73029171686E+02  0.00000000000E+00 0. -1.
         23    2    1    2    0    0  0.15033982682E+02  0.28641175993E+02  0.34247099880E+02  0.10148312622E+03  0.89886725710E+02 0.  0.
          5    1    1    2  502    0 -0.47597557187E+02 -0.58936992636E+02  0.15371364877E+02  0.77413485966E+02  0.41800000000E+01 0. -1.
         -5    1    1    2    0  502  0.32563574505E+02  0.30295816643E+02  0.51075694226E+02  0.67855890174E+02  0.41800000000E+01 0. -1.
        -11    1    3    3    0    0  0.49022920217E+02  0.67413039219E+01  0.35709406370E+02  0.61023385587E+02  0.00000000000E+00 0.  1.
         11    1    3    3    0    0 -0.33988937535E+02  0.21899872071E+02 -0.14623064905E+01  0.40459740629E+02  0.00000000000E+00 0. -1.
</event>
<event>
 7    1  0.4687179E-006  0.1243205E+03  0.7561462E-02  0.1236135E+00
         -1   -1    0    0    0  501 -0.00000000000E+00  0.00000000000E+00  0.11929837268E+04  0.11929837268E+04  0.00000000000E+00 0.  1.
          1   -1    0    0  501    0  0.00000000000E+00 -0.00000000000E+00 -0.60758907113E+02  0.60758907113E+02  0.00000000000E+00 0. -1.
         23    2    1    2    0    0  0.54080633404E+02  0.55711569772E+02  0.29732762225E+02  0.12362541035E+03  0.91491589874E+02 0.  0.
          5    1    1    2  502    0 -0.39953560817E+02 -0.91371382781E+02  0.17227913431E+03  0.19910446788E+03  0.41800000000E+01 0. -1.
         -5    1    1    2    0  502 -0.14127072587E+02  0.35659813008E+02  0.93021292314E+03  0.93101275567E+03  0.41800000000E+01 0.  1.
        -11    1    3    3    0    0  0.72238259352E+02  0.57034490089E+02  0.40296905850E+01  0.92127832820E+02  0.00000000000E+00 0. -1.
         11    1    3    3    0    0 -0.18157625948E+02 -0.13229203166E+01  0.25703071640E+02  0.31497577525E+02  0.00000000000E+00 0.  1.
</event>
<event>
 7    1  0.4687179E-006  0.1104715E+03  0.7561462E-02  0.1259699E+00
          2   -1    0    0  501    0  0.00000000000E+00  0.00000000000E+00  0.46736180158E+02  0.46736180158E+02  0.00000000000E+00 0. -1.
         -2   -1    0    0    0  501 -0.00000000000E+00 -0.00000000000E+00 -0.38143879964E+03  0.38143879964E+03  0.00000000000E+00 0.  1.
         23    2    1    2    0    0 -0.25072228158E+02  0.54887099684E+02 -0.73352610713E+02  0.13221400037E+03  0.91971332812E+02 0.  0.
          5    1    1    2  502    0 -0.35413389215E+02  0.38832386190E+00 -0.19652670513E+02  0.40718040098E+02  0.41800000000E+01 0. -1.
         -5    1    1    2    0  502  0.60485617373E+02 -0.55275423545E+02 -0.24169733826E+03  0.25524293933E+03  0.41800000000E+01 0. -1.
        -11    1    3    3    0    0 -0.53249699759E+02  0.16755039300E+02 -0.16552876865E+02  0.58225935792E+02  0.00000000000E+00 0. -1.
         11    1    3    3    0    0  0.28177471601E+02  0.38132060384E+02 -0.56799733848E+02  0.73988064579E+02  0.00000000000E+00 0.  1.
</event>
<event>
 7    1  0.4687179E-006  0.1483326E+03  0.7561462E-02  0.1202537E+00
          2   -1    0    0  501    0  0.00000000000E+00  0.00000000000E+00  0.38365550114E+03  0.38365550114E+03  0.00000000000E+00 0. -1.
         -2   -1    0    0    0  501 -0.00000000000E+00 -0.00000000000E+00 -0.62279841537E+02  0.62279841537E+02  0.00000000000E+00 0.  1.
         23    2    1    2    0    0 -0.80044421679E+01  0.10807264024E+03  0.16915267501E+03  0.22107249847E+03  0.92285727256E+02 0.  0.
          5    1    1    2  502    0  0.35783893768E+02 -0.12127243335E+03  0.14603583610E+03  0.19321342596E+03  0.41800000000E+01 0. -1.
         -5    1    1    2    0  502 -0.27779451600E+02  0.13199793103E+02  0.61871484956E+01  0.31649418252E+02  0.41800000000E+01 0. -1.
        -11    1    3    3    0    0 -0.42194905055E+02  0.92248994552E+02  0.10069529648E+03  0.14293295541E+03  0.00000000000E+00 0.  1.
         11    1    3    3    0    0  0.34190462888E+02  0.15823645693E+02  0.68457378531E+02  0.78139543067E+02  0.00000000000E+00 0. -1.
</event>
<event>
 7    1  0.4687179E-006  0.1069609E+03  0.7561462E-02  0.1266304E+00
          2   -1    0    0  501    0  0.00000000000E+00  0.00000000000E+00  0.38039067378E+03  0.38039067378E+03  0.00000000000E+00 0.  1.
         -2   -1    0    0    0  501 -0.00000000000E+00 -0.00000000000E+00 -0.34804865822E+02  0.34804865822E+02  0.00000000000E+00 0. -1.
         23    2    1    2    0    0  0.29933762799E+01 -0.41297675886E+02  0.20114265960E+03  0.21967980365E+03  0.78015308000E+02 0.  0.
          5    1    1    2  502    0 -0.60008491241E+02  0.38117414853E+02  0.58072179447E+02  0.91890188605E+02  0.41800000000E+01 0.  1.
         -5    1    1    2    0  502  0.57015114961E+02  0.31802610329E+01  0.86370968911E+02  0.10362554736E+03  0.41800000000E+01 0.  1.
        -11    1    3    3    0    0 -0.27283973567E+02  0.72546595685E+01  0.94876630692E+02  0.98987980839E+02  0.00000000000E+00 0.  1.
         11    1    3    3    0    0  0.30277349847E+02 -0.48552335454E+02  0.10626602891E+03  0.12069182281E+03  0.00000000000E+00 0. -1.
</event>
<event>
 7    1  0.4687179E-006  0.1196708E+03  0.7561462E-02  0.1243641E+00
         -3   -1    0    0    0  501 -0.00000000000E+00  0.00000000000E+00  0.84151862622E+02  0.84151862622E+02  0.00000000000E+00 0.  1.
          3   -1    0    0  501    0  0.00000000000E+00 -0.00000000000E+00 -0.18748915366E+03  0.18748915366E+03  0.00000000000E+00 0. -1.
         23    2    1    2    0    0 -0.54531045672E+02 -0.26543505824E+02 -0.31099707924E+02  0.11497201115E+03  0.92591462195E+02 0.  0.
          5    1    1    2  502    0 -0.23610761010E+02  0.44156698527E+02 -0.55244784376E+02  0.74677578034E+02  0.41800000000E+01 0.  1.
         -5    1    1    2    0  502  0.78141806683E+02 -0.17613192703E+02 -0.16992798740E+02  0.81991427100E+02  0.41800000000E+01 0.  1.
        -11    1    3    3    0    0  0.14628569315E+02 -0.36208463867E+02 -0.21220449591E+02  0.44444970206E+02  0.00000000000E+00 0. -1.
         11    1    3    3    0    0 -0.69159614987E+02  0.96649580426E+01 -0.98792583327E+01  0.70527040944E+02  0.00000000000E+00 0.  1.
</event>
<event>
 7    1  0.4687179E-006  0.1122361E+03  0.7561462E-02  0.1256484E+00
         -1   -1    0    0    0  501 -0.00000000000E+00  0.00000000000E+00  0.37655185464E+02  0.37655185464E+02  0.00000000000E+00 0.  1.
          1   -1    0    0  501    0  0.00000000000E+00 -0.00000000000E+00 -0.44245178479E+03  0.44245178479E+03  0.00000000000E+00 0. -1.
         23    2    1    2    0    0  0.44456992814E+02 -0.45556688837E+02 -0.17518502576E+03  0.21099529086E+03  0.98880652338E+02 0.  0.
          5    1    1    2  502    0 -0.66038823549E+01 -0.36384394791E+02 -0.23368388077E+02  0.43943024564E+02  0.41800000000E+01 0.  1.
         -5    1    1    2    0  502 -0.37853110459E+02  0.81941083628E+02 -0.20624318549E+03  0.22516865483E+03  0.41800000000E+01 0.  1.
        -11    1    3    3    0    0  0.58001391911E+02 -0.10009013916E+02 -0.41538139463E+02  0.72039980936E+02  0.00000000000E+00 0.  1.
         11    1    3    3    0    0 -0.13544399097E+02 -0.35547674921E+02 -0.13364688630E+03  0.13895530992E+03  0.00000000000E+00 0. -1.
</event>
<event>
 7    1  0.4687179E-006  0.1399535E+03  0.7561462E-02  0.1213392E+00
         -3   -1    0    0    0  501 -0.00000000000E+00  0.00000000000E+00  0.54852059287E+02  0.54852059287E+02  0.00000000000E+00 0.  1.
          3   -1    0    0  501    0  0.00000000000E+00 -0.00000000000E+00 -0.51495017914E+03  0.51495017914E+03  0.00000000000E+00 0. -1.
         23    2    1    2    0    0  0.83396830529E+02  0.96371388328E+02 -0.23524302647E+03  0.28266228189E+03  0.91193246836E+02 0.  0.
          5    1    1    2  502    0 -0.33129103504E+02 -0.70580344093E+02 -0.29059359167E+02  0.83312911523E+02  0.41800000000E+01 0. -1.
         -5    1    1    2    0  502 -0.50267727025E+02 -0.25791044234E+02 -0.19579573422E+03  0.20382704502E+03  0.41800000000E+01 0. -1.
        -11    1    3    3    0    0  0.54491707258E+02  0.10207684858E+03 -0.13314929863E+03  0.17640228145E+03  0.00000000000E+00 0. -1.
         11    1    3    3    0    0  0.28905123272E+02 -0.57054602527E+01 -0.10209372784E+03  0.10626000044E+03  0.00000000000E+00 0.  1.
</event>
<event>
 7    1  0.4687179E-006  0.8561729E+02  0.7561462E-02  0.1313826E+00
          2   -1    0    0  501    0  0.00000000000E+00  0.00000000000E+00  0.98111339675E+02  0.98111339675E+02  0.00000000000E+00 0. -1.
         -2   -1    0    0    0  501 -0.00000000000E+00 -0.00000000000E+00 -0.13478189519E+03  0.13478189519E+03  0.00000000000E+00 0.  1.
         23    2    1    2    0    0  0.24356616310E+02 -0.65762033452E+01  0.17807417615E+02  0.94142508011E+02  0.88933775833E+02 0.  0.
          5    1    1    2  502    0  0.11926931002E+02  0.31925885699E+02  0.28493219027E+02  0.44618939827E+02  0.41800000000E+01 0. -1.
         -5    1    1    2    0  502 -0.36283547312E+02 -0.25349682354E+02 -0.82971192162E+02  0.94131787031E+02  0.41800000000E+01 0. -1.
        -11    1    3    3    0    0  0.57356337574E+02  0.47439216778E+01  0.11481710842E+02  0.58686318139E+02  0.00000000000E+00 0. -1.
         11    1    3    3    0    0 -0.32999721264E+02 -0.11320125023E+02  0.63257067735E+01  0.35456189872E+02  0.00000000000E+00 0.  1.
</event>
<event>
 7    1  0.4687179E-006  0.6969796E+02  0.7561462E-02  0.1361123E+00
          1   -1    0    0  501    0  0.00000000000E+00  0.00000000000E+00  0.16441819704E+03  0.16441819704E+03  0.00000000000E+00 0. -1.
         -1   -1    0    0    0  501 -0.00000000000E+00 -0.00000000000E+00 -0.75776154690E+02  0.75776154690E+02  0.00000000000E+00 0.  1.
         23    2    1    2    0    0  0.24762884362E+02 -0.12598617644E+01  0.38904977195E+02  0.10331471120E+03  0.92442114899E+02 0.  0.
          5    1    1    2  502    0  0.12904062903E+02 -0.56649635303E+01  0.84027688917E+02  0.85303760503E+02  0.41800000000E+01 0. -1.
         -5    1    1    2    0  502 -0.37666947265E+02  0.69248252948E+01 -0.34290623766E+02  0.51575880020E+02  0.41800000000E+01 0. -1.
        -11    1    3    3    0    0  0.52957493452E+02 -0.14666485722E+02  0.45574208108E+02  0.71390548120E+02  0.00000000000E+00 0. -1.
         11    1    3    3    0    0 -0.28194609089E+02  0.13406623958E+02 -0.66692309136E+01  0.31924163084E+02  0.00000000000E+00 0.  1.
</event>
<event>
 7    1  0.4687179E-006  0.3055662E+03  0.7561462E-02  0.1082491E+00
          3   -1    0    0  501    0  0.00000000000E+00  0.00000000000E+00  0.40137211570E+03  0.40137211570E+03  0.00000000000E+00 0. -1.
         -3   -1    0    0    0  501 -0.00000000000E+00 -0.00000000000E+00 -0.25035775271E+03  0.25035775271E+03  0.00000000000E+00 0.  1.
         23    2    1    2    0    0  0.29084833188E+03  0.24657040553E+02  0.13388753767E+03  0.33370453394E+03  0.90731038900E+02 0.  0.
          5    1    1    2  502    0 -0.24646513766E+03 -0.60250668194E+02 -0.11866122563E+02  0.25403441571E+03  0.41800000000E+01 0. -1.
         -5    1    1    2    0  502 -0.44383194217E+02  0.35593627641E+02  0.28992947872E+02  0.63990918761E+02  0.41800000000E+01 0. -1.
        -11    1    3    3    0    0  0.19382741522E+03  0.49761422048E+02  0.11778264338E+03  0.23220253465E+03  0.00000000000E+00 0.  1.
         11    1    3    3    0    0  0.97020916658E+02 -0.25104381495E+02  0.16104894294E+02  0.10150199929E+03  0.00000000000E+00 0. -1.
</event>
<event>
 7    1  0.4687179E-006  0.9817573E+02  0.7561462E-02  0.1284180E+00
         -1   -1    0    0    0  501 -0.00000000000E+00  0.00000000000E+00  0.15916517009E+03  0.15916517009E+03  0.00000000000E+00 0.  1.
          1   -1    0    0  501    0  0.00000000000E+00 -0.00000000000E+00 -0.81769676876E+02  0.81769676876E+02  0.00000000000E+00 0. -1.
         23    2    1    2    0    0  0.15130652163E+02  0.30872151907E+02  0.17192474248E+02  0.97916846306E+02  0.90056100413E+02 0.  0.
          5    1    1    2  502    0 -0.69522175758E+02 -0.65173233909E+01  0.34145575019E+02  0.77840870497E+02  0.41800000000E+01 0.  1.
         -5    1    1    2    0  502  0.54391523595E+02 -0.24354828516E+02  0.26057443944E+02  0.65177130160E+02  0.41800000000E+01 0.  1.
        -11    1    3    3    0    0 -0.21820168184E+02  0.82246800241E+01 -0.27233490599E+02  0.35852867546E+02  0.00000000000E+00 0. -1.
         11    1    3    3    0    0  0.36950820347E+02  0.22647471882E+02  0.44425964847E+02  0.62063978760E+02  0.00000000000E+00 0.  1.
</event>
<event>
 7    1  0.4687179E-006  0.1286383E+03  0.7561462E-02  0.1229490E+00
          2   -1    0    0  501    0  0.00000000000E+00  0.00000000000E+00  0.49683085433E+03  0.49683085433E+03  0.00000000000E+00 0. -1.
         -2   -1    0    0    0  501 -0.00000000000E+00 -0.00000000000E+00 -0.52724569099E+02  0.52724569099E+02  0.00000000000E+00 0.  1.
         23    2    1    2    0    0  0.15757747343E+02 -0.10694464664E+03  0.29185032281E+03  0.32480344646E+03  0.92925797617E+02 0.  0.
          5    1    1    2  502    0 -0.19567115619E+02 -0.35915517631E+01 -0.14243102308E+02  0.24821555573E+02  0.41800000000E+01 0.  1.
         -5    1    1    2    0  502  0.38093682757E+01  0.11053619840E+03  0.16649906473E+03  0.19993042139E+03  0.41800000000E+01 0.  1.
        -11    1    3    3    0    0 -0.21262001138E+02 -0.12122654548E+02  0.13914226943E+03  0.14127845762E+03  0.00000000000E+00 0. -1.
         11    1    3    3    0    0  0.37019748481E+02 -0.94821992089E+02  0.15270805338E+03  0.18352498884E+03  0.00000000000E+00 0.  1.
</event>
<event>
 7    1  0.4687179E-006  0.8330464E+02  0.7561462E-02  0.1319927E+00
          2   -1    0    0  501    0  0.00000000000E+00  0.00000000000E+00  0.68305518723E+03  0.68305518723E+03  0.00000000000E+00 0. -1.
         -2   -1    0    0    0  501 -0.00000000000E+00 -0.00000000000E+00 -0.18668863321E+02  0.18668863321E+02  0.00000000000E+00 0.  1.
         23    2    1    2    0    0  0.17930530385E+02 -0.51714652289E+02  0.31694553156E+03  0.32841466823E+03  0.66376314695E+02 0.  0.
          5    1    1    2  502    0  0.19250204132E+02  0.37201557961E+02  0.26223833205E+02  0.49595242734E+02  0.41800000000E+01 0.  1.
         -5    1    1    2    0  502 -0.37180734517E+02  0.14513094328E+02  0.32121695915E+03  0.32371413959E+03  0.41800000000E+01 0.  1.
        -11    1    3    3    0    0  0.37768166205E+02 -0.11398756783E+02  0.18051266875E+03  0.18477334660E+03  0.00000000000E+00 0. -1.
         11    1    3    3    0    0 -0.19837635820E+02 -0.40315895506E+02  0.13643286281E+03  0.14364132163E+03  0.00000000000E+00 0.  1.
</event>
<event>
 7    1  0.4687179E-006  0.2402650E+03  0.7561462E-02  0.1119616E+00
          3   -1    0    0  501    0  0.00000000000E+00  0.00000000000E+00  0.98088952329E+03  0.98088952329E+03  0.00000000000E+00 0. -1.
         -3   -1    0    0    0  501 -0.00000000000E+00 -0.00000000000E+00 -0.74035456967E+02  0.74035456967E+02  0.00000000000E+00 0.  1.
         23    2    1    2    0    0  0.22365111089E+03  0.60634267189E+02  0.60518952689E+03  0.65448204015E+03  0.91629927748E+02 0.  0.
          5    1    1    2  502    0 -0.33104685382E+02  0.16957805634E+02  0.12083430511E+03  0.12649857334E+03  0.41800000000E+01 0.  1.
         -5    1    1    2    0  502 -0.19054642551E+03 -0.77592072823E+02  0.18083023432E+03  0.27394436677E+03  0.41800000000E+01 0.  1.
        -11    1    3    3    0    0  0.13683575779E+03  0.62614868544E+02  0.27973732038E+03  0.31764384896E+03  0.00000000000E+00 0.  1.
         11    1    3    3    0    0  0.86815353096E+02 -0.19806013556E+01  0.32545220651E+03  0.33683819118E+03  0.00000000000E+00 0. -1.
</event>
<event>
 7    1  0.4687179E-006  0.4427364E+02  0.7561462E-02  0.1478928E+00
         -1   -1    0    0    0  501 -0.00000000000E+00  0.00000000000E+00  0.37992433604E+03  0.37992433604E+03  0.00000000000E+00 0.  1.
          1   -1    0    0  501    0  0.00000000000E+00 -0.00000000000E+00 -0.31375685036E+02  0.31375685036E+02  0.00000000000E+00 0. -1.
         23    2    1    2    0    0  0.59002518863E+01  0.45880641208E+01  0.14666481378E+03  0.17368477915E+03  0.92736031831E+02 0.  0.
          5    1    1    2  502    0  0.42538444581E+01 -0.13106266003E+02 -0.14704981952E+02  0.20581017842E+02  0.41800000000E+01 0. -1.
         -5    1    1    2    0  502 -0.10154096344E+02  0.85182018822E+01  0.21658881918E+03  0.21703422409E+03  0.41800000000E+01 0. -1.
        -11    1    3    3    0    0 -0.26915374556E+02  0.52763315416E+01  0.13663938728E+03  0.13936498562E+03  0.00000000000E+00 0.  1.
         11    1    3    3    0    0  0.32815626442E+02 -0.68826742083E+00  0.10025426507E+02  0.34319793524E+02  0.00000000000E+00 0. -1.
</event>
<event>
 7    1  0.4687179E-006  0.1354401E+03  0.7561462E-02  0.1219600E+00
          2   -1    0    0  501    0  0.00000000000E+00  0.00000000000E+00  0.55267254509E+03  0.55267254509E+03  0.00000000000E+00 0. -1.
         -2   -1    0    0    0  501 -0.00000000000E+00 -0.00000000000E+00 -0.37132239287E+02  0.37132239287E+02  0.00000000000E+00 0.  1.
         23    2    1    2    0    0 -0.82787894989E+02  0.27971747750E+01  0.31998973325E+03  0.34330845298E+03  0.92766398877E+02 0.  0.
          5    1    1    2  502    0  0.31693329562E+01  0.51258368064E+02  0.48875592901E+02  0.71019440644E+02  0.41800000000E+01 0. -1.
         -5    1    1    2    0  502  0.79618562033E+02 -0.54055542839E+02  0.14667497966E+03  0.17547689076E+03  0.41800000000E+01 0. -1.
        -11    1    3    3    0    0 -0.45223024228E+02 -0.43948135468E+02  0.18904006602E+03  0.19928047343E+03  0.00000000000E+00 0.  1.
         11    1    3    3    0    0 -0.37564870761E+02  0.46745310243E+02  0.13094966723E+03  0.14402797954E+03  0.00000000000E+00 0. -1.
</event>
<event>
 7    1  0.4687179E-006  0.1537514E+03  0.7561462E-02  0.1195938E+00
          1   -1    0    0  501    0  0.00000000000E+00  0.00000000000E+00  0.60850026473E+03  0.60850026473E+03  0.00000000000E+00 0. -1.
         -1   -1    0    0    0  501 -0.00000000000E+00 -0.00000000000E+00 -0.46614861885E+02  0.46614861885E+02  0.00000000000E+00 0.  1.
         23    2    1    2    0    0 -0.54181922023E+02  0.10786784724E+03  0.34628513741E+03  0.37815361560E+03  0.92280049096E+02 0.  0.
          5    1    1    2  502    0  0.68501428735E+02 -0.12712959412E+03  0.15624654886E+03  0.21280233991E+03  0.41800000000E+01 0.  1.
         -5    1    1    2    0  502 -0.14319506712E+02  0.19261746882E+02  0.59353716577E+02  0.64159171106E+02  0.41800000000E+01 0.  1.
        -11    1    3    3    0    0 -0.99368381950E+01  0.90648739889E+02  0.14458347710E+03  0.17093951167E+03  0.00000000000E+00 0.  1.
         11    1    3    3    0    0 -0.44245083828E+02  0.17219107349E+02  0.20170166030E+03  0.20721410394E+03  0.00000000000E+00 0. -1.
</event>
<event>
 7    1  0.4687179E-006  0.2473765E+03  0.7561462E-02  0.1114974E+00
         -1   -1    0    0    0  501 -0.00000000000E+00  0.00000000000E+00  0.13204286933E+03  0.13204286933E+03  0.00000000000E+00 0.  1.
          1   -1    0    0  501    0  0.00000000000E+00 -0.00000000000E+00 -0.50041056200E+03  0.50041056200E+03  0.00000000000E+00 0. -1.
         23    2    1    2    0    0  0.70563742423E+02 -0.22120392356E+03 -0.20016216601E+03  0.31964291380E+03  0.90533320377E+02 0.  0.
          5    1    1    2  502    0  0.29323986015E+02  0.84629234632E+02 -0.87556331420E+02  0.12532193376E+03  0.41800000000E+01 0.  1.
         -5    1    1    2    0  502 -0.99887728437E+02  0.13657468893E+03 -0.80649195231E+02  0.18748858376E+03  0.41800000000E+01 0.  1.
        -11    1    3    3    0    0  0.71836750425E+02 -0.16925221455E+03 -0.10637485585E+03  0.21242043404E+03  0.00000000000E+00 0.  1.
         11    1    3    3    0    0 -0.12730080025E+01 -0.51951709015E+02 -0.93787310165E+02  0.10722247976E+03  0.00000000000E+00 0. -1.
</event>
<event>
 7    1  0.4687179E-006  0.1870263E+03  0.7561462E-02  0.1161171E+00
         -1   -1    0    0    0  501 -0.00000000000E+00  0.00000000000E+00  0.53963427572E+03  0.53963427572E+03  0.00000000000E+00 0.  1.
          1   -1    0    0  501    0  0.00000000000E+00 -0.00000000000E+00 -0.98108384548E+02  0.98108384548E+02  0.00000000000E+00 0. -1.
         23    2    1    2    0    0 -0.16920963397E+03  0.11038172731E+02  0.59178709314E+02  0.20117645732E+03  0.90642737471E+02 0.  0.
          5    1    1    2  502    0  0.96859508201E+02 -0.44345138894E+02  0.11169588118E+03  0.15440757088E+03  0.41800000000E+01 0.  1.
         -5    1    1    2    0  502  0.72350125770E+02  0.33306966163E+02  0.27065130067E+03  0.28215863207E+03  0.41800000000E+01 0.  1.
        -11    1    3    3    0    0 -0.14427891534E+03  0.39754481567E+02  0.64148452589E+02  0.16282459331E+03  0.00000000000E+00 0.  1.
         11    1    3    3    0    0 -0.24930718629E+02 -0.28716308835E+02 -0.49697432754E+01  0.38351864005E+02  0.00000000000E+00 0. -1.
</event>
<event>
 7    1  0.4687179E-006  0.7027692E+02  0.7561462E-02  0.1359154E+00
          1   -1    0    0  501    0  0.00000000000E+00  0.00000000000E+00  0.71796892857E+02  0.71796892857E+02  0.00000000000E+00 0. -1.
         -1   -1    0    0    0  501 -0.00000000000E+00 -0.00000000000E+00 -0.22705117483E+03  0.22705117483E+03  0.00000000000E+00 0.  1.
         23    2    1    2    0    0 -0.52362130697E+02  0.35718991019E+02 -0.52056396436E+02  0.12473662828E+03  0.93977225825E+02 0.  0.
          5    1    1    2  502    0  0.54506433431E+01 -0.11715123477E+02 -0.11834569712E+03  0.11912233232E+03  0.41800000000E+01 0. -1.
         -5    1    1    2    0  502  0.46911487354E+02 -0.24003867541E+02  0.15147811581E+02  0.54989107088E+02  0.41800000000E+01 0. -1.
        -11    1    3    3    0    0 -0.26593448168E+02  0.39956407954E+02 -0.75617488231E+02  0.89564114178E+02  0.00000000000E+00 0.  1.
         11    1    3    3    0    0 -0.25768682528E+02 -0.42374169355E+01  0.23561091795E+02  0.35172514100E+02  0.00000000000E+00 0. -1.
</event>
<event>
 7    1  0.4687179E-006  0.1005425E+03  0.7561462E-02  0.1279159E+00
         -1   -1    0    0    0  501 -0.00000000000E+00  0.00000000000E+00  0.43603917613E+02  0.43603917613E+02  0.00000000000E+00 0.  1.
          1   -1    0    0  501    0  0.00000000000E+00 -0.00000000000E+00 -0.30970453582E+03  0.30970453582E+03  0.00000000000E+00 0. -1.
         23    2    1    2    0    0 -0.16869135534E+02  0.37620051153E+02 -0.12847024286E+03  0.16281258411E+03  0.91123532961E+02 0.  0.
          5    1    1    2  502    0 -0.45928161724E+02 -0.42658747328E+02 -0.40830038914E+02  0.74924823928E+02  0.41800000000E+01 0.  1.
         -5    1    1    2    0  502  0.62797297258E+02  0.50386961743E+01 -0.96800336432E+02  0.11557104540E+03  0.41800000000E+01 0.  1.
        -11    1    3    3    0    0  0.23964575609E+02  0.10907036475E+02 -0.10298767109E+01  0.26350046961E+02  0.00000000000E+00 0.  1.
         11    1    3    3    0    0 -0.40833711143E+02  0.26713014678E+02 -0.12744036615E+03  0.13646253714E+03  0.00000000000E+00 0. -1.
</event>
<event>
 7    1  0.4687179E-006  0.1584302E+03  0.7561462E-02  0.1190480E+00
          1   -1    0    0  501    0  0.00000000000E+00  0.00000000000E+00  0.73957650972E+03  0.73957650972E+03  0.00000000000E+00 0. -1.
         -1   -1    0    0    0  501 -0.00000000000E+00 -0.00000000000E+00 -0.41946385633E+02  0.41946385633E+02  0.00000000000E+00 0.  1.
         23    2    1    2    0    0 -0.54563638669E+02 -0.10677850349E+03  0.48114535419E+03  0.50422742241E+03  0.91463665891E+02 0.  0.
          5    1    1    2  502    0  0.43349660342E+02  0.13201405192E+03  0.20361603393E+03  0.24654383916E+03  0.41800000000E+01 0. -1.
         -5    1    1    2    0  502  0.11213978327E+02 -0.25235548436E+02  0.12868735969E+02  0.30751633781E+02  0.41800000000E+01 0. -1.
        -11    1    3    3    0    0 -0.61009469507E+02 -0.12032978202E+03  0.44733409421E+03  0.46723570460E+03  0.00000000000E+00 0.  1.
         11    1    3    3    0    0  0.64458308375E+01  0.13551278531E+02  0.33811259974E+02  0.36991717803E+02  0.00000000000E+00 0. -1.
</event>
<event>
 7    1  0.4687179E-006  0.1096743E+03  0.7561462E-02  0.1261174E+00
         -1   -1    0    0    0  501 -0.00000000000E+00  0.00000000000E+00  0.54794089023E+02  0.54794089023E+02  0.00000000000E+00 0.  1.
          1   -1    0    0  501    0  0.00000000000E+00 -0.00000000000E+00 -0.42309514264E+03  0.42309514264E+03  0.00000000000E+00 0. -1.
         23    2    1    2    0    0 -0.54108334330E+02  0.53818052105E+02 -0.28291522252E+03  0.30829495009E+03  0.95815753074E+02 0.  0.
          5    1    1    2  502    0  0.51080724887E+01 -0.46727951271E+02 -0.10582288736E+03  0.11586867447E+03  0.41800000000E+01 0.  1.
         -5    1    1    2    0  502  0.49000261841E+02 -0.70901008342E+01  0.20437056265E+02  0.53725607108E+02  0.41800000000E+01 0.  1.
        -11    1    3    3    0    0 -0.81965729496E+02  0.43240409794E+02 -0.21665960259E+03  0.23564697589E+03  0.00000000000E+00 0. -1.
         11    1    3    3    0    0  0.27857395166E+02  0.10577642311E+02 -0.66255619930E+02  0.72647974195E+02  0.00000000000E+00 0.  1.
</event>
<event>
 7    1  0.4687179E-006  0.1946644E+03  0.7561462E-02  0.1154320E+00
          1   -1    0    0  501    0  0.00000000000E+00  0.00000000000E+00  0.86585079836E+03  0.86585079836E+03  0.00000000000E+00 0. -1.
         -1   -1    0    0    0  501 -0.00000000000E+00 -0.00000000000E+00 -0.69739434593E+02  0.69739434593E+02  0.00000000000E+00 0.  1.
         23    2    1    2    0    0 -0.17548518398E+02  0.17518862122E+03  0.64346949601E+03  0.67112009311E+03  0.73144949098E+02 0.  0.
          5    1    1    2  502    0  0.36960149093E+02 -0.18665793296E+03  0.14793990939E+03  0.24106207862E+03  0.41800000000E+01 0. -1.
         -5    1    1    2    0  502 -0.19411630695E+02  0.11469311734E+02  0.47019583662E+01  0.23408061226E+02  0.41800000000E+01 0. -1.
        -11    1    3    3    0    0 -0.70908507108E+01  0.64663206354E+02  0.12517483284E+03  0.14106859748E+03  0.00000000000E+00 0.  1.
         11    1    3    3    0    0 -0.10457667687E+02  0.11052541487E+03  0.51829466317E+03  0.53005149563E+03  0.00000000000E+00 0. -1.
</event>
<event>
 7    1  0.4687179E-006  0.1019171E+03  0.7561462E-02  0.1276315E+00
         -1   -1    0    0    0  501 -0.00000000000E+00  0.00000000000E+00  0.35193163284E+02  0.35193163284E+02  0.00000000000E+00 0.  1.
          1   -1    0    0  501    0  0.00000000000E+00 -0.00000000000E+00 -0.45863046286E+03  0.45863046286E+03  0.00000000000E+00 0. -1.
         23    2    1    2    0    0  0.32813493553E+02 -0.53283304872E+02 -0.22596676505E+03  0.25183512105E+03  0.91891856814E+02 0.  0.
          5    1    1    2  502    0 -0.54450990642E+02  0.33795970153E+02 -0.28132355316E+02  0.70114048493E+02  0.41800000000E+01 0.  1.
         -5    1    1    2    0  502  0.21637497088E+02  0.19487334719E+02 -0.16933817921E+03  0.17187445660E+03  0.41800000000E+01 0.  1.
        -11    1    3    3    0    0  0.44111263679E+02 -0.74256949665E+02 -0.16218402154E+03  0.18374861905E+03  0.00000000000E+00 0. -1.
         11    1    3    3    0    0 -0.11297770126E+02  0.20973644794E+02 -0.63782743506E+02  0.68086502002E+02  0.00000000000E+00 0.  1.
</event>
<event>
 7    1  0.4687179E-006  0.8347475E+02  0.7561462E-02  0.1319470E+00
          1   -1    0    0  501    0  0.00000000000E+00  0.00000000000E+00  0.21783778867E+02  0.21783778867E+02  0.00000000000E+00 0. -1.
         -1   -1    0    0    0  501 -0.00000000000E+00 -0.00000000000E+00 -0.62914337612E+03  0.62914337612E+03  0.00000000000E+00 0.  1.
         23    2    1    2    0    0 -0.13629603804E+02  0.11082520135E+02 -0.15694830345E+03  0.18313857586E+03  0.92727448245E+02 0.  0.
          5    1    1    2  502    0  0.29102418845E+02  0.29776008666E+02 -0.39447803117E+03  0.39669125394E+03  0.41800000000E+01 0.  1.
         -5    1    1    2    0  502 -0.15472815041E+02 -0.40858528801E+02 -0.55933262627E+02  0.71097325190E+02  0.41800000000E+01 0.  1.
        -11    1    3    3    0    0 -0.43186305699E+02  0.23487508649E+02 -0.13658590327E+03  0.14516345626E+03  0.00000000000E+00 0.  1.
         11    1    3    3    0    0  0.29556701895E+02 -0.12404988514E+02 -0.20362400184E+02  0.37975119595E+02  0.00000000000E+00 0. -1.
</event>
<event>
 7    1  0.4687179E-006  0.1430368E+03  0.7561462E-02  0.1209300E+00
          2   -1    0    0  501    0  0.00000000000E+00  0.00000000000E+00  0.71496481636E+03  0.71496481636E+03  0.00000000000E+00 0. -1.
         -2   -1    0    0    0  501 -0.00000000000E+00 -0.00000000000E+00 -0.41549973442E+02  0.41549973442E+02  0.00000000000E+00 0.  1.
         23    2    1    2    0    0  0.11750722647E+03 -0.62320787820E+02  0.27732341398E+03  0.32035950313E+03  0.89610861125E+02 0.  0.
          5    1    1    2  502    0 -0.42860741040E+02  0.41486972731E+02  0.32644224726E+03  0.33187380919E+03  0.41800000000E+01 0. -1.
         -5    1    1    2    0  502 -0.74646485434E+02  0.20833815089E+02  0.69649181666E+02  0.10428147748E+03  0.41800000000E+01 0. -1.
        -11    1    3    3    0    0  0.83103213364E+02 -0.68423911737E+01  0.93457290098E+02  0.12524866251E+03  0.00000000000E+00 0. -1.
         11    1    3    3    0    0  0.34404013109E+02 -0.55478396646E+02  0.18386612389E+03  0.19511084062E+03  0.00000000000E+00 0.  1.
</event>
<event>
 7    1  0.4687179E-006  0.1012808E+03  0.7561462E-02  0.1277625E+00
          2   -1    0    0  501    0  0.00000000000E+00  0.00000000000E+00  0.42369037798E+03  0.42369037798E+03  0.00000000000E+00 0. -1.
         -2   -1    0    0    0  501 -0.00000000000E+00 -0.00000000000E+00 -0.29522633663E+02  0.29522633663E+02  0.00000000000E+00 0.  1.
         23    2    1    2    0    0  0.18423855293E+02 -0.11033057948E+02  0.19021586440E+03  0.21299212323E+03  0.93393804280E+02 0.  0.
          5    1    1    2  502    0  0.11990331490E+02 -0.44791777396E+02  0.31066300563E+02  0.55970159926E+02  0.41800000000E+01 0.  1.
         -5    1    1    2    0  502 -0.30414186783E+02  0.55824835344E+02  0.17288557936E+03  0.18425072849E+03  0.41800000000E+01 0.  1.
        -11    1    3    3    0    0  0.43815539410E+02  0.23274211141E+02  0.73147104946E+02  0.88385458986E+02  0.00000000000E+00 0.  1.
         11    1    3    3    0    0 -0.25391684117E+02 -0.34307269089E+02  0.11706875945E+03  0.12460666424E+03  0.00000000000E+00 0. -1.
</event>
<event>
 7    1  0.4687179E-006  0.7600326E+02  0.7561462E-02  0.1340792E+00
          2   -1    0    0  501    0  0.00000000000E+00  0.00000000000E+00  0.24775752375E+03  0.24775752375E+03  0.00000000000E+00 0. -1.
         -2   -1    0    0    0  501 -0.00000000000E+00 -0.00000000000E+00 -0.57698974120E+02  0.57698974120E+02  0.00000000000E+00 0.  1.
         23    2    1    2    0    0  0.16285120635E+02 -0.30838716606E+02  0.12588138692E+03  0.16060131844E+03  0.93436761052E+02 0.  0.
          5    1    1    2  502    0  0.33609306377E+01 -0.13380328567E+02  0.89105563736E+02  0.90264073340E+02  0.41800000000E+01 0. -1.
         -5    1    1    2    0  502 -0.19646051273E+02  0.44219045174E+02 -0.24928401024E+02  0.54591106091E+02  0.41800000000E+01 0. -1.
        -11    1    3    3    0    0 -0.33393397121E+02 -0.79520893828E+01  0.86902334786E+02  0.93436451602E+02  0.00000000000E+00 0. -1.
         11    1    3    3    0    0  0.49678517756E+02 -0.22886627224E+02  0.38979052134E+02  0.67164866838E+02  0.00000000000E+00 0.  1.
</event>
<event>
 7    1  0.4687179E-006  0.9039658E+02  0.7561462E-02  0.1301894E+00
          2   -1    0    0  501    0  0.00000000000E+00  0.00000000000E+00  0.50975586686E+02  0.50975586686E+02  0.00000000000E+00 0. -1.
         -2   -1    0    0    0  501 -0.00000000000E+00 -0.00000000000E+00 -0.38362571785E+03  0.38362571785E+03  0.00000000000E+00 0.  1.
         23    2    1    2    0    0  0.28203439933E+02 -0.17039431560E+02 -0.15438983006E+02  0.92104015576E+02  0.84610940410E+02 0.  0.
          5    1    1    2  502    0 -0.46072778856E+02 -0.19026030867E+02 -0.44966928507E+02  0.67262083386E+02  0.41800000000E+01 0. -1.
         -5    1    1    2    0  502  0.17869338922E+02  0.36065462427E+02 -0.27224421965E+03  0.27523520557E+03  0.41800000000E+01 0.  1.
        -11    1    3    3    0    0 -0.23539236571E+02 -0.28847330517E+02 -0.16500151577E+01  0.37269111692E+02  0.00000000000E+00 0.  1.
         11    1    3    3    0    0  0.51742676504E+02  0.11807898957E+02 -0.13788967848E+02  0.54834903884E+02  0.00000000000E+00 0. -1.
</event>
<event>
 7    1  0.4687179E-006  0.1391322E+03  0.7561462E-02  0.1214501E+00
         -4   -1    0    0    0  501 -0.00000000000E+00  0.00000000000E+00  0.77728121966E+02  0.77728121966E+02  0.00000000000E+00 0.  1.
          4   -1    0    0  501    0  0.00000000000E+00 -0.00000000000E+00 -0.27125038782E+03  0.27125038782E+03  0.00000000000E+00 0. -1.
         23    2    1    2    0    0  0.85985253104E+02  0.38230981143E+02 -0.13285264262E+03  0.18109913163E+03  0.79322122741E+02 0.  0.
          5    1    1    2  502    0  0.31137697861E+02 -0.21664385623E+02 -0.14054164814E+02  0.40668092912E+02  0.41800000000E+01 0.  1.
         -5    1    1    2    0  502 -0.11712295096E+03 -0.16566595521E+02 -0.46615458426E+02  0.12721128525E+03  0.41800000000E+01 0.  1.
        -11    1    3    3    0    0  0.14213467242E+02  0.47306909497E+02 -0.67238244575E+02  0.83432295131E+02  0.00000000000E+00 0.  1.
         11    1    3    3    0    0  0.71771785863E+02 -0.90759283536E+01 -0.65614398042E+02  0.97666836499E+02  0.00000000000E+00 0. -1.
</event>
<event>
 7    1  0.4687179E-006  0.1261913E+03  0.7561462E-02  0.1233219E+00
          2   -1    0    0  501    0  0.00000000000E+00  0.00000000000E+00  0.49766444966E+03  0.49766444966E+03  0.00000000000E+00 0. -1.
         -2   -1    0    0    0  501 -0.00000000000E+00 -0.00000000000E+00 -0.53296015017E+02  0.53296015017E+02  0.00000000000E+00 0.  1.
         23    2    1    2    0    0  0.11865777151E+03 -0.21448179058E+02  0.22140592335E+03  0.26829775138E+03  0.91779133668E+02 0.  0.
          5    1    1    2  502    0 -0.44132020566E+02  0.30769867252E+02  0.75421282333E+01  0.54486476012E+02  0.41800000000E+01 0.  1.
         -5    1    1    2    0  502 -0.74525750941E+02 -0.93216881935E+01  0.21542038306E+03  0.22817623729E+03  0.41800000000E+01 0.  1.
        -11    1    3    3    0    0  0.29520054094E+02 -0.16739635189E+02  0.15056205583E+03  0.15433917726E+03  0.00000000000E+00 0. -1.
         11    1    3    3    0    0  0.89137717412E+02 -0.47085438694E+01  0.70843867515E+02  0.11395857412E+03  0.00000000000E+00 0.  1.
</event>
<event>
 7    1  0.4687179E-006  0.1018054E+03  0.7561462E-02  0.1276545E+00
         -2   -1    0    0    0  501 -0.00000000000E+00  0.00000000000E+00  0.29014470424E+03  0.29014470424E+03  0.00000000000E+00 0.  1.
          2   -1    0    0  501    0  0.00000000000E+00 -0.00000000000E+00 -0.77037503765E+02  0.77037503765E+02  0.00000000000E+00 0. -1.
         23    2    1    2    0    0 -0.86707815296E+02 -0.46411223992E+02  0.57885796581E+02  0.14489035716E+03  0.89275994577E+02 0.  0.
          5    1    1    2  502    0  0.36937094356E+02  0.19384154526E+02 -0.13679998394E+02  0.44098856473E+02  0.41800000000E+01 0.  1.
         -5    1    1    2    0  502  0.49770720939E+02  0.27027069466E+02  0.16890140229E+03  0.17819299437E+03  0.41800000000E+01 0.  1.
        -11    1    3    3    0    0 -0.37939030344E+02 -0.53542078973E+00 -0.19417043378E+02  0.42622508988E+02  0.00000000000E+00 0. -1.
         11    1    3    3    0    0 -0.48768784951E+02 -0.45875803202E+02  0.77302839959E+02  0.10226784818E+03  0.00000000000E+00 0.  1.
</event>
<event>
 7    1  0.4687179E-006  0.6780038E+02  0.7561462E-02  0.1367737E+00
          1   -1    0    0  501    0  0.00000000000E+00  0.00000000000E+00  0.33412220249E+02  0.33412220249E+02  0.00000000000E+00 0.  1.
         -1   -1    0    0    0  501 -0.00000000000E+00 -0.00000000000E+00 -0.39304967872E+03  0.39304967872E+03  0.00000000000E+00 0. -1.
         23    2    1    2    0    0 -0.70470392556E+01 -0.44469870593E+01 -0.82325207528E+02  0.12212857840E+03  0.89824904186E+02 0.  0.
          5    1    1    2  502    0  0.12846259636E+02 -0.23051466210E+02 -0.11812550335E+01  0.26744424550E+02  0.41800000000E+01 0. -1.
         -5    1    1    2    0  502 -0.57992203800E+01  0.27498453269E+02 -0.27613099591E+03  0.27758889602E+03  0.41800000000E+01 0. -1.
        -11    1    3    3    0    0 -0.43657524965E+02 -0.41950215482E+01 -0.71623599265E+02  0.83985222888E+02  0.00000000000E+00 0.  1.
         11    1    3    3    0    0  0.36610485710E+02 -0.25196551106E+00 -0.10701608263E+02  0.38143355515E+02  0.00000000000E+00 0. -1.
</event>
<event>
 7    1  0.4687179E-006  0.3231673E+03  0.7561462E-02  0.1074201E+00
         -1   -1    0    0    0  501 -0.00000000000E+00  0.00000000000E+00  0.41718904627E+03  0.41718904627E+03  0.00000000000E+00 0.  1.
          1   -1    0    0  501    0  0.00000000000E+00 -0.00000000000E+00 -0.30275741754E+03  0.30275741754E+03  0.00000000000E+00 0. -1.
         23    2    1    2    0    0 -0.30743799653E+03 -0.49502437448E+02 -0.77797856982E+02  0.33320306132E+03  0.89460385078E+02 0.  0.
          5    1    1    2  502    0  0.50372727831E+02 -0.24438062594E+02  0.77403231321E+02  0.95620935110E+02  0.41800000000E+01 0.  1.
         -5    1    1    2    0  502  0.25706526870E+03  0.73940500042E+02  0.11482625439E+03  0.29112246738E+03  0.41800000000E+01 0.  1.
        -11    1    3    3    0    0 -0.16910545811E+03 -0.69633107158E+02 -0.29144723499E+02  0.18518866186E+03  0.00000000000E+00 0.  1.
         11    1    3    3    0    0 -0.13833253842E+03  0.20130669709E+02 -0.48653133483E+02  0.14801439946E+03  0.00000000000E+00 0. -1.
</event>
<event>
 7    1  0.4687179E-006  0.1104840E+03  0.7561462E-02  0.1259676E+00
          2   -1    0    0  501    0  0.00000000000E+00  0.00000000000E+00  0.42753681746E+03  0.42753681746E+03  0.00000000000E+00 0.  1.
         -2   -1    0    0    0  501 -0.00000000000E+00 -0.00000000000E+00 -0.30930673698E+02  0.30930673698E+02  0.00000000000E+00 0. -1.
         23    2    1    2    0    0 -0.33426451231E+02  0.73259265390E+01  0.15536657183E+03  0.18457968808E+03  0.93594298793E+02 0.  0.
          5    1    1    2  502    0 -0.45060867400E+02  0.87504905800E+01  0.59791960326E+02  0.75495720249E+02  0.41800000000E+01 0.  1.
         -5    1    1    2    0  502  0.78487318632E+02 -0.16076417119E+02  0.18144761161E+03  0.19839208284E+03  0.41800000000E+01 0.  1.
        -11    1    3    3    0    0 -0.57030484946E+02  0.27761388067E+02  0.12885754009E+03  0.14362254878E+03  0.00000000000E+00 0.  1.
         11    1    3    3    0    0  0.23604033715E+02 -0.20435461528E+02  0.26509031743E+02  0.40957139298E+02  0.00000000000E+00 0. -1.
</event>
<event>
 7    1  0.4687179E-006  0.1052084E+03  0.7561462E-02  0.1269710E+00
          2   -1    0    0  501    0  0.00000000000E+00  0.00000000000E+00  0.69087477625E+02  0.69087477625E+02  0.00000000000E+00 0.  1.
         -2   -1    0    0    0  501 -0.00000000000E+00 -0.00000000000E+00 -0.17944630311E+03  0.17944630311E+03  0.00000000000E+00 0. -1.
         23    2    1    2    0    0 -0.13767602771E+01  0.22840404673E+02 -0.38347325097E+02  0.10239556154E+03  0.92145288135E+02 0.  0.
          5    1    1    2  502    0 -0.14253555607E+02  0.46766425401E+02 -0.52922503248E+02  0.72170119456E+02  0.41800000000E+01 0.  1.
         -5    1    1    2    0  502  0.15630315884E+02 -0.69606830074E+02 -0.19088997138E+02  0.73968099741E+02  0.41800000000E+01 0.  1.
        -11    1    3    3    0    0  0.39253739625E+02 -0.64738628500E+01 -0.81054917627E+00  0.39792260111E+02  0.00000000000E+00 0.  1.
         11    1    3    3    0    0 -0.40630499902E+02  0.29314267523E+02 -0.37536775921E+02  0.62603301425E+02  0.00000000000E+00 0. -1.
</event>
<event>
 6    1  0.4687179E-006  0.6740170E+02  0.7561462E-02  0.1369158E+00
          2   -1    0    0  501    0  0.00000000000E+00  0.00000000000E+00  0.86047083078E+02  0.86047083078E+02  0.00000000000E+00 0. -1.
         -2   -1    0    0    0  501 -0.00000000000E+00 -0.00000000000E+00 -0.10721763410E+03  0.10721763410E+03  0.00000000000E+00 0.  1.
          5    1    1    2  502    0  0.32905548596E+02  0.14619920205E+02 -0.73078355576E+02  0.81574724326E+02  0.41800000000E+01 0. -1.
         -5    1    1    2    0  502 -0.38891102525E+02 -0.21870060619E+02  0.26702956001E+02  0.52166441955E+02  0.41800000000E+01 0. -1.
        -11    1    1    2    0    0  0.28151057759E+02  0.12748502027E+02  0.12057009362E+02  0.33171943440E+02  0.00000000000E+00 0.  1.
         11    1    1    2    0    0 -0.22165503829E+02 -0.54983616122E+01  0.13147839188E+02  0.26351607460E+02  0.00000000000E+00 0. -1.
</event>
<event>
 7    1  0.4687179E-006  0.9946877E+02  0.7561462E-02  0.1281417E+00
          2   -1    0    0  501    0  0.00000000000E+00  0.00000000000E+00  0.10339272906E+03  0.10339272906E+03  0.00000000000E+00 0.  1.
         -2   -1    0    0    0  501 -0.00000000000E+00 -0.00000000000E+00 -0.12106021743E+03  0.12106021743E+03  0.00000000000E+00 0. -1.
         23    2    1    2    0    0  0.24811596593E+02  0.12982152820E+02  0.17569275363E+01  0.94807573782E+02  0.90560684819E+02 0.  0.
          5    1    1    2  502    0  0.49549972550E+02  0.31962727556E+01 -0.19282393432E+02  0.53429383636E+02  0.41800000000E+01 0.  1.
         -5    1    1    2    0  502 -0.74361569143E+02 -0.16178425575E+02 -0.14202248065E+00  0.76215989070E+02  0.41800000000E+01 0.  1.
        -11    1    3    3    0    0  0.16723399540E+02 -0.27186459911E+02 -0.29351112394E+02  0.43362005182E+02  0.00000000000E+00 0. -1.
         11    1    3    3    0    0  0.80881970527E+01  0.40168612731E+02  0.31108039930E+02  0.51445568600E+02  0.00000000000E+00 0.  1.
</event>
<event>
 7    1  0.4687179E-006  0.1230366E+03  0.7561462E-02  0.1238170E+00
         -4   -1    0    0    0  501 -0.00000000000E+00  0.00000000000E+00  0.69962238643E+02  0.69962238643E+02  0.00000000000E+00 0.  1.
          4   -1    0    0  501    0  0.00000000000E+00 -0.00000000000E+00 -0.32005182793E+03  0.32005182793E+03  0.00000000000E+00 0. -1.
         23    2    1    2    0    0 -0.55241116404E+02  0.73415421900E+02 -0.17593984884E+03  0.21800129916E+03  0.90157256571E+02 0.  0.
          5    1    1    2  502    0  0.20110219313E+02  0.34461068915E+02 -0.30440868416E+02  0.50359756369E+02  0.41800000000E+01 0. -1.
         -5    1    1    2    0  502  0.35130897090E+02 -0.10787649082E+03 -0.43708872028E+02  0.12165301104E+03  0.41800000000E+01 0. -1.
        -11    1    3    3    0    0 -0.37273778315E+02  0.41356313596E+02 -0.22212758412E+02  0.59942354478E+02  0.00000000000E+00 0.  1.
         11    1    3    3    0    0 -0.17967338089E+02  0.32059108304E+02 -0.15372709043E+03  0.15805894468E+03  0.00000000000E+00 0. -1.
</event>
<event>
 7    1  0.4687179E-006  0.1416674E+03  0.7561462E-02  0.1211103E+00
         -1   -1    0    0    0  501 -0.00000000000E+00  0.00000000000E+00  0.15633223629E+03  0.15633223629E+03  0.00000000000E+00 0.  1.
          1   -1    0    0  501    0  0.00000000000E+00 -0.00000000000E+00 -0.17151395698E+03  0.17151395698E+03  0.00000000000E+00 0. -1.
         23    2    1    2    0    0 -0.77487370570E+02 -0.59331248705E+02 -0.81871994764E+02  0.15573980144E+03  0.89595605669E+02 0.  0.
          5    1    1    2  502    0  0.97940720878E+02  0.81060718834E+02  0.44800798210E+02  0.13486218471E+03  0.41800000000E+01 0. -1.
         -5    1    1    2    0  502 -0.20453350308E+02 -0.21729470129E+02  0.21889475860E+02  0.37244207124E+02  0.41800000000E+01 0. -1.
        -11    1    3    3    0    0 -0.93456280536E+02 -0.42085786047E+02 -0.44830249532E+02  0.11187064419E+03  0.00000000000E+00 0.  1.
         11    1    3    3    0    0  0.15968909966E+02 -0.17245462659E+02 -0.37041745232E+02  0.43869157248E+02  0.00000000000E+00 0. -1.
</event>
<event>
 7    1  0.4687179E-006  0.1356449E+03  0.7561462E-02  0.1219312E+00
          2   -1    0    0  501    0  0.00000000000E+00  0.00000000000E+00  0.79621939425E+03  0.79621939425E+03  0.00000000000E+00 0. -1.
         -2   -1    0    0    0  501 -0.00000000000E+00 -0.00000000000E+00 -0.30842663705E+02  0.30842663705E+02  0.00000000000E+00 0.  1.
         23    2    1    2    0    0 -0.34773501202E+02  0.10825823202E+03  0.37501773300E+03  0.40167147550E+03  0.88162537282E+02 0.  0.
          5    1    1    2  502    0  0.50152470292E+02 -0.65644412874E+02  0.92551272433E+02  0.12412763450E+03  0.41800000000E+01 0.  1.
         -5    1    1    2    0  502 -0.15378969091E+02 -0.42613819151E+02  0.29780772511E+03  0.30126294795E+03  0.41800000000E+01 0.  1.
        -11    1    3    3    0    0 -0.60939640580E+02  0.48644145887E+02  0.18307995069E+03  0.19899286688E+03  0.00000000000E+00 0. -1.
         11    1    3    3    0    0  0.26166139378E+02  0.59614086138E+02  0.19193778231E+03  0.20267860863E+03  0.00000000000E+00 0.  1.
</event>
<event>
 7    1  0.4687179E-006  0.1726931E+03  0.7561462E-02  0.1175068E+00
          1   -1    0    0  501    0  0.00000000000E+00  0.00000000000E+00  0.56320270022E+03  0.56320270022E+03  0.00000000000E+00 0. -1.
         -1   -1    0    0    0  501 -0.00000000000E+00 -0.00000000000E+00 -0.78665213360E+02  0.78665213360E+02  0.00000000000E+00 0.  1.
         23    2    1    2    0    0 -0.81059430987E+02 -0.12378935064E+03  0.38829267199E+03  0.42552474699E+03  0.91682476492E+02 0.  0.
          5    1    1    2  502    0  0.10522178931E+03  0.83819068795E+02  0.34741502838E+02  0.13900253832E+03  0.41800000000E+01 0.  1.
         -5    1    1    2    0  502 -0.24162358324E+02  0.39970281844E+02  0.61503312025E+02  0.77340628266E+02  0.41800000000E+01 0.  1.
        -11    1    3    3    0    0 -0.82054022877E+02 -0.63887773681E+02  0.17113036304E+03  0.20025012223E+03  0.00000000000E+00 0.  1.
         11    1    3    3    0    0  0.99459189011E+00 -0.59901576958E+02  0.21716230895E+03  0.22527462476E+03  0.00000000000E+00 0. -1.
</event>
<event>
 7    1  0.4974028E-006  0.1049340E+03  0.7561462E-02  0.1270250E+00
         -1   -1    0    0    0  501 -0.00000000000E+00  0.00000000000E+00  0.14208527703E+03  0.14208527703E+03  0.00000000000E+00 0.  1.
          1   -1    0    0  501    0  0.00000000000E+00 -0.00000000000E+00 -0.11524685842E+03  0.11524685842E+03  0.00000000000E+00 0. -1.
         23    2    1    2    0    0  0.54370268053E+02 -0.28131403158E+02 -0.17164747713E+02  0.11127990297E+03  0.91329548067E+02 0.  0.
          5    1    1    2  502    0 -0.93350427415E+02  0.19156139891E+02  0.45760757274E+02  0.10579593234E+03  0.41800000000E+01 0. -1.
         -5    1    1    2    0  502  0.38980159362E+02  0.89752632662E+01 -0.17575909483E+01  0.40256300135E+02  0.41800000000E+01 0. -1.
        -11    1    3    3    0    0  0.20630528947E+02 -0.34239644363E+02 -0.49857240945E+02  0.63903962674E+02  0.00000000000E+00 0. -1.
         11    1    3    3    0    0  0.33739739106E+02  0.61082412050E+01  0.32692493233E+02  0.47375940300E+02  0.00000000000E+00 0.  1.
</event>
<event>
 7    1  0.4687179E-006  0.1766511E+03  0.7561462E-02  0.1171084E+00
          1   -1    0    0  501    0  0.00000000000E+00  0.00000000000E+00  0.23976402128E+03  0.23976402128E+03  0.00000000000E+00 0. -1.
         -1   -1    0    0    0  501 -0.00000000000E+00 -0.00000000000E+00 -0.22606017399E+03  0.22606017399E+03  0.00000000000E+00 0.  1.
         23    2    1    2    0    0  0.77358828786E+02 -0.13538739092E+03  0.14088043556E+03  0.22889869170E+03  0.90736871945E+02 0.  0.
          5    1    1    2  502    0 -0.36421884427E+02 -0.17958765055E+01  0.10586912994E+02  0.38201229880E+02  0.41800000000E+01 0.  1.
         -5    1    1    2    0  502 -0.40936944359E+02  0.13718326742E+03 -0.13776350126E+03  0.19872427369E+03  0.41800000000E+01 0.  1.
        -11    1    3    3    0    0  0.70028259613E+02 -0.14515413124E+03  0.10847629709E+03  0.19426987926E+03  0.00000000000E+00 0. -1.
         11    1    3    3    0    0  0.73305691732E+01  0.97667403208E+01  0.32404138472E+02  0.34628812440E+02  0.00000000000E+00 0.  1.
</event>
<event>
 7    1  0.4687179E-006  0.1055709E+03  0.7561462E-02  0.1268999E+00
         -3   -1    0    0    0  501 -0.00000000000E+00  0.00000000000E+00  0.97371409415E+03  0.97371409415E+03  0.00000000000E+00 0.  1.
          3   -1    0    0  501    0  0.00000000000E+00 -0.00000000000E+00 -0.21218864337E+02  0.21218864337E+02  0.00000000000E+00 0. -1.
         23    2    1    2    0    0  0.30684875336E+02  0.51833547157E+02  0.18369363607E+03  0.21370972190E+03  0.91105516382E+02 0.  0.
          5    1    1    2  502    0 -0.26614358306E+02 -0.75282188344E+02  0.26397773394E+03  0.27582140665E+03  0.41800000000E+01 0. -1.
         -5    1    1    2    0  502 -0.40705170304E+01  0.23448641187E+02  0.50482385980E+03  0.50540182994E+03  0.41800000000E+01 0. -1.
        -11    1    3    3    0    0 -0.24865680455E+02  0.44516436285E+02  0.10899518336E+03  0.12033272688E+03  0.00000000000E+00 0.  1.
         11    1    3    3    0    0  0.55550555791E+02  0.73171108723E+01  0.74698452716E+02  0.93376995017E+02  0.00000000000E+00 0. -1.
</event>
<event>
 7    1  0.4687179E-006  0.1374755E+03  0.7561462E-02  0.1216767E+00
          2   -1    0    0  501    0  0.00000000000E+00  0.00000000000E+00  0.16243408937E+03  0.16243408937E+03  0.00000000000E+00 0. -1.
         -2   -1    0    0    0  501 -0.00000000000E+00 -0.00000000000E+00 -0.21013264088E+03  0.21013264088E+03  0.00000000000E+00 0.  1.
         23    2    1    2    0    0  0.62774550466E+01  0.10704113250E+03  0.82501699626E+02  0.16257383617E+03  0.90147164562E+02 0.  0.
          5    1    1    2  502    0 -0.46529635455E+02 -0.74367530952E+02 -0.22914183534E+02  0.90763807999E+02  0.41800000000E+01 0. -1.
         -5    1    1    2    0  502  0.40252180408E+02 -0.32673601543E+02 -0.10728606760E+03  0.11922908608E+03  0.41800000000E+01 0. -1.
        -11    1    3    3    0    0 -0.33654292513E+02  0.80270564705E+02  0.31705473151E+02  0.92634831409E+02  0.00000000000E+00 0.  1.
         11    1    3    3    0    0  0.39931747559E+02  0.26770567791E+02  0.50796226476E+02  0.69939004762E+02  0.00000000000E+00 0. -1.
</event>
<event>
 7    1  0.4687179E-006  0.2644413E+03  0.7561462E-02  0.1104504E+00
          1   -1    0    0  501    0  0.00000000000E+00  0.00000000000E+00  0.57932451502E+03  0.57932451502E+03  0.00000000000E+00 0. -1.
         -1   -1    0    0    0  501 -0.00000000000E+00 -0.00000000000E+00 -0.12929048931E+03  0.12929048931E+03  0.00000000000E+00 0.  1.
         23    2    1    2    0    0  0.30504746553E+02  0.24568218139E+03  0.16331210026E+03  0.30968562673E+03  0.89129520915E+02 0.  0.
          5    1    1    2  502    0 -0.75921462623E+02 -0.16425467878E+03  0.16023139576E+03  0.24173382175E+03  0.41800000000E+01 0. -1.
         -5    1    1    2    0  502  0.45416716070E+02 -0.81427502607E+02  0.12649052968E+03  0.15719555585E+03  0.41800000000E+01 0. -1.
        -11    1    3    3    0    0 -0.15113392302E+02  0.11802266065E+03  0.37554278055E+02  0.12477213973E+03  0.00000000000E+00 0. -1.
         11    1    3    3    0    0  0.45618138855E+02  0.12765952074E+03  0.12575782220E+03  0.18491348700E+03  0.00000000000E+00 0.  1.
</event>
<event>
 7    1  0.4687179E-006  0.1700786E+03  0.7561462E-02  0.1177766E+00
         -1   -1    0    0    0  501 -0.00000000000E+00  0.00000000000E+00  0.78253905806E+02  0.78253905806E+02  0.00000000000E+00 0.  1.
          1   -1    0    0  501    0  0.00000000000E+00 -0.00000000000E+00 -0.44657031972E+03  0.44657031972E+03  0.00000000000E+00 0. -1.
         23    2    1    2    0    0  0.25972713617E+02  0.13034224896E+03 -0.27429839200E+03  0.31950969571E+03  0.95828774822E+02 0.  0.
          5    1    1    2  502    0 -0.71882849401E+02 -0.70207283231E+02 -0.79428458360E+02  0.12815053279E+03  0.41800000000E+01 0.  1.
         -5    1    1    2    0  502  0.45910135784E+02 -0.60134965732E+02 -0.14589563551E+02  0.77163997018E+02  0.41800000000E+01 0.  1.
        -11    1    3    3    0    0  0.55571402591E+02  0.39242027158E+02 -0.11702218701E+03  0.13535992662E+03  0.00000000000E+00 0. -1.
         11    1    3    3    0    0 -0.29598688974E+02  0.91100221806E+02 -0.15727620499E+03  0.18414976909E+03  0.00000000000E+00 0.  1.
</event>
<event>
 7    1  0.4687179E-006  0.1248364E+03  0.7561462E-02  0.1235325E+00
          2   -1    0    0  501    0  0.00000000000E+00  0.00000000000E+00  0.25028253037E+02  0.25028253037E+02  0.00000000000E+00 0. -1.
         -2   -1    0    0    0  501 -0.00000000000E+00 -0.00000000000E+00 -0.10046750485E+04  0.10046750485E+04  0.00000000000E+00 0.  1.
         23    2    1    2    0    0 -0.37437534385E+01 -0.95165946707E+02 -0.23588015169E+03  0.26950100310E+03  0.88998716897E+02 0.  0.
          5    1    1    2  502    0  0.16718323429E+01  0.11353167356E+03 -0.39756137914E+03  0.41347884893E+03  0.41800000000E+01 0.  1.
         -5    1    1    2    0  502  0.20719210956E+01 -0.18365726855E+02 -0.34620526466E+03  0.34672344954E+03  0.41800000000E+01 0.  1.
        -11    1    3    3    0    0  0.24854333626E+02 -0.91959872640E+01 -0.11737452308E+03  0.12032906029E+03  0.00000000000E+00 0.  1.
         11    1    3    3    0    0 -0.28598087065E+02 -0.85969959443E+02 -0.11850562861E+03  0.14917194281E+03  0.00000000000E+00 0. -1.
</event>
<event>
 7    1  0.4687179E-006  0.1097546E+03  0.7561462E-02  0.1261025E+00
         -2   -1    0    0    0  501 -0.00000000000E+00  0.00000000000E+00  0.51222752700E+02  0.51222752700E+02  0.00000000000E+00 0. -1.
          2   -1    0    0  501    0  0.00000000000E+00 -0.00000000000E+00 -0.39263911673E+03  0.39263911673E+03  0.00000000000E+00 0.  1.
         23    2    1    2    0    0 -0.44526595132E+02  0.78988026409E+02 -0.17148971710E+03  0.21421193993E+03  0.90864218188E+02 0.  0.
          5    1    1    2  502    0  0.41262307698E+02 -0.96132909356E+02 -0.18061170350E+03  0.20876344062E+03  0.41800000000E+01 0. -1.
         -5    1    1    2    0  502  0.32642874347E+01  0.17144882947E+02  0.10685056574E+02  0.20886488879E+02  0.41800000000E+01 0. -1.
        -11    1    3    3    0    0  0.23844584952E+01  0.25943615820E+02 -0.12905520168E+03  0.13165865686E+03  0.00000000000E+00 0.  1.
         11    1    3    3    0    0 -0.46911053628E+02  0.53044410589E+02 -0.42434515420E+02  0.82553283073E+02  0.00000000000E+00 0. -1.
</event>
<event>
 7    1  0.4687179E-006  0.1439888E+03  0.7561462E-02  0.1208060E+00
         -2   -1    0    0    0  501 -0.00000000000E+00  0.00000000000E+00  0.54713230787E+02  0.54713230787E+02  0.00000000000E+00 0.  1.
          2   -1    0    0  501    0  0.00000000000E+00 -0.00000000000E+00 -0.61161163705E+03  0.61161163705E+03  0.00000000000E+00 0. -1.
         23    2    1    2    0    0  0.30823487333E+02  0.77029206497E+02 -0.41610682896E+03  0.43530194107E+03  0.97258936729E+02 0.  0.
          5    1    1    2  502    0 -0.83368420941E+02 -0.75544058607E+02 -0.13816562864E+03  0.17822573254E+03  0.41800000000E+01 0. -1.
         -5    1    1    2    0  502  0.52544933607E+02 -0.14851478891E+01 -0.26259486707E+01  0.52797194229E+02  0.41800000000E+01 0.  1.
        -11    1    3    3    0    0  0.35357190213E+02  0.96447091632E+02 -0.38403931243E+03  0.39754039527E+03  0.00000000000E+00 0. -1.
         11    1    3    3    0    0 -0.45337028799E+01 -0.19417885136E+02 -0.32067516528E+02  0.37761545800E+02  0.00000000000E+00 0.  1.
</event>
<event>
 7    1  0.4687179E-006  0.1064658E+03  0.7561462E-02  0.1267258E+00
          2   -1    0    0  501    0  0.00000000000E+00  0.00000000000E+00  0.33676475816E+02  0.33676475816E+02  0.00000000000E+00 0.  1.
         -2   -1    0    0    0  501 -0.00000000000E+00 -0.00000000000E+00 -0.41221098620E+03  0.41221098620E+03  0.00000000000E+00 0. -1.
         23    2    1    2    0    0  0.24539819858E+01 -0.10469646345E+02 -0.78353981081E+02  0.12050796076E+03  0.90924071249E+02 0.  0.
          5    1    1    2  502    0 -0.48503192738E+02 -0.34940541899E+02 -0.16284673983E+03  0.17352214339E+03  0.41800000000E+01 0.  1.
         -5    1    1    2    0  502  0.46049210752E+02  0.45410188244E+02 -0.13733378947E+03  0.15185735787E+03  0.41800000000E+01 0.  1.
        -11    1    3    3    0    0 -0.20639058438E+02  0.33031163633E+02 -0.50997307418E+02  0.64169727037E+02  0.00000000000E+00 0.  1.
         11    1    3    3    0    0  0.23093040423E+02 -0.43500809978E+02 -0.27356673663E+02  0.56338233720E+02  0.00000000000E+00 0. -1.
</event>
<event>
 7    1  0.4687179E-006  0.1083523E+03  0.7561462E-02  0.1263652E+00
         -1   -1    0    0    0  501 -0.00000000000E+00  0.00000000000E+00  0.10759282645E+03  0.10759282645E+03  0.00000000000E+00 0.  1.
          1   -1    0    0  501    0  0.00000000000E+00 -0.00000000000E+00 -0.17419504636E+03  0.17419504636E+03  0.00000000000E+00 0. -1.
         23    2    1    2    0    0  0.19985336896E+02  0.78690664989E+02 -0.51960704754E+02  0.13193858333E+03  0.90090179742E+02 0.  0.
          5    1    1    2  502    0  0.86336280200E+01 -0.94070343191E+02  0.25598455495E+02  0.97961841166E+02  0.41800000000E+01 0. -1.
         -5    1    1    2    0  502 -0.28618964916E+02  0.15379678202E+02 -0.40239970653E+02  0.51887448315E+02  0.41800000000E+01 0. -1.
        -11    1    3    3    0    0 -0.62120602144E+01  0.50593730333E+02 -0.72306673940E+02  0.88467905691E+02  0.00000000000E+00 0. -1.
         11    1    3    3    0    0  0.26197397110E+02  0.28096934656E+02  0.20345969186E+02  0.43470677641E+02  0.00000000000E+00 0.  1.
</event>
<event>
 7    1  0.4687179E-006  0.1867395E+03  0.7561462E-02  0.1161435E+00
         -1   -1    0    0    0  501 -0.00000000000E+00  0.00000000000E+00  0.55822191217E+03  0.55822191217E+03  0.00000000000E+00 0.  1.
          1   -1    0    0  501    0  0.00000000000E+00 -0.00000000000E+00 -0.81024517362E+02  0.81024517362E+02  0.00000000000E+00 0. -1.
         23    2    1    2    0    0 -0.14175863405E+02 -0.71353967033E+01  0.14097216561E+02  0.95752774760E+02  0.93370195299E+02 0.  0.
          5    1    1    2  502    0 -0.97134859905E+02  0.95756377054E+02  0.28081720039E+03  0.31221825250E+03  0.41800000000E+01 0. -1.
         -5    1    1    2    0  502  0.11131072331E+03 -0.88620980351E+02  0.18228297785E+03  0.23127540227E+03  0.41800000000E+01 0.  1.
        -11    1    3    3    0    0  0.19435062468E+02 -0.41980668268E+02  0.81793883653E+01  0.46978724497E+02  0.00000000000E+00 0.  1.
         11    1    3    3    0    0 -0.33610925873E+02  0.34845271565E+02  0.59178281958E+01  0.48774050263E+02  0.00000000000E+00 0. -1.
</event>
<event>
 7    1  0.4687179E-006  0.1475712E+03  0.7561462E-02  0.1203490E+00
         -3   -1    0    0    0  501 -0.00000000000E+00  0.00000000000E+00  0.16082312710E+03  0.16082312710E+03  0.00000000000E+00 0.  1.
          3   -1    0    0  501    0  0.00000000000E+00 -0.00000000000E+00 -0.18986000794E+03  0.18986000794E+03  0.00000000000E+00 0. -1.
         23    2    1    2    0    0  0.24034844800E+00  0.12970363272E+03 -0.64881781319E+02  0.16953311150E+03  0.87799431890E+02 0.  0.
          5    1    1    2  502    0  0.27724411377E+02 -0.57162915506E+02 -0.37747046154E+02  0.74017253318E+02  0.41800000000E+01 0. -1.
         -5    1    1    2    0  502 -0.27964759825E+02 -0.72540717216E+02  0.73591946631E+02  0.10713277022E+03  0.41800000000E+01 0.  1.
        -11    1    3    3    0    0  0.33815548815E+02  0.20905108615E+02 -0.31955392586E+02  0.51006490011E+02  0.00000000000E+00 0.  1.
         11    1    3    3    0    0 -0.33575200367E+02  0.10879852411E+03 -0.32926388733E+02  0.11852662149E+03  0.00000000000E+00 0. -1.
</event>
<event>
 7    1  0.4687179E-006  0.1080160E+03  0.7561462E-02  0.1264289E+00
         -2   -1    0    0    0  501 -0.00000000000E+00  0.00000000000E+00  0.86907881553E+03  0.86907881553E+03  0.00000000000E+00 0. -1.
          2   -1    0    0  501    0  0.00000000000E+00 -0.00000000000E+00 -0.24764684185E+02  0.24764684185E+02  0.00000000000E+00 0.  1.
         23    2    1    2    0    0 -0.57133886126E+02 -0.34861088364E+02  0.16764636585E+03  0.20246324638E+03  0.91686889615E+02 0.  0.
          5    1    1    2  502    0  0.34188191295E+02 -0.35422876563E+02  0.11947202511E+03  0.12928514915E+03  0.41800000000E+01 0.  1.
         -5    1    1    2    0  502  0.22945694831E+02  0.70283964927E+02  0.55719574038E+03  0.56209510418E+03  0.41800000000E+01 0.  1.
        -11    1    3    3    0    0 -0.13789580610E+01 -0.36758847178E+02  0.13014339817E+03  0.13524207355E+03  0.00000000000E+00 0. -1.
         11    1    3    3    0    0 -0.55754928065E+02  0.18977588133E+01  0.37502967679E+02  0.67221172831E+02  0.00000000000E+00 0.  1.
</event>
<event>
 6    1  0.4687179E-006  0.2008849E+03  0.7561462E-02  0.1148995E+00
         -3   -1    0    0    0  501 -0.00000000000E+00  0.00000000000E+00  0.34772577095E+03  0.34772577095E+03  0.00000000000E+00 0.  1.
          3   -1    0    0  501    0  0.00000000000E+00 -0.00000000000E+00 -0.19346287352E+03  0.19346287352E+03  0.00000000000E+00 0. -1.
          5    1    1    2  502    0  0.15780188833E+03  0.35571884144E+02  0.45096449063E+01  0.16187836236E+03  0.41800000000E+01 0. -1.
         -5    1    1    2    0  502 -0.71912325866E+01  0.17056946071E+02  0.14888646026E+03  0.15009098469E+03  0.41800000000E+01 0.  1.
        -11    1    1    2    0    0 -0.10169484815E+03 -0.10715204518E+03  0.29370914748E+02  0.15061890173E+03  0.00000000000E+00 0.  1.
         11    1    1    2    0    0 -0.48915807600E+02  0.54523214968E+02 -0.28504122486E+02  0.78600395688E+02  0.00000000000E+00 0. -1.
</event>
<event>
 7    1  0.4687179E-006  0.1066827E+03  0.7561462E-02  0.1266839E+00
         -1   -1    0    0    0  501 -0.00000000000E+00  0.00000000000E+00  0.15289170262E+02  0.15289170262E+02  0.00000000000E+00 0.  1.
          1   -1    0    0  501    0  0.00000000000E+00 -0.00000000000E+00 -0.95016481963E+03  0.95016481963E+03  0.00000000000E+00 0. -1.
         23    2    1    2    0    0 -0.44465809938E+02 -0.15170446015E+02 -0.51488683690E+03  0.52472029630E+03  0.89529793068E+02 0.  0.
          5    1    1    2  502    0 -0.25052611421E+02 -0.22321676705E+02 -0.38982651715E+02  0.51604361489E+02  0.41800000000E+01 0.  1.
         -5    1    1    2    0  502  0.69518421359E+02  0.37492122720E+02 -0.38100616075E+03  0.38912933210E+03  0.41800000000E+01 0.  1.
        -11    1    3    3    0    0 -0.14374329694E+02 -0.51393467939E+02 -0.24364341441E+03  0.24941937231E+03  0.00000000000E+00 0. -1.
         11    1    3    3    0    0 -0.30091480244E+02  0.36223021924E+02 -0.27124342250E+03  0.27530092399E+03  0.00000000000E+00 0.  1.
</event>
<event>
 7    1  0.4687179E-006  0.1861472E+03  0.7561462E-02  0.1161983E+00
          1   -1    0    0  501    0  0.00000000000E+00  0.00000000000E+00  0.50465330743E+02  0.50465330743E+02  0.00000000000E+00 0. -1.
         -1   -1    0    0    0  501 -0.00000000000E+00 -0.00000000000E+00 -0.84674693871E+03  0.84674693871E+03  0.00000000000E+00 0.  1.
         23    2    1    2    0    0  0.13537629987E+03  0.10601796820E+03 -0.45854076608E+03  0.49810713099E+03  0.91019380548E+02 0.  0.
          5    1    1    2  502    0 -0.15101307633E+03 -0.10359619293E+03 -0.33594571514E+03  0.38264097577E+03  0.41800000000E+01 0.  1.
         -5    1    1    2    0  502  0.15636776457E+02 -0.24217752669E+01 -0.17951267480E+01  0.16464162701E+02  0.41800000000E+01 0.  1.
        -11    1    3    3    0    0  0.78930986476E+01  0.11932104616E+02 -0.15039450914E+01  0.14385338983E+02  0.00000000000E+00 0. -1.
         11    1    3    3    0    0  0.12748320123E+03  0.94085863584E+02 -0.45703682099E+03  0.48372179200E+03  0.00000000000E+00 0.  1.
</event>
<event>
 7    1  0.4687179E-006  0.2436955E+03  0.7561462E-02  0.1117355E+00
          1   -1    0    0  501    0  0.00000000000E+00  0.00000000000E+00  0.10939831975E+04  0.10939831975E+04  0.00000000000E+00 0. -1.
         -1   -1    0    0    0  501 -0.00000000000E+00 -0.00000000000E+00 -0.60461636601E+02  0.60461636601E+02  0.00000000000E+00 0.  1.
         23    2    1    2    0    0 -0.20039346407E+03  0.11257404705E+03  0.57914404981E+03  0.63009936893E+03  0.93738614107E+02 0.  0.
          5    1    1    2  502    0  0.15049307934E+03 -0.25967356417E+02  0.20512625130E+03  0.25576692886E+03  0.41800000000E+01 0.  1.
         -5    1    1    2    0  502  0.49900384733E+02 -0.86606690636E+02  0.24925125975E+03  0.26857853627E+03  0.41800000000E+01 0.  1.
        -11    1    3    3    0    0 -0.10804357722E+03  0.33841396271E+02  0.17761336801E+03  0.21063039471E+03  0.00000000000E+00 0.  1.
         11    1    3    3    0    0 -0.92349886854E+02  0.78732650782E+02  0.40153068180E+03  0.41946897422E+03  0.00000000000E+00 0. -1.
</event>
<event>
 7    1  0.4687179E-006  0.9592871E+02  0.7561462E-02  0.1289098E+00
          2   -1    0    0  501    0  0.00000000000E+00  0.00000000000E+00  0.47362074130E+02  0.47362074130E+02  0.00000000000E+00 0. -1.
         -2   -1    0    0    0  501 -0.00000000000E+00 -0.00000000000E+00 -0.25648120399E+03  0.25648120399E+03  0.00000000000E+00 0.  1.
         23    2    1    2    0    0 -0.21595421535E+01  0.20171894193E+02 -0.93046480400E+02  0.13199182015E+03  0.91392691901E+02 0.  0.
          5    1    1    2  502    0  0.58825145188E+02 -0.17918232730E+02 -0.29643378438E+02  0.68393443076E+02  0.41800000000E+01 0. -1.
         -5    1    1    2    0  502 -0.56665603034E+02 -0.22536614624E+01 -0.86429271024E+02  0.10345801490E+03  0.41800000000E+01 0. -1.
        -11    1    3    3    0    0 -0.30133969073E+02 -0.10437877915E+02 -0.83580629860E+02  0.89457962616E+02  0.00000000000E+00 0.  1.
         11    1    3    3    0    0  0.27974426920E+02  0.30609772108E+02 -0.94658505395E+01  0.42533857530E+02  0.00000000000E+00 0. -1.
</event>
<event>
 7    1  0.4687179E-006  0.9785907E+02  0.7561462E-02  0.1284864E+00
         -2   -1    0    0    0  501 -0.00000000000E+00  0.00000000000E+00  0.12316352685E+04  0.12316352685E+04  0.00000000000E+00 0.  1.
          2   -1    0    0  501    0  0.00000000000E+00 -0.00000000000E+00 -0.17368495983E+02  0.17368495983E+02  0.00000000000E+00 0. -1.
         23    2    1    2    0    0  0.31041543237E+02 -0.26142877827E+02  0.17300235119E+03  0.19946759438E+03  0.90611700250E+02 0.  0.
          5    1    1    2  502    0 -0.21413415822E+02 -0.45761895601E+02  0.61830028418E+03  0.62037520847E+03  0.41800000000E+01 0. -1.
         -5    1    1    2    0  502 -0.96281274146E+01  0.71904773428E+02  0.42296413719E+03  0.42916096168E+03  0.41800000000E+01 0. -1.
        -11    1    3    3    0    0  0.73308657815E+01  0.19548255016E+02  0.21024030563E+01  0.20983230587E+02  0.00000000000E+00 0. -1.
         11    1    3    3    0    0  0.23710677456E+02 -0.45691132843E+02  0.17089994813E+03  0.17848436379E+03  0.00000000000E+00 0.  1.
</event>
<event>
 7    1  0.4687179E-006  0.9698673E+02  0.7561462E-02  0.1286763E+00
         -3   -1    0    0    0  501 -0.00000000000E+00  0.00000000000E+00  0.84181240129E+03  0.84181240129E+03  0.00000000000E+00 0.  1.
          3   -1    0    0  501    0  0.00000000000E+00 -0.00000000000E+00 -0.16429193256E+02  0.16429193256E+02  0.00000000000E+00 0. -1.
         23    2    1    2    0    0  0.34106436173E+02 -0.11657565161E+01  0.25677055739E+03  0.27503300257E+03  0.92452287043E+02 0.  0.
          5    1    1    2  502    0  0.25629867919E+02 -0.19986227897E+02  0.42400946464E+03  0.42527383876E+03  0.41800000000E+01 0. -1.
         -5    1    1    2    0  502 -0.59736304092E+02  0.21151984413E+02  0.14460318600E+03  0.15793475322E+03  0.41800000000E+01 0. -1.
        -11    1    3    3    0    0  0.65415440840E+02  0.56326404304E+01  0.15482631319E+03  0.16817280932E+03  0.00000000000E+00 0.  1.
         11    1    3    3    0    0 -0.31309004668E+02 -0.67983969465E+01  0.10194424420E+03  0.10686019325E+03  0.00000000000E+00 0. -1.
</event>
<event>
 7    1  0.4687179E-006  0.1129726E+03  0.7561462E-02  0.1255162E+00
         -3   -1    0    0    0  501 -0.00000000000E+00  0.00000000000E+00  0.16399256205E+03  0.16399256205E+03  0.00000000000E+00 0.  1.
          3   -1    0    0  501    0  0.00000000000E+00 -0.00000000000E+00 -0.14787862017E+03  0.14787862017E+03  0.00000000000E+00 0. -1.
         23    2    1    2    0    0 -0.56394791396E+02  0.70689833588E+02 -0.56508361426E+02  0.14128692097E+03  0.92689665316E+02 0.  0.
          5    1    1    2  502    0 -0.25689795246E+02 -0.35894090772E+02  0.68043158955E+02  0.81213885590E+02  0.41800000000E+01 0.  1.
         -5    1    1    2    0  502  0.82084586643E+02 -0.34795742816E+02  0.45791443537E+01  0.89370375659E+02  0.41800000000E+01 0.  1.
        -11    1    3    3    0    0 -0.18542335405E+02  0.38233307283E+02  0.22331126001E+02  0.48002949665E+02  0.00000000000E+00 0.  1.
         11    1    3    3    0    0 -0.37852455991E+02  0.32456526304E+02 -0.78839487427E+02  0.93283971303E+02  0.00000000000E+00 0. -1.
</event>
<event>
 7    1  0.4687179E-006  0.9226631E+02  0.7561462E-02  0.1297454E+00
          2   -1    0    0  501    0  0.00000000000E+00  0.00000000000E+00  0.22239066639E+03  0.22239066639E+03  0.00000000000E+00 0. -1.
         -2   -1    0    0    0  501 -0.00000000000E+00 -0.00000000000E+00 -0.54692392894E+02  0.54692392894E+02  0.00000000000E+00 0.  1.
         23    2    1    2    0    0 -0.70837402706E+00 -0.25237545153E+02  0.73101495845E+02  0.11822884054E+03  0.89424798361E+02 0.  0.
          5    1    1    2  502    0  0.38853757348E+02  0.59723031360E+02  0.33367155404E+02  0.78786384576E+02  0.41800000000E+01 0.  1.
         -5    1    1    2    0  502 -0.38145383320E+02 -0.34485486207E+02  0.61229622244E+02  0.80067834164E+02  0.41800000000E+01 0.  1.
        -11    1    3    3    0    0 -0.39550965360E+01  0.17888355964E+02 -0.12598868065E+02  0.22234377532E+02  0.00000000000E+00 0.  1.
         11    1    3    3    0    0  0.32467225089E+01 -0.43125901116E+02  0.85700363910E+02  0.95994463010E+02  0.00000000000E+00 0. -1.
</event>
<event>
 7    1  0.4687179E-006  0.2252644E+03  0.7561462E-02  0.1130018E+00
         -2   -1    0    0    0  501 -0.00000000000E+00  0.00000000000E+00  0.77227566523E+02  0.77227566523E+02  0.00000000000E+00 0.  1.
          2   -1    0    0  501    0  0.00000000000E+00 -0.00000000000E+00 -0.86216574842E+03  0.86216574842E+03  0.00000000000E+00 0. -1.
         23    2    1    2    0    0  0.18988293498E+03  0.60578666842E+02 -0.59937042828E+03  0.63971275641E+03  0.10130250022E+03 0.  0.
          5    1    1    2  502    0 -0.24221964672E+02  0.35904960950E+02 -0.36666157884E+02  0.56901224304E+02  0.41800000000E+01 0.  1.
         -5    1    1    2    0  502 -0.16566097031E+03 -0.96483627791E+02 -0.14890159574E+03  0.24277933423E+03  0.41800000000E+01 0.  1.
        -11    1    3    3    0    0  0.12793747153E+03  0.79333668735E+02 -0.49024741265E+03  0.51283950045E+03  0.00000000000E+00 0. -1.
         11    1    3    3    0    0  0.61945463449E+02 -0.18755001894E+02 -0.10912301563E+03  0.12687325596E+03  0.00000000000E+00 0.  1.
</event>
<event>
 7    1  0.4687179E-006  0.8919009E+02  0.7561462E-02  0.1304825E+00
          1   -1    0    0  501    0  0.00000000000E+00  0.00000000000E+00  0.77923051538E+02  0.77923051538E+02  0.00000000000E+00 0. -1.
         -1   -1    0    0    0  501 -0.00000000000E+00 -0.00000000000E+00 -0.16869500756E+03  0.16869500756E+03  0.00000000000E+00 0.  1.
         23    2    1    2    0    0  0.19291752198E+02  0.62885931954E+01 -0.34568092252E+02  0.10798101161E+03  0.10026578559E+03 0.  0.
          5    1    1    2  502    0 -0.72014685497E+02 -0.98237194214E+01 -0.24200868242E+02  0.76718803524E+02  0.41800000000E+01 0.  1.
         -5    1    1    2    0  502  0.52722933298E+02  0.35351262260E+01 -0.32002995534E+02  0.61918243968E+02  0.41800000000E+01 0.  1.
        -11    1    3    3    0    0 -0.15412634516E+02 -0.47940882476E+01  0.29873018366E+02  0.33954820145E+02  0.00000000000E+00 0. -1.
         11    1    3    3    0    0  0.34704386714E+02  0.11082681443E+02 -0.64441110617E+02  0.74026191465E+02  0.00000000000E+00 0.  1.
</event>
<event>
 7    1  0.4687179E-006  0.1113694E+03  0.7561462E-02  0.1258055E+00
          2   -1    0    0  501    0  0.00000000000E+00  0.00000000000E+00  0.64870371628E+02  0.64870371628E+02  0.00000000000E+00 0. -1.
         -2   -1    0    0    0  501 -0.00000000000E+00 -0.00000000000E+00 -0.20755451147E+03  0.20755451147E+03  0.00000000000E+00 0.  1.
         23    2    1    2    0    0  0.39699049540E+02  0.13880528330E+02 -0.44288286631E+02  0.10780875402E+03  0.88840258380E+02 0.  0.
          5    1    1    2  502    0 -0.37960304966E+02 -0.66071275615E+02 -0.75807669194E+02  0.10756706430E+03  0.41800000000E+01 0. -1.
         -5    1    1    2    0  502 -0.17387445735E+01  0.52190747285E+02 -0.22588184020E+02  0.57049064779E+02  0.41800000000E+01 0. -1.
        -11    1    3    3    0    0 -0.12692242463E+02  0.35242923097E+02 -0.33409710267E+02  0.50193280300E+02  0.00000000000E+00 0.  1.
         11    1    3    3    0    0  0.52391292003E+02 -0.21362394767E+02 -0.10878576365E+02  0.57615473718E+02  0.00000000000E+00 0. -1.
</event>
<event>
 7    1  0.4687179E-006  0.2094171E+03  0.7561462E-02  0.1142028E+00
          2   -1    0    0  501    0  0.00000000000E+00  0.00000000000E+00  0.88844410798E+03  0.88844410798E+03  0.00000000000E+00 0. -1.
         -2   -1    0    0    0  501 -0.00000000000E+00 -0.00000000000E+00 -0.58874872256E+02  0.58874872256E+02  0.00000000000E+00 0.  1.
         23    2    1    2    0    0  0.10610707028E+03 -0.16118710375E+03  0.28313745180E+03  0.35446584690E+03  0.90770189113E+02 0.  0.
          5    1    1    2  502    0 -0.16522815088E+02 -0.16095395990E+02  0.12188435106E+03  0.12411822035E+03  0.41800000000E+01 0. -1.
         -5    1    1    2    0  502 -0.89584255194E+02  0.17728249974E+03  0.42454743287E+03  0.46873491298E+03  0.41800000000E+01 0. -1.
        -11    1    3    3    0    0  0.49846423671E+02 -0.10952482742E+03  0.23545323209E+03  0.26442121373E+03  0.00000000000E+00 0. -1.
         11    1    3    3    0    0  0.56260646610E+02 -0.51662276331E+02  0.47684219711E+02  0.90044633167E+02  0.00000000000E+00 0.  1.
</event>
<event>
 7    1  0.4687179E-006  0.2854994E+03  0.7561462E-02  0.1092723E+00
          1   -1    0    0  501    0  0.00000000000E+00  0.00000000000E+00  0.13766489077E+04  0.13766489077E+04  0.00000000000E+00 0. -1.
         -1   -1    0    0    0  501 -0.00000000000E+00 -0.00000000000E+00 -0.10263665356E+03  0.10263665356E+03  0.00000000000E+00 0.  1.
         23    2    1    2    0    0 -0.84267021939E+02  0.25322147697E+03  0.11033945646E+04  0.11387327178E+04  0.89501899083E+02 0.  0.
          5    1    1    2  502    0 -0.29365239192E+02 -0.80299869332E+02  0.31650026849E+02  0.91266548566E+02  0.41800000000E+01 0.  1.
         -5    1    1    2    0  502  0.11363226113E+03 -0.17292160764E+03  0.13896766266E+03  0.24928629490E+03  0.41800000000E+01 0.  1.
        -11    1    3    3    0    0 -0.50968505761E+02  0.46313235969E+02  0.35124595737E+03  0.35793355106E+03  0.00000000000E+00 0. -1.
         11    1    3    3    0    0 -0.33298516178E+02  0.20690824100E+03  0.75214860727E+03  0.78079916675E+03  0.00000000000E+00 0.  1.
</event>
<event>
 7    1  0.4687179E-006  0.1178901E+03  0.7561462E-02  0.1246619E+00
          2   -1    0    0  501    0  0.00000000000E+00  0.00000000000E+00  0.55296711782E+02  0.55296711782E+02  0.00000000000E+00 0. -1.
         -2   -1    0    0    0  501 -0.00000000000E+00 -0.00000000000E+00 -0.47828645841E+03  0.47828645841E+03  0.00000000000E+00 0.  1.
         23    2    1    2    0    0 -0.74741393176E+02 -0.54553016980E+02 -0.74672116987E+02  0.15209067369E+03  0.94833224418E+02 0.  0.
          5    1    1    2  502    0  0.34292918745E+02 -0.31487000940E+02 -0.19908428199E+03  0.20449806659E+03  0.41800000000E+01 0. -1.
         -5    1    1    2    0  502  0.40448474431E+02  0.86040017920E+02 -0.14923334766E+03  0.17699442991E+03  0.41800000000E+01 0. -1.
        -11    1    3    3    0    0 -0.69954428700E+02 -0.44976363745E+02 -0.96733223723E+02  0.12756885185E+03  0.00000000000E+00 0.  1.
         11    1    3    3    0    0 -0.47869644759E+01 -0.95766532350E+01  0.22061106736E+02  0.24521821843E+02  0.00000000000E+00 0. -1.
</event>
<event>
 7    1  0.4687179E-006  0.1329738E+03  0.7561462E-02  0.1223109E+00
         -1   -1    0    0    0  501 -0.00000000000E+00  0.00000000000E+00  0.42741562481E+02  0.42741562481E+02  0.00000000000E+00 0.  1.
          1   -1    0    0  501    0  0.00000000000E+00 -0.00000000000E+00 -0.54900537571E+03  0.54900537571E+03  0.00000000000E+00 0. -1.
         23    2    1    2    0    0 -0.10380859200E+03 -0.96890173103E+00 -0.29210707337E+03  0.32288154426E+03  0.90270630693E+02 0.  0.
          5    1    1    2  502    0  0.32586072720E+02 -0.51317219050E+02 -0.38171779020E+02  0.71901781758E+02  0.41800000000E+01 0. -1.
         -5    1    1    2    0  502  0.71222519284E+02  0.52286120781E+02 -0.17598496084E+03  0.19696361218E+03  0.41800000000E+01 0. -1.
        -11    1    3    3    0    0 -0.59711016358E+02  0.25722244057E+02 -0.24350586899E+03  0.25203600447E+03  0.00000000000E+00 0.  1.
         11    1    3    3    0    0 -0.44097575646E+02 -0.26691145788E+02 -0.48601204374E+02  0.70845539789E+02  0.00000000000E+00 0. -1.
</event>
<event>
 7    1  0.4687179E-006  0.8270161E+02  0.7561462E-02  0.1321555E+00
          2   -1    0    0  501    0  0.00000000000E+00  0.00000000000E+00  0.55945783155E+02  0.55945783155E+02  0.00000000000E+00 0. -1.
         -2   -1    0    0    0  501 -0.00000000000E+00 -0.00000000000E+00 -0.25755567028E+03  0.25755567028E+03  0.00000000000E+00 0.  1.
         23    2    1    2    0    0  0.54923007115E+02  0.50321538030E+01 -0.79466417631E+02  0.13016507000E+03  0.87098648871E+02 0.  0.
          5    1    1    2  502    0 -0.49263149762E+02  0.35625121997E+02 -0.73834387882E+01  0.61383994739E+02  0.41800000000E+01 0. -1.
         -5    1    1    2    0  502 -0.56598573532E+01 -0.40657275800E+02 -0.11476003071E+03  0.12195238870E+03  0.41800000000E+01 0. -1.
        -11    1    3    3    0    0  0.37546971551E+02 -0.11449571729E+02  0.74976384507E+01  0.39963512706E+02  0.00000000000E+00 0. -1.
         11    1    3    3    0    0  0.17376035564E+02  0.16481725532E+02 -0.86964056082E+02  0.90201557296E+02  0.00000000000E+00 0.  1.
</event>
<event>
 7    1  0.4687179E-006  0.4095402E+03  0.7561462E-02  0.1040525E+00
         -2   -1    0    0    0  501 -0.00000000000E+00  0.00000000000E+00  0.15673576016E+03  0.15673576016E+03  0.00000000000E+00 0.  1.
          2   -1    0    0  501    0  0.00000000000E+00 -0.00000000000E+00 -0.15946738205E+04  0.15946738205E+04  0.00000000000E+00 0. -1.
         23    2    1    2    0    0 -0.12629032308E+03  0.38342955470E+03 -0.11942631327E+04  0.12635632550E+04  0.85791609198E+02 0.  0.
          5    1    1    2  502    0  0.11725073915E+03 -0.37650740345E+03 -0.19933883415E+03  0.44188121015E+03  0.41800000000E+01 0.  1.
         -5    1    1    2    0  502  0.90395839263E+01 -0.69221512512E+01 -0.44336093534E+02  0.45965115526E+02  0.41800000000E+01 0.  1.
        -11    1    3    3    0    0 -0.24196549670E+02  0.20961789908E+03 -0.62600932101E+03  0.66061547561E+03  0.00000000000E+00 0.  1.
         11    1    3    3    0    0 -0.10209377341E+03  0.17381165562E+03 -0.56825381166E+03  0.60294777938E+03  0.00000000000E+00 0. -1.
</event>
<event>
 7    1  0.4687179E-006  0.1080859E+03  0.7561462E-02  0.1264156E+00
         -1   -1    0    0    0  501 -0.00000000000E+00  0.00000000000E+00  0.41339030298E+03  0.41339030298E+03  0.00000000000E+00 0.  1.
          1   -1    0    0  501    0  0.00000000000E+00 -0.00000000000E+00 -0.42364575022E+02  0.42364575022E+02  0.00000000000E+00 0. -1.
         23    2    1    2    0    0 -0.39219152305E+02  0.24586657032E+02  0.63377913724E+02  0.12043803120E+03  0.91355972979E+02 0.  0.
          5    1    1    2  502    0 -0.35299997074E+02  0.16951753041E+02  0.15967938407E+03  0.16446406849E+03  0.41800000000E+01 0. -1.
         -5    1    1    2    0  502  0.74519149379E+02 -0.41538410073E+02  0.14796843016E+03  0.17085277832E+03  0.41800000000E+01 0. -1.
        -11    1    3    3    0    0  0.23257284749E+02  0.16184465140E+02  0.47696667902E+02  0.55478016679E+02  0.00000000000E+00 0.  1.
         11    1    3    3    0    0 -0.62476437054E+02  0.84021918925E+01  0.15681245822E+02  0.64960014517E+02  0.00000000000E+00 0. -1.
</event>
<event>
 7    1  0.4687179E-006  0.1866885E+03  0.7561462E-02  0.1161482E+00
         -2   -1    0    0    0  501 -0.00000000000E+00  0.00000000000E+00  0.86664448302E+02  0.86664448302E+02  0.00000000000E+00 0. -1.
          2   -1    0    0  501    0  0.00000000000E+00 -0.00000000000E+00 -0.41040962578E+03  0.41040962578E+03  0.00000000000E+00 0.  1.
         23    2    1    2    0    0 -0.14804291267E+03 -0.42134579857E+02 -0.16084691233E+03  0.24041339661E+03  0.90746048130E+02 0.  0.
          5    1    1    2  502    0  0.10001713244E+03  0.86671562383E+02 -0.11544287808E+03  0.17566990922E+03  0.41800000000E+01 0.  1.
         -5    1    1    2    0  502  0.48025780237E+02 -0.44536982526E+02 -0.47455387068E+02  0.80990768250E+02  0.41800000000E+01 0.  1.
        -11    1    3    3    0    0 -0.14749220637E+03 -0.15065964719E+02 -0.15096413362E+03  0.21159183319E+03  0.00000000000E+00 0.  1.
         11    1    3    3    0    0 -0.55070629913E+00 -0.27068615137E+02 -0.98827787116E+01  0.28821563419E+02  0.00000000000E+00 0. -1.
</event>
<event>
 7    1  0.4687179E-006  0.9481887E+02  0.7561462E-02  0.1291585E+00
         -3   -1    0    0    0  501 -0.00000000000E+00  0.00000000000E+00  0.24424285895E+03  0.24424285895E+03  0.00000000000E+00 0.  1.
          3   -1    0    0  501    0  0.00000000000E+00 -0.00000000000E+00 -0.62133086738E+02  0.62133086738E+02  0.00000000000E+00 0. -1.
         23    2    1    2    0    0  0.35067010533E+02  0.33307017201E+01  0.19152689786E+02  0.97945064712E+02  0.89362303987E+02 0.  0.
          5    1    1    2  502    0 -0.71544141050E+02  0.22881565466E+02  0.60700013327E+02  0.96664854910E+02  0.41800000000E+01 0. -1.
         -5    1    1    2    0  502  0.36477130517E+02 -0.26212267187E+02  0.10225706910E+03  0.11176602606E+03  0.41800000000E+01 0. -1.
        -11    1    3    3    0    0  0.24019495729E+02  0.31165747547E+02 -0.23498383432E+02  0.45830274046E+02  0.00000000000E+00 0. -1.
         11    1    3    3    0    0  0.11047514804E+02 -0.27835045827E+02  0.42651073218E+02  0.52114790666E+02  0.00000000000E+00 0.  1.
</event>
<event>
 7    1  0.4687179E-006  0.8686999E+02  0.7561462E-02  0.1310613E+00
         -3   -1    0    0    0  501 -0.00000000000E+00  0.00000000000E+00  0.99635025663E+02  0.99635025663E+02  0.00000000000E+00 0.  1.
          3   -1    0    0  501    0  0.00000000000E+00 -0.00000000000E+00 -0.12414319957E+03  0.12414319957E+03  0.00000000000E+00 0. -1.
         23    2    1    2    0    0 -0.19229271930E+02  0.50384173639E+02 -0.14537827190E+02  0.87191366525E+02  0.66952640910E+02 0.  0.
          5    1    1    2  502    0 -0.37597643170E+02 -0.35781576677E+02  0.34831116881E+02  0.62646493155E+02  0.41800000000E+01 0. -1.
         -5    1    1    2    0  502  0.56826915100E+02 -0.14602596962E+02 -0.44801463601E+02  0.73940365557E+02  0.41800000000E+01 0. -1.
        -11    1    3    3    0    0 -0.26944265880E+02  0.26677299981E+02  0.21334408356E+02  0.43506652112E+02  0.00000000000E+00 0.  1.
         11    1    3    3    0    0  0.77149939500E+01  0.23706873658E+02 -0.35872235546E+02  0.43684714413E+02  0.00000000000E+00 0. -1.
</event>
<event>
 7    1  0.4687179E-006  0.1029560E+03  0.7561462E-02  0.1274200E+00
          1   -1    0    0  501    0  0.00000000000E+00  0.00000000000E+00  0.18244090492E+02  0.18244090492E+02  0.00000000000E+00 0. -1.
         -1   -1    0    0    0  501 -0.00000000000E+00 -0.00000000000E+00 -0.88931974781E+03  0.88931974781E+03  0.00000000000E+00 0.  1.
         23    2    1    2    0    0 -0.31352783300E+02  0.21335747702E+02 -0.19266947030E+03  0.21668039596E+03  0.91600535232E+02 0.  0.
          5    1    1    2  502    0  0.12015619284E+02  0.43586459366E+02 -0.45848454414E+03  0.46072736424E+03  0.41800000000E+01 0. -1.
         -5    1    1    2    0  502  0.19337164015E+02 -0.64922207068E+02 -0.21992164287E+03  0.23015607810E+03  0.41800000000E+01 0. -1.
        -11    1    3    3    0    0 -0.43708605369E+02  0.46981970446E+02 -0.16475471738E+03  0.17681025035E+03  0.00000000000E+00 0.  1.
         11    1    3    3    0    0  0.12355822069E+02 -0.25646222744E+02 -0.27914752929E+02  0.39870145612E+02  0.00000000000E+00 0. -1.
</event>
<event>
 7    1  0.4687179E-006  0.1629317E+03  0.7561462E-02  0.1185426E+00
         -3   -1    0    0    0  501 -0.00000000000E+00  0.00000000000E+00  0.28264073533E+03  0.28264073533E+03  0.00000000000E+00 0.  1.
          3   -1    0    0  501    0  0.00000000000E+00 -0.00000000000E+00 -0.12228618593E+03  0.12228618593E+03  0.00000000000E+00 0. -1.
         23    2    1    2    0    0 -0.80768685287E+02 -0.10568355853E+03 -0.19458032675E+01  0.16062802915E+03  0.90027676479E+02 0.  0.
          5    1    1    2  502    0 -0.21784980702E+02  0.52355837904E+02  0.18589115967E+02  0.59822627653E+02  0.41800000000E+01 0.  1.
         -5    1    1    2    0  502  0.10255366599E+03  0.53327720629E+02  0.14371123670E+03  0.18447626446E+03  0.41800000000E+01 0.  1.
        -11    1    3    3    0    0 -0.69415282087E+02 -0.28035805952E+02  0.22947086801E+02  0.78301063820E+02  0.00000000000E+00 0.  1.
         11    1    3    3    0    0 -0.11353403200E+02 -0.77647752582E+02 -0.24892890069E+02  0.82326965334E+02  0.00000000000E+00 0. -1.
</event>
<event>
 7    1  0.4687179E-006  0.1019423E+03  0.7561462E-02  0.1276264E+00
          1   -1    0    0  501    0  0.00000000000E+00  0.00000000000E+00  0.40508360047E+03  0.40508360047E+03  0.00000000000E+00 0. -1.
         -1   -1    0    0    0  501 -0.00000000000E+00 -0.00000000000E+00 -0.42676822089E+02  0.42676822089E+02  0.00000000000E+00 0.  1.
         23    2    1    2    0    0  0.60968462319E+02  0.40503556099E+02  0.17620714996E+03  0.21180843645E+03  0.91957395586E+02 0.  0.
          5    1    1    2  502    0 -0.60716295424E+02 -0.71893765140E+01  0.17202714019E+02  0.63651876911E+02  0.41800000000E+01 0.  1.
         -5    1    1    2    0  502 -0.25216689450E+00 -0.33314179585E+02  0.16899691440E+03  0.17230010919E+03  0.41800000000E+01 0.  1.
        -11    1    3    3    0    0  0.17240536670E+02  0.59058379916E+02  0.58577648893E+02  0.84949804548E+02  0.00000000000E+00 0.  1.
         11    1    3    3    0    0  0.43727925649E+02 -0.18554823817E+02  0.11762950106E+03  0.12685863191E+03  0.00000000000E+00 0. -1.
</event>
<event>
 7    1  0.4687179E-006  0.1180537E+03  0.7561462E-02  0.1246343E+00
          3   -1    0    0  501    0  0.00000000000E+00  0.00000000000E+00  0.62033030498E+02  0.62033030498E+02  0.00000000000E+00 0. -1.
         -3   -1    0    0    0  501 -0.00000000000E+00 -0.00000000000E+00 -0.30940610783E+03  0.30940610783E+03  0.00000000000E+00 0.  1.
         23    2    1    2    0    0 -0.49852231665E+02 -0.68842370803E+02 -0.90362429907E+02  0.15343833258E+03  0.90296379474E+02 0.  0.
          5    1    1    2  502    0 -0.31527635411E+02  0.20530098490E+02 -0.40358881576E+01  0.38068852516E+02  0.41800000000E+01 0. -1.
         -5    1    1    2    0  502  0.81379867076E+02  0.48312272313E+02 -0.15297475927E+03  0.17993195323E+03  0.41800000000E+01 0. -1.
        -11    1    3    3    0    0 -0.12081852299E+02 -0.64361309540E+02 -0.94721283803E+02  0.11515411815E+03  0.00000000000E+00 0.  1.
         11    1    3    3    0    0 -0.37770379365E+02 -0.44810612636E+01  0.43588538962E+01  0.38284214433E+02  0.00000000000E+00 0. -1.
</event>
<event>
 7    1  0.4687179E-006  0.1283764E+03  0.7561462E-02  0.1229885E+00
         -2   -1    0    0    0  501 -0.00000000000E+00  0.00000000000E+00  0.20909299125E+02  0.20909299125E+02  0.00000000000E+00 0.  1.
          2   -1    0    0  501    0  0.00000000000E+00 -0.00000000000E+00 -0.85472539203E+03  0.85472539203E+03  0.00000000000E+00 0. -1.
         23    2    1    2    0    0 -0.76310339989E+02 -0.14094916973E+02 -0.40129932093E+03  0.41875412597E+03  0.91060081050E+02 0.  0.
          5    1    1    2  502    0  0.31021349200E+02 -0.53002469901E+02 -0.13239934791E+03  0.14600906016E+03  0.41800000000E+01 0.  1.
         -5    1    1    2    0  502  0.45288990790E+02  0.67097386874E+02 -0.30011742406E+03  0.31087150503E+03  0.41800000000E+01 0.  1.
        -11    1    3    3    0    0 -0.28444506103E+02  0.35314494184E+02 -0.10158430830E+03  0.11124556224E+03  0.00000000000E+00 0.  1.
         11    1    3    3    0    0 -0.47865833886E+02 -0.49409411157E+02 -0.29971501263E+03  0.30750856372E+03  0.00000000000E+00 0. -1.
</event>
<event>
 7    1  0.4687179E-006  0.1717744E+03  0.7561462E-02  0.1176010E+00
          1   -1    0    0  501    0  0.00000000000E+00  0.00000000000E+00  0.11767654343E+03  0.11767654343E+03  0.00000000000E+00 0. -1.
         -1   -1    0    0    0  501 -0.00000000000E+00 -0.00000000000E+00 -0.28143160666E+03  0.28143160666E+03  0.00000000000E+00 0.  1.
         23    2    1    2    0    0 -0.12637445186E+03 -0.71117280925E+02 -0.80522507537E+02  0.19029147551E+03  0.93267366770E+02 0.  0.
          5    1    1    2  502    0  0.15490980789E+02 -0.31086188624E+02 -0.37261132109E+02  0.51109548765E+02  0.41800000000E+01 0.  1.
         -5    1    1    2    0  502  0.11088347107E+03  0.10220346955E+03 -0.45971423581E+02  0.15770712581E+03  0.41800000000E+01 0.  1.
        -11    1    3    3    0    0 -0.60327332187E+02  0.44009981056E+00 -0.69900976140E+02  0.92334864282E+02  0.00000000000E+00 0.  1.
         11    1    3    3    0    0 -0.66047119670E+02 -0.71557380736E+02 -0.10621531396E+02  0.97956611230E+02  0.00000000000E+00 0. -1.
</event>
<event>
 7    1  0.4687179E-006  0.9017495E+02  0.7561462E-02  0.1302429E+00
          2   -1    0    0  501    0  0.00000000000E+00  0.00000000000E+00  0.31040814492E+03  0.31040814492E+03  0.00000000000E+00 0.  1.
         -2   -1    0    0    0  501 -0.00000000000E+00 -0.00000000000E+00 -0.43945466381E+02  0.43945466381E+02  0.00000000000E+00 0. -1.
         23    2    1    2    0    0 -0.33675458905E+02  0.13545957091E+01  0.13570343974E+03  0.17028521019E+03  0.97189288458E+02 0.  0.
          5    1    1    2  502    0  0.26291940057E+02  0.33104156103E+02 -0.58890711034E+01  0.42887117200E+02  0.41800000000E+01 0.  1.
         -5    1    1    2    0  502  0.73835188479E+01 -0.34458751812E+02  0.13664830991E+03  0.14118128391E+03  0.41800000000E+01 0.  1.
        -11    1    3    3    0    0 -0.10726821520E+02 -0.47345185117E+02  0.72633698970E+02  0.87362952558E+02  0.00000000000E+00 0.  1.
         11    1    3    3    0    0 -0.22948637385E+02  0.48699780826E+02  0.63069740767E+02  0.82922257631E+02  0.00000000000E+00 0. -1.
</event>
<event>
 7    1  0.4687179E-006  0.1191283E+03  0.7561462E-02  0.1244542E+00
          2   -1    0    0  501    0  0.00000000000E+00  0.00000000000E+00  0.54732528913E+03  0.54732528913E+03  0.00000000000E+00 0. -1.
         -2   -1    0    0    0  501 -0.00000000000E+00 -0.00000000000E+00 -0.27515960353E+02  0.27515960353E+02  0.00000000000E+00 0.  1.
         23    2    1    2    0    0 -0.56346708418E+02 -0.49091660077E+01  0.25363712597E+03  0.27535235581E+03  0.91038874759E+02 0.  0.
          5    1    1    2  502    0  0.18741549784E+02 -0.58930682821E+02  0.10256421615E+03  0.11983723087E+03  0.41800000000E+01 0. -1.
         -5    1    1    2    0  502  0.37605158634E+02  0.63839848828E+02  0.16360798665E+03  0.17965166281E+03  0.41800000000E+01 0. -1.
        -11    1    3    3    0    0 -0.68747263077E+02  0.22210395243E+02  0.21320446513E+03  0.22511248697E+03  0.00000000000E+00 0.  1.
         11    1    3    3    0    0  0.12400554659E+02 -0.27119561250E+02  0.40432660837E+02  0.50239868835E+02  0.00000000000E+00 0. -1.
</event>
<event>
 7    1  0.4687179E-006  0.1198112E+03  0.7561462E-02  0.1243409E+00
          1   -1    0    0  501    0  0.00000000000E+00  0.00000000000E+00  0.41821887238E+03  0.41821887238E+03  0.00000000000E+00 0. -1.
         -1   -1    0    0    0  501 -0.00000000000E+00 -0.00000000000E+00 -0.10206137550E+03  0.10206137550E+03  0.00000000000E+00 0.  1.
         23    2    1    2    0    0  0.46294373783E+02 -0.22794814386E+02  0.36225578462E+03  0.37732623795E+03  0.92103549026E+02 0.  0.
          5    1    1    2  502    0  0.35843872467E+02 -0.20963784554E+02 -0.90978758299E+01  0.42714250560E+02  0.41800000000E+01 0. -1.
         -5    1    1    2    0  502 -0.82138246251E+02  0.43758598941E+02 -0.37000411909E+02  0.10023975938E+03  0.41800000000E+01 0. -1.
        -11    1    3    3    0    0 -0.15565421554E+02 -0.37967069229E+02  0.11927400650E+03  0.12613512326E+03  0.00000000000E+00 0.  1.
         11    1    3    3    0    0  0.61859795338E+02  0.15172254842E+02  0.24298177813E+03  0.25119111469E+03  0.00000000000E+00 0. -1.
</event>
<event>
 7    1  0.4687179E-006  0.8355085E+02  0.7561462E-02  0.1319266E+00
          1   -1    0    0  501    0  0.00000000000E+00  0.00000000000E+00  0.24853071487E+03  0.24853071487E+03  0.00000000000E+00 0. -1.
         -1   -1    0    0    0  501 -0.00000000000E+00 -0.00000000000E+00 -0.81550006734E+02  0.81550006734E+02  0.00000000000E+00 0.  1.
         23    2    1    2    0    0 -0.36980702585E+02 -0.33608194579E+02  0.16446223894E+03  0.19535484167E+03  0.92836431542E+02 0.  0.
          5    1    1    2  502    0  0.36887589167E+02 -0.37989195780E+01  0.57227163544E+02  0.68319445780E+02  0.41800000000E+01 0.  1.
         -5    1    1    2    0  502  0.93113417939E-01  0.37407114157E+02 -0.54708694346E+02  0.66406434151E+02  0.41800000000E+01 0.  1.
        -11    1    3    3    0    0  0.24251319798E+02 -0.13135784855E+02  0.12569079277E+02  0.30309356799E+02  0.00000000000E+00 0.  1.
         11    1    3    3    0    0 -0.61232022383E+02 -0.20472409724E+02  0.15189315966E+03  0.16504548487E+03  0.00000000000E+00 0. -1.
</event>
<event>
 6    1  0.4687179E-006  0.3999718E+03  0.7561462E-02  0.1043789E+00
          2   -1    0    0  501    0  0.00000000000E+00  0.00000000000E+00  0.19984931987E+04  0.19984931987E+04  0.00000000000E+00 0. -1.
         -2   -1    0    0    0  501 -0.00000000000E+00 -0.00000000000E+00 -0.10525623225E+03  0.10525623225E+03  0.00000000000E+00 0.  1.
          5    1    1    2  502    0 -0.18450833903E+03  0.16014047204E+03  0.59656815243E+03  0.64466993947E+03  0.41800000000E+01 0. -1.
         -5    1    1    2    0  502  0.31577040988E+03 -0.18102432009E+03  0.39475518744E+03  0.53696358035E+03  0.41800000000E+01 0.  1.
        -11    1    1    2    0    0 -0.56196446467E+02 -0.59339433307E+02  0.41326542359E+03  0.42126893937E+03  0.00000000000E+00 0.  1.
         11    1    1    2    0    0 -0.75065624379E+02  0.80223281358E+02  0.48864820302E+03  0.50084697179E+03  0.00000000000E+00 0. -1.
</event>
<event>
 7    1  0.4687179E-006  0.1077613E+03  0.7561462E-02  0.1264773E+00
          2   -1    0    0  501    0  0.00000000000E+00  0.00000000000E+00  0.15186818735E+03  0.15186818735E+03  0.00000000000E+00 0. -1.
         -2   -1    0    0    0  501 -0.00000000000E+00 -0.00000000000E+00 -0.12543681444E+03  0.12543681444E+03  0.00000000000E+00 0.  1.
         23    2    1    2    0    0  0.81398168807E+02 -0.54623725723E+01  0.87271708334E+01  0.12690155770E+03  0.96810859078E+02 0.  0.
          5    1    1    2  502    0 -0.37746760993E+02  0.19754317568E+02  0.69138960148E+02  0.81318627869E+02  0.41800000000E+01 0.  1.
         -5    1    1    2    0  502 -0.43651407814E+02 -0.14291944996E+02 -0.51434758063E+02  0.69084816225E+02  0.41800000000E+01 0.  1.
        -11    1    3    3    0    0 -0.27823102658E+00 -0.38490599672E+02  0.20027545276E+01  0.38543672649E+02  0.00000000000E+00 0.  1.
         11    1    3    3    0    0  0.81676399833E+02  0.33028227100E+02  0.67244163058E+01  0.88357885046E+02  0.00000000000E+00 0. -1.
</event>
<event>
 7    1  0.4687179E-006  0.1123101E+03  0.7561462E-02  0.1256351E+00
         -1   -1    0    0    0  501 -0.00000000000E+00  0.00000000000E+00  0.96193950546E+02  0.96193950546E+02  0.00000000000E+00 0.  1.
          1   -1    0    0  501    0  0.00000000000E+00 -0.00000000000E+00 -0.13484001861E+03  0.13484001861E+03  0.00000000000E+00 0. -1.
         23    2    1    2    0    0 -0.53139838207E+01 -0.40198373330E+02 -0.29868041842E+02  0.99243774801E+02  0.85516543844E+02 0.  0.
          5    1    1    2  502    0  0.23733227832E+02 -0.40498087728E+02  0.63238294604E+01  0.47548127534E+02  0.41800000000E+01 0.  1.
         -5    1    1    2    0  502 -0.18419244011E+02  0.80696461058E+02 -0.15101855684E+02  0.84242066821E+02  0.41800000000E+01 0.  1.
        -11    1    3    3    0    0  0.19493630648E+02 -0.59865458522E+02 -0.18783061575E+02  0.65701431963E+02  0.00000000000E+00 0.  1.
         11    1    3    3    0    0 -0.24807614468E+02  0.19667085192E+02 -0.11084980266E+02  0.33542342838E+02  0.00000000000E+00 0. -1.
</event>
<event>
 7    1  0.4687179E-006  0.1055577E+03  0.7561462E-02  0.1269025E+00
         -2   -1    0    0    0  501 -0.00000000000E+00  0.00000000000E+00  0.26819921924E+03  0.26819921924E+03  0.00000000000E+00 0.  1.
          2   -1    0    0  501    0  0.00000000000E+00 -0.00000000000E+00 -0.45425071437E+02  0.45425071437E+02  0.00000000000E+00 0. -1.
         23    2    1    2    0    0 -0.13186272688E+02 -0.16720484243E+02  0.86233754060E+02  0.13004486846E+03  0.94983972817E+02 0.  0.
          5    1    1    2  502    0 -0.66315520083E+01 -0.46806860686E+02  0.25030898912E+02  0.53655176727E+02  0.41800000000E+01 0. -1.
         -5    1    1    2    0  502  0.19817824696E+02  0.63527344929E+02  0.11150949483E+03  0.12992424549E+03  0.41800000000E+01 0.  1.
        -11    1    3    3    0    0  0.40883590564E+02 -0.12465076620E+02  0.43615150113E+02  0.61066581957E+02  0.00000000000E+00 0. -1.
         11    1    3    3    0    0 -0.54069863252E+02 -0.42554076231E+01  0.42618603947E+02  0.68978286500E+02  0.00000000000E+00 0.  1.
</event>
<event>
 7    1  0.4687179E-006  0.1381361E+03  0.7561462E-02  0.1215859E+00
          2   -1    0    0  501    0  0.00000000000E+00  0.00000000000E+00  0.84690031930E+03  0.84690031930E+03  0.00000000000E+00 0. -1.
         -2   -1    0    0    0  501 -0.00000000000E+00 -0.00000000000E+00 -0.23984496626E+02  0.23984496626E+02  0.00000000000E+00 0.  1.
         23    2    1    2    0    0  0.63577019467E+02 -0.59980836074E+02  0.46571387997E+03  0.48245751395E+03  0.90752943013E+02 0.  0.
          5    1    1    2  502    0  0.34435847444E+02 -0.38432826338E+01  0.67791650079E+02  0.76248138541E+02  0.41800000000E+01 0. -1.
         -5    1    1    2    0  502 -0.98012866910E+02  0.63824118708E+02  0.28941029262E+03  0.31217916344E+03  0.41800000000E+01 0. -1.
        -11    1    3    3    0    0 -0.12146677343E+02  0.13955781347E+02  0.10176297971E+03  0.10343118313E+03  0.00000000000E+00 0. -1.
         11    1    3    3    0    0  0.75723696810E+02 -0.73936617421E+02  0.36395090026E+03  0.37902633082E+03  0.00000000000E+00 0.  1.
</event>
<event>
 7    1  0.4687179E-006  0.1026350E+03  0.7561462E-02  0.1274850E+00
         -2   -1    0    0    0  501 -0.00000000000E+00  0.00000000000E+00  0.25197607818E+03  0.25197607818E+03  0.00000000000E+00 0. -1.
          2   -1    0    0  501    0  0.00000000000E+00 -0.00000000000E+00 -0.90929469615E+02  0.90929469615E+02  0.00000000000E+00 0.  1.
         23    2    1    2    0    0 -0.30574986330E+02 -0.78009191007E+02  0.18951175352E+01  0.12381315571E+03  0.91136394410E+02 0.  0.
          5    1    1    2  502    0  0.95145802609E+01 -0.21184901506E+01 -0.19456919288E+02  0.22159858895E+02  0.41800000000E+01 0.  1.
         -5    1    1    2    0  502  0.21060406069E+02  0.80127681157E+02  0.17860841031E+03  0.19693253318E+03  0.41800000000E+01 0.  1.
        -11    1    3    3    0    0  0.17813407928E+02  0.22876170226E+01 -0.20673559043E+02  0.27385155416E+02  0.00000000000E+00 0. -1.
         11    1    3    3    0    0 -0.48388394258E+02 -0.80296808029E+02  0.22568676578E+02  0.96428000296E+02  0.00000000000E+00 0.  1.
</event>
<event>
 7    1  0.4687179E-006  0.8896378E+02  0.7561462E-02  0.1305381E+00
         -1   -1    0    0    0  501 -0.00000000000E+00  0.00000000000E+00  0.11141111825E+03  0.11141111825E+03  0.00000000000E+00 0.  1.
          1   -1    0    0  501    0  0.00000000000E+00 -0.00000000000E+00 -0.11669705547E+03  0.11669705547E+03  0.00000000000E+00 0. -1.
         23    2    1    2    0    0 -0.21820276745E+02  0.28951941177E+02 -0.84374013124E+01  0.97834894551E+02  0.90477276019E+02 0.  0.
          5    1    1    2  502    0  0.12651080483E+02 -0.78515775257E+02  0.30133228318E+01  0.79695227687E+02  0.41800000000E+01 0.  1.
         -5    1    1    2    0  502  0.91691962624E+01  0.49563834080E+02  0.13814125268E+00  0.50578051483E+02  0.41800000000E+01 0.  1.
        -11    1    3    3    0    0 -0.59963300115E+01  0.31162220695E+02  0.37542713503E+02  0.49157861115E+02  0.00000000000E+00 0.  1.
         11    1    3    3    0    0 -0.15823946734E+02 -0.22102795176E+01 -0.45980114815E+02  0.48677033437E+02  0.00000000000E+00 0. -1.
</event>
<event>
 7    1  0.4687179E-006  0.9289260E+02  0.7561462E-02  0.1295994E+00
         -1   -1    0    0    0  501 -0.00000000000E+00  0.00000000000E+00  0.90071049179E+02  0.90071049179E+02  0.00000000000E+00 0.  1.
          1   -1    0    0  501    0  0.00000000000E+00 -0.00000000000E+00 -0.16134285214E+03  0.16134285214E+03  0.00000000000E+00 0. -1.
         23    2    1    2    0    0  0.35141403213E+01 -0.46703723434E+02 -0.48627567254E+02  0.11593848629E+03  0.94252349257E+02 0.  0.
          5    1    1    2  502    0 -0.22556393510E+01 -0.41485508347E+02  0.69908650091E+01  0.42337688946E+02  0.41800000000E+01 0. -1.
         -5    1    1    2    0  502 -0.12585009703E+01  0.88189231781E+02 -0.29635100721E+02  0.93137726092E+02  0.41800000000E+01 0. -1.
        -11    1    3    3    0    0  0.16589473666E+02 -0.19894906773E+02 -0.72974586284E+02  0.77435832760E+02  0.00000000000E+00 0. -1.
         11    1    3    3    0    0 -0.13075333345E+02 -0.26808816661E+02  0.24347019030E+02  0.38502653525E+02  0.00000000000E+00 0.  1.
</event>
<event>
 7    1  0.7438656E-006  0.2186007E+03  0.7561462E-02  0.1134931E+00
          4   -1    0    0  501    0  0.00000000000E+00  0.00000000000E+00  0.47965039130E+03  0.47965039130E+03  0.00000000000E+00 0. -1.
         -4   -1    0    0    0  501 -0.00000000000E+00 -0.00000000000E+00 -0.10728792862E+03  0.10728792862E+03  0.00000000000E+00 0.  1.
         23    2    1    2    0    0 -0.16680817201E+03  0.10955733417E+03  0.19712959711E+03  0.29337122478E+03  0.85900068393E+02 0.  0.
          5    1    1    2  502    0 -0.15016330325E+02 -0.81792629590E+01  0.44131936066E+02  0.47513058204E+02  0.41800000000E+01 0. -1.
         -5    1    1    2    0  502  0.18182450234E+03 -0.10137807121E+03  0.13110092950E+03  0.24605403693E+03  0.41800000000E+01 0. -1.
        -11    1    3    3    0    0 -0.69032166629E+02  0.86954789945E+02  0.69388669507E+02  0.13092502809E+03  0.00000000000E+00 0. -1.
         11    1    3    3    0    0 -0.97776005385E+02  0.22602544229E+02  0.12774092760E+03  0.16244619669E+03  0.00000000000E+00 0.  1.
</event>
<event>
 7    1  0.4687179E-006  0.1267260E+03  0.7561462E-02  0.1232396E+00
         -1   -1    0    0    0  501 -0.00000000000E+00  0.00000000000E+00  0.25636988693E+02  0.25636988693E+02  0.00000000000E+00 0.  1.
          1   -1    0    0  501    0  0.00000000000E+00 -0.00000000000E+00 -0.85336776281E+03  0.85336776281E+03  0.00000000000E+00 0. -1.
         23    2    1    2    0    0  0.53912088506E+02  0.54291454317E+02 -0.58374639504E+03  0.59434721725E+03  0.81453579664E+02 0.  0.
          5    1    1    2  502    0 -0.91689150831E+02 -0.48288299450E+02 -0.20576028560E+03  0.23042011148E+03  0.41800000000E+01 0. -1.
         -5    1    1    2    0  502  0.37777062326E+02 -0.60031548669E+01 -0.38224093483E+02  0.54237422772E+02  0.41800000000E+01 0. -1.
        -11    1    3    3    0    0  0.75076837815E+02  0.48274901666E+02 -0.48899474313E+03  0.49707429678E+03  0.00000000000E+00 0. -1.
         11    1    3    3    0    0 -0.21164749309E+02  0.60165526510E+01 -0.94751651906E+02  0.97272920476E+02  0.00000000000E+00 0.  1.
</event>
<event>
 7    1  0.4687179E-006  0.7660371E+02  0.7561462E-02  0.1338976E+00
         -1   -1    0    0    0  501 -0.00000000000E+00  0.00000000000E+00  0.19849117066E+03  0.19849117066E+03  0.00000000000E+00 0.  1.
          1   -1    0    0  501    0  0.00000000000E+00 -0.00000000000E+00 -0.66780234948E+02  0.66780234948E+02  0.00000000000E+00 0. -1.
         23    2    1    2    0    0 -0.30048339897E+02  0.28797452737E+02  0.38769201084E+02  0.10397028786E+03  0.87032027384E+02 0.  0.
          5    1    1    2  502    0  0.31010403227E+02  0.14335303464E+02  0.10959053911E+03  0.11486820577E+03  0.41800000000E+01 0.  1.
         -5    1    1    2    0  502 -0.96206333006E+00 -0.43132756201E+02 -0.16648804489E+02  0.46432911973E+02  0.41800000000E+01 0.  1.
        -11    1    3    3    0    0  0.15096810472E+02 -0.81052459610E+01  0.42214936840E+02  0.45559956002E+02  0.00000000000E+00 0.  1.
         11    1    3    3    0    0 -0.45145150370E+02  0.36902698698E+02 -0.34457357553E+01  0.58410331860E+02  0.00000000000E+00 0. -1.
</event>
<event>
 7    1  0.4687179E-006  0.1465809E+03  0.7561462E-02  0.1204738E+00
         -1   -1    0    0    0  501 -0.00000000000E+00  0.00000000000E+00  0.16972262947E+03  0.16972262947E+03  0.00000000000E+00 0.  1.
          1   -1    0    0  501    0  0.00000000000E+00 -0.00000000000E+00 -0.13686706742E+03  0.13686706742E+03  0.00000000000E+00 0. -1.
         23    2    1    2    0    0 -0.86762312480E+01  0.10659315850E+03  0.12974699294E+02  0.14081921639E+03  0.90688094342E+02 0.  0.
          5    1    1    2  502    0  0.40325008519E+02 -0.11534519716E+03  0.38003470253E+02  0.12803264025E+03  0.41800000000E+01 0. -1.
         -5    1    1    2    0  502 -0.31648777271E+02  0.87520386523E+01 -0.18122607501E+02  0.37737840240E+02  0.41800000000E+01 0. -1.
        -11    1    3    3    0    0 -0.46820426707E+02  0.74289774202E+02  0.20755019257E+02  0.90232442793E+02  0.00000000000E+00 0.  1.
         11    1    3    3    0    0  0.38144195459E+02  0.32303384302E+02 -0.77803199635E+01  0.50586773600E+02  0.00000000000E+00 0. -1.
</event>
<event>
 7    1  0.4687179E-006  0.1425849E+03  0.7561462E-02  0.1209892E+00
         -2   -1    0    0    0  501 -0.00000000000E+00  0.00000000000E+00  0.31444691773E+02  0.31444691773E+02  0.00000000000E+00 0.  1.
          2   -1    0    0  501    0  0.00000000000E+00 -0.00000000000E+00 -0.93324618984E+03  0.93324618984E+03  0.00000000000E+00 0. -1.
         23    2    1    2    0    0 -0.28510075791E+02 -0.12983536475E+03 -0.40339659450E+03  0.43391320586E+03  0.88779566351E+02 0.  0.
          5    1    1    2  502    0  0.15829374352E+02  0.63068129859E+02 -0.64926056689E+02  0.91983821042E+02  0.41800000000E+01 0. -1.
         -5    1    1    2    0  502  0.12680701439E+02  0.66767234889E+02 -0.43347884687E+03  0.43879385471E+03  0.41800000000E+01 0. -1.
        -11    1    3    3    0    0 -0.52906896143E+02 -0.10202645077E+03 -0.23624744113E+03  0.26271922228E+03  0.00000000000E+00 0. -1.
         11    1    3    3    0    0  0.24396820352E+02 -0.27808913982E+02 -0.16714915337E+03  0.17119398358E+03  0.00000000000E+00 0.  1.
</event>
<event>
 7    1  0.4687179E-006  0.1127024E+03  0.7561462E-02  0.1255646E+00
          2   -1    0    0  501    0  0.00000000000E+00  0.00000000000E+00  0.67786803575E+02  0.67786803575E+02  0.00000000000E+00 0. -1.
         -2   -1    0    0    0  501 -0.00000000000E+00 -0.00000000000E+00 -0.39583458801E+03  0.39583458801E+03  0.00000000000E+00 0.  1.
         23    2    1    2    0    0 -0.10185740674E+03  0.97280174935E+01 -0.13645557896E+03  0.19301560664E+03  0.90362236282E+02 0.  0.
          5    1    1    2  502    0  0.56568340967E+02 -0.21535433703E+01  0.15177576518E+02  0.58757520180E+02  0.41800000000E+01 0. -1.
         -5    1    1    2    0  502  0.45289065775E+02 -0.75744741232E+01 -0.20676978199E+03  0.21184826476E+03  0.41800000000E+01 0.  1.
        -11    1    3    3    0    0  0.66071752819E+01  0.12384063193E+02 -0.56559288627E+02  0.58274976760E+02  0.00000000000E+00 0.  1.
         11    1    3    3    0    0 -0.10846458202E+03 -0.26560456996E+01 -0.79896290333E+02  0.13474062988E+03  0.00000000000E+00 0. -1.
</event>
<event>
 7    1  0.4687179E-006  0.1197049E+03  0.7561462E-02  0.1243585E+00
          1   -1    0    0  501    0  0.00000000000E+00  0.00000000000E+00  0.24375832193E+03  0.24375832193E+03  0.00000000000E+00 0. -1.
         -1   -1    0    0    0  501 -0.00000000000E+00 -0.00000000000E+00 -0.84459647104E+02  0.84459647104E+02  0.00000000000E+00 0.  1.
         23    2    1    2    0    0  0.21465175960E+02  0.47217186277E+02  0.16210757815E+03  0.19277135778E+03  0.90508082680E+02 0.  0.
          5    1    1    2  502    0  0.50968190887E+02 -0.33908299770E+02 -0.57132930077E+01  0.61625022454E+02  0.41800000000E+01 0. -1.
         -5    1    1    2    0  502 -0.72433366847E+02 -0.13308886507E+02  0.29043896867E+01  0.73821588795E+02  0.41800000000E+01 0. -1.
        -11    1    3    3    0    0  0.10888526809E+02 -0.27107335749E+02  0.43329231900E+02  0.52256961302E+02  0.00000000000E+00 0.  1.
         11    1    3    3    0    0  0.10576649151E+02  0.74324522026E+02  0.11877834625E+03  0.14051439648E+03  0.00000000000E+00 0. -1.
</event>
<event>
 7    1  0.4687179E-006  0.1312473E+03  0.7561462E-02  0.1225617E+00
         -3   -1    0    0    0  501 -0.00000000000E+00  0.00000000000E+00  0.62704738867E+03  0.62704738867E+03  0.00000000000E+00 0.  1.
          3   -1    0    0  501    0  0.00000000000E+00 -0.00000000000E+00 -0.29667061289E+02  0.29667061289E+02  0.00000000000E+00 0. -1.
         23    2    1    2    0    0 -0.41507880751E+02  0.74549173524E+02  0.25955063358E+03  0.28650242113E+03  0.86235853832E+02 0.  0.
          5    1    1    2  502    0 -0.35352513549E+02 -0.59852552981E+02  0.19843602212E+03  0.21030086921E+03  0.41800000000E+01 0. -1.
         -5    1    1    2    0  502  0.76860394300E+02 -0.14696620542E+02  0.13939367168E+03  0.15991115962E+03  0.41800000000E+01 0. -1.
        -11    1    3    3    0    0 -0.61677886350E+02  0.37156758653E+02  0.11363714597E+03  0.13452950354E+03  0.00000000000E+00 0. -1.
         11    1    3    3    0    0  0.20170005599E+02  0.37392414871E+02  0.14591348761E+03  0.15197291759E+03  0.00000000000E+00 0.  1.
</event>
<event>
 7    1  0.4687179E-006  0.9019657E+02  0.7561462E-02  0.1302376E+00
          1   -1    0    0  501    0  0.00000000000E+00  0.00000000000E+00  0.42651353432E+03  0.42651353432E+03  0.00000000000E+00 0. -1.
         -1   -1    0    0    0  501 -0.00000000000E+00 -0.00000000000E+00 -0.44177128836E+02  0.44177128836E+02  0.00000000000E+00 0.  1.
         23    2    1    2    0    0 -0.18834137614E+02 -0.15597058040E+02  0.19252101388E+03  0.21418648358E+03  0.90628450306E+02 0.  0.
          5    1    1    2  502    0  0.16240074494E+00  0.48391266019E+02  0.20857407277E+03  0.21415498414E+03  0.41800000000E+01 0. -1.
         -5    1    1    2    0  502  0.18671736869E+02 -0.32794207980E+02 -0.18758681166E+02  0.42349195433E+02  0.41800000000E+01 0.  1.
        -11    1    3    3    0    0  0.24947581002E+02 -0.37389149415E+02  0.94190595736E+02  0.10436569655E+03  0.00000000000E+00 0.  1.
         11    1    3    3    0    0 -0.43781718615E+02  0.21792091376E+02  0.98330418145E+02  0.10982078703E+03  0.00000000000E+00 0. -1.
</event>
<event>
 7    1  0.4687179E-006  0.1138391E+03  0.7561462E-02  0.1253621E+00
         -2   -1    0    0    0  501 -0.00000000000E+00  0.00000000000E+00  0.36984041146E+02  0.36984041146E+02  0.00000000000E+00 0.  1.
          2   -1    0    0  501    0  0.00000000000E+00 -0.00000000000E+00 -0.43793293239E+03  0.43793293239E+03  0.00000000000E+00 0. -1.
         23    2    1    2    0    0  0.29703023200E+02  0.47523109333E+02 -0.24388462468E+03  0.26645878176E+03  0.91541557286E+02 0.  0.
          5    1    1    2  502    0 -0.32254415712E+02  0.29122986315E+02 -0.13595017455E+02  0.45725185231E+02  0.41800000000E+01 0. -1.
         -5    1    1    2    0  502  0.25513925114E+01 -0.76646095648E+02 -0.14346924911E+03  0.16273300655E+03  0.41800000000E+01 0. -1.
        -11    1    3    3    0    0  0.75889543267E+01  0.73050974917E+02 -0.17270453303E+03  0.18767230188E+03  0.00000000000E+00 0. -1.
         11    1    3    3    0    0  0.22114068874E+02 -0.25527865584E+02 -0.71180091651E+02  0.78786479873E+02  0.00000000000E+00 0.  1.
</event>
<event>
 7    1  0.4687179E-006  0.1195777E+03  0.7561462E-02  0.1243795E+00
          2   -1    0    0  501    0  0.00000000000E+00  0.00000000000E+00  0.10907110156E+03  0.10907110156E+03  0.00000000000E+00 0. -1.
         -2   -1    0    0    0  501 -0.00000000000E+00 -0.00000000000E+00 -0.19802402929E+03  0.19802402929E+03  0.00000000000E+00 0.  1.
         23    2    1    2    0    0 -0.28082720189E+01  0.95191136755E+02 -0.14439562385E+02  0.13311716445E+03  0.91882749207E+02 0.  0.
          5    1    1    2  502    0  0.34059706424E+02 -0.12345609401E+02 -0.77108359906E+02  0.85297416377E+02  0.41800000000E+01 0. -1.
         -5    1    1    2    0  502 -0.31251434405E+02 -0.82845527354E+02  0.25949945606E+01  0.88680550020E+02  0.41800000000E+01 0. -1.
        -11    1    3    3    0    0  0.64217288919E+01 -0.81027069331E+01 -0.26754929471E+02  0.28683073625E+02  0.00000000000E+00 0.  1.
         11    1    3    3    0    0 -0.92300009108E+01  0.10329384369E+03  0.12315367085E+02  0.10443409083E+03  0.00000000000E+00 0. -1.
</event>
<event>
 7    1  0.4687179E-006  0.1987760E+03  0.7561462E-02  0.1150776E+00
          1   -1    0    0  501    0  0.00000000000E+00  0.00000000000E+00  0.69271921248E+03  0.69271921248E+03  0.00000000000E+00 0. -1.
         -1   -1    0    0    0  501 -0.00000000000E+00 -0.00000000000E+00 -0.76939304562E+02  0.76939304562E+02  0.00000000000E+00 0.  1.
         23    2    1    2    0    0  0.10613026475E+03 -0.13088988052E+03  0.48783893884E+03  0.52386982737E+03  0.89760636462E+02 0.  0.
          5    1    1    2  502    0  0.27398785928E+02  0.30033299318E+02  0.37808774231E+02  0.55674665218E+02  0.41800000000E+01 0. -1.
         -5    1    1    2    0  502 -0.13352905068E+03  0.10085658120E+03  0.90132194841E+02  0.19011402445E+03  0.41800000000E+01 0. -1.
        -11    1    3    3    0    0 -0.49788174243E+01 -0.53872112759E+02  0.11026713905E+03  0.12282440764E+03  0.00000000000E+00 0.  1.
         11    1    3    3    0    0  0.11110908218E+03 -0.77017767758E+02  0.37757179979E+03  0.40104541973E+03  0.00000000000E+00 0. -1.
</event>
<event>
 7    1  0.4687179E-006  0.7426075E+02  0.7561462E-02  0.1346176E+00
          2   -1    0    0  501    0  0.00000000000E+00  0.00000000000E+00  0.37279718369E+03  0.37279718369E+03  0.00000000000E+00 0. -1.
         -2   -1    0    0    0  501 -0.00000000000E+00 -0.00000000000E+00 -0.36892523711E+02  0.36892523711E+02  0.00000000000E+00 0.  1.
         23    2    1    2    0    0  0.22962533233E+02 -0.41159043864E+02  0.15774401376E+03  0.18695484556E+03  0.88586655751E+02 0.  0.
          5    1    1    2  502    0 -0.21452512658E+02  0.50127853325E+02  0.11635903123E+02  0.55909557500E+02  0.41800000000E+01 0.  1.
         -5    1    1    2    0  502 -0.15100205746E+01 -0.89688094612E+01  0.16652474309E+03  0.16682530434E+03  0.41800000000E+01 0.  1.
        -11    1    3    3    0    0  0.20676665353E+02  0.16295741181E+02  0.95642594525E+01  0.28009832731E+02  0.00000000000E+00 0.  1.
         11    1    3    3    0    0  0.22858678800E+01 -0.57454785045E+02  0.14817975431E+03  0.15894501283E+03  0.00000000000E+00 0. -1.
</event>
<event>
 7    1  0.4687179E-006  0.3975428E+03  0.7561462E-02  0.1044634E+00
         -1   -1    0    0    0  501 -0.00000000000E+00  0.00000000000E+00  0.52151259104E+03  0.52151259104E+03  0.00000000000E+00 0.  1.
          1   -1    0    0  501    0  0.00000000000E+00 -0.00000000000E+00 -0.31171806676E+03  0.31171806676E+03  0.00000000000E+00 0. -1.
         23    2    1    2    0    0 -0.26898813159E+03  0.28027212205E+03  0.88800836560E+02  0.40756289423E+03  0.85526877866E+02 0.  0.
          5    1    1    2  502    0  0.32757025663E+02  0.59859023232E+01  0.26223891769E+02  0.42591297896E+02  0.41800000000E+01 0.  1.
         -5    1    1    2    0  502  0.23623110593E+03 -0.28625802438E+03  0.94769795950E+02  0.38307646567E+03  0.41800000000E+01 0.  1.
        -11    1    3    3    0    0 -0.10792592723E+03  0.85988707457E+02  0.69382672484E+02  0.15445393753E+03  0.00000000000E+00 0.  1.
         11    1    3    3    0    0 -0.16106220436E+03  0.19428341460E+03  0.19418164075E+02  0.25310895669E+03  0.00000000000E+00 0. -1.
</event>
<event>
 7    1  0.4687179E-006  0.1015974E+03  0.7561462E-02  0.1276972E+00
          1   -1    0    0  501    0  0.00000000000E+00  0.00000000000E+00  0.48924977537E+02  0.48924977537E+02  0.00000000000E+00 0. -1.
         -1   -1    0    0    0  501 -0.00000000000E+00 -0.00000000000E+00 -0.40859931304E+03  0.40859931304E+03  0.00000000000E+00 0.  1.
         23    2    1    2    0    0  0.59781339039E+02 -0.64311302768E+02 -0.12442623226E+03  0.17699110493E+03  0.90189865214E+02 0.  0.
          5    1    1    2  502    0 -0.45498809077E+02  0.60510791608E+02 -0.42005609388E+02  0.86681261807E+02  0.41800000000E+01 0. -1.
         -5    1    1    2    0  502 -0.14282529962E+02  0.38005111609E+01 -0.19324249386E+03  0.19385192385E+03  0.41800000000E+01 0. -1.
        -11    1    3    3    0    0 -0.63063715488E+01 -0.41684008305E+02 -0.89412738016E+02  0.98853247746E+02  0.00000000000E+00 0.  1.
         11    1    3    3    0    0  0.66087710588E+02 -0.22627294464E+02 -0.35013494245E+02  0.78137857180E+02  0.00000000000E+00 0. -1.
</event>
<event>
 7    1  0.4687179E-006  0.1311894E+03  0.7561462E-02  0.1225701E+00
          1   -1    0    0  501    0  0.00000000000E+00  0.00000000000E+00  0.62675925297E+03  0.62675925297E+03  0.00000000000E+00 0. -1.
         -1   -1    0    0    0  501 -0.00000000000E+00 -0.00000000000E+00 -0.31310540707E+02  0.31310540707E+02  0.00000000000E+00 0.  1.
         23    2    1    2    0    0  0.61662512764E+02  0.46978160836E+02  0.36867325932E+03  0.38773190821E+03  0.91688862075E+02 0.  0.
          5    1    1    2  502    0 -0.20996730948E+02  0.42944338087E+02  0.65073988527E+02  0.80852799995E+02  0.41800000000E+01 0.  1.
         -5    1    1    2    0  502 -0.40665781816E+02 -0.89922498923E+02  0.16170146441E+03  0.18948508547E+03  0.41800000000E+01 0.  1.
        -11    1    3    3    0    0 -0.35037010408E+01  0.50245203560E+02  0.11044070125E+03  0.12138370934E+03  0.00000000000E+00 0.  1.
         11    1    3    3    0    0  0.65166213804E+02 -0.32670427247E+01  0.25823255807E+03  0.26634819886E+03  0.00000000000E+00 0. -1.
</event>
<event>
 7    1  0.4687179E-006  0.1234905E+03  0.7561462E-02  0.1237447E+00
         -1   -1    0    0    0  501 -0.00000000000E+00  0.00000000000E+00  0.98642188893E+03  0.98642188893E+03  0.00000000000E+00 0.  1.
          1   -1    0    0  501    0  0.00000000000E+00 -0.00000000000E+00 -0.16858966870E+02  0.16858966870E+02  0.00000000000E+00 0. -1.
         23    2    1    2    0    0  0.33268395347E+02 -0.58577168291E+02  0.36225557490E+03  0.37957570047E+03  0.91162163541E+02 0.  0.
          5    1    1    2  502    0  0.33547970589E+02  0.61957029963E+02  0.23346245147E+03  0.24389819298E+03  0.41800000000E+01 0.  1.
         -5    1    1    2    0  502 -0.66816365936E+02 -0.33798616727E+01  0.37384489569E+03  0.37980696235E+03  0.41800000000E+01 0.  1.
        -11    1    3    3    0    0  0.36812846462E+02 -0.79783900817E+02  0.32387952930E+03  0.33558695742E+03  0.00000000000E+00 0.  1.
         11    1    3    3    0    0 -0.35444511153E+01  0.21206732526E+02  0.38376045604E+02  0.43988743041E+02  0.00000000000E+00 0. -1.
</event>
<event>
 7    1  0.4687179E-006  0.5661234E+02  0.7561462E-02  0.1412624E+00
          2   -1    0    0  501    0  0.00000000000E+00  0.00000000000E+00  0.18818620553E+02  0.18818620553E+02  0.00000000000E+00 0. -1.
         -2   -1    0    0    0  501 -0.00000000000E+00 -0.00000000000E+00 -0.47086429296E+03  0.47086429296E+03  0.00000000000E+00 0.  1.
         23    2    1    2    0    0 -0.13064120075E+02  0.34174981068E+02 -0.13195484786E+03  0.14721503883E+03  0.54051690252E+02 0.  0.
          5    1    1    2  502    0  0.22222350830E+02 -0.17147795517E+02 -0.76367470322E+01  0.29388298228E+02  0.41800000000E+01 0. -1.
         -5    1    1    2    0  502 -0.91582307551E+01 -0.17027185551E+02 -0.31245407751E+03  0.31307957646E+03  0.41800000000E+01 0.  1.
        -11    1    3    3    0    0 -0.15605561870E+01 -0.14736730451E+02 -0.25386345571E+02  0.29395120368E+02  0.00000000000E+00 0. -1.
         11    1    3    3    0    0 -0.11503563888E+02  0.48911711519E+02 -0.10656850229E+03  0.11781991846E+03  0.00000000000E+00 0.  1.
</event>
<event>
 7    1  0.4687179E-006  0.1281332E+03  0.7561462E-02  0.1230252E+00
         -3   -1    0    0    0  501 -0.00000000000E+00  0.00000000000E+00  0.65519393804E+03  0.65519393804E+03  0.00000000000E+00 0.  1.
          3   -1    0    0  501    0  0.00000000000E+00 -0.00000000000E+00 -0.32971739134E+02  0.32971739134E+02  0.00000000000E+00 0. -1.
         23    2    1    2    0    0  0.17646901951E+02 -0.82820301278E+02  0.17778106763E+03  0.21875427588E+03  0.95271767885E+02 0.  0.
          5    1    1    2  502    0  0.42156621788E+02  0.47460096678E+02  0.32502559172E+03  0.33119291842E+03  0.41800000000E+01 0. -1.
         -5    1    1    2    0  502 -0.59803523739E+02  0.35360204600E+02  0.11941553955E+03  0.13821848287E+03  0.41800000000E+01 0. -1.
        -11    1    3    3    0    0 -0.36264220942E+02 -0.25325390932E+02  0.38136699786E+02  0.58402714123E+02  0.00000000000E+00 0.  1.
         11    1    3    3    0    0  0.53911122893E+02 -0.57494910346E+02  0.13964436784E+03  0.16035156176E+03  0.00000000000E+00 0. -1.
</event>
<event>
 7    1  0.4687179E-006  0.2476956E+03  0.7561462E-02  0.1114770E+00
          1   -1    0    0  501    0  0.00000000000E+00  0.00000000000E+00  0.46303295663E+03  0.46303295663E+03  0.00000000000E+00 0. -1.
         -1   -1    0    0    0  501 -0.00000000000E+00 -0.00000000000E+00 -0.13926708775E+03  0.13926708775E+03  0.00000000000E+00 0.  1.
         23    2    1    2    0    0 -0.20612446864E+03  0.99223955889E+02  0.15706879891E+03  0.29283625605E+03  0.93540233425E+02 0.  0.
          5    1    1    2  502    0  0.13777393772E+03 -0.11822869375E+03  0.15217894821E+03  0.23692949715E+03  0.41800000000E+01 0.  1.
         -5    1    1    2    0  502  0.68350530915E+02  0.19004737864E+02  0.14518121757E+02  0.72534291180E+02  0.41800000000E+01 0.  1.
        -11    1    3    3    0    0  0.52130052911E+01  0.13849545389E+02  0.25977170225E+02  0.29896466422E+02  0.00000000000E+00 0. -1.
         11    1    3    3    0    0 -0.21133747393E+03  0.85374410501E+02  0.13109162869E+03  0.26293978962E+03  0.00000000000E+00 0.  1.
</event>
<event>
 7    1  0.4687179E-006  0.2199109E+03  0.7561462E-02  0.1133950E+00
         -2   -1    0    0    0  501 -0.00000000000E+00  0.00000000000E+00  0.48029537822E+02  0.48029537822E+02  0.00000000000E+00 0.  1.
          2   -1    0    0  501    0  0.00000000000E+00 -0.00000000000E+00 -0.10349981002E+04  0.10349981002E+04  0.00000000000E+00 0. -1.
         23    2    1    2    0    0 -0.12717659854E+03 -0.14691292173E+03 -0.53625189412E+03  0.57651608869E+03  0.83948870082E+02 0.  0.
          5    1    1    2  502    0 -0.23673297199E+02  0.25130091694E+02 -0.98229811747E+02  0.10420419773E+03  0.41800000000E+01 0.  1.
         -5    1    1    2    0  502  0.15084989574E+03  0.12178283003E+03 -0.35248685650E+03  0.40230735159E+03  0.41800000000E+01 0.  1.
        -11    1    3    3    0    0 -0.43757430370E+02 -0.11282252354E+03 -0.32759628378E+03  0.34923195684E+03  0.00000000000E+00 0. -1.
         11    1    3    3    0    0 -0.83419168170E+02 -0.34090398187E+02 -0.20865561034E+03  0.22728413186E+03  0.00000000000E+00 0.  1.
</event>
<event>
 7    1  0.4687179E-006  0.8514731E+02  0.7561462E-02  0.1315048E+00
         -2   -1    0    0    0  501 -0.00000000000E+00  0.00000000000E+00  0.58499288811E+02  0.58499288811E+02  0.00000000000E+00 0.  1.
          2   -1    0    0  501    0  0.00000000000E+00 -0.00000000000E+00 -0.20585843073E+03  0.20585843073E+03  0.00000000000E+00 0. -1.
         23    2    1    2    0    0 -0.18159037305E+02  0.12385146283E+02 -0.64572073695E+02  0.11276117334E+03  0.89790795891E+02 0.  0.
          5    1    1    2  502    0 -0.42044742085E+02  0.28709200490E+02 -0.18542956549E+02  0.54344200862E+02  0.41800000000E+01 0. -1.
         -5    1    1    2    0  502  0.60203779390E+02 -0.41094346773E+02 -0.64244111676E+02  0.97252345343E+02  0.41800000000E+01 0. -1.
        -11    1    3    3    0    0 -0.31137892373E+02  0.59027327027E+01  0.12697523398E+02  0.34141436631E+02  0.00000000000E+00 0.  1.
         11    1    3    3    0    0  0.12978855068E+02  0.64824135807E+01 -0.77269597093E+02  0.78619736705E+02  0.00000000000E+00 0. -1.
</event>
<event>
 7    1  0.4687179E-006  0.1121717E+03  0.7561462E-02  0.1256600E+00
          2   -1    0    0  501    0  0.00000000000E+00  0.00000000000E+00  0.77485271293E+03  0.77485271293E+03  0.00000000000E+00 0. -1.
         -2   -1    0    0    0  501 -0.00000000000E+00 -0.00000000000E+00 -0.19348155544E+02  0.19348155544E+02  0.00000000000E+00 0.  1.
         23    2    1    2    0    0  0.19986566366E+02 -0.37554548885E+02  0.45592799182E+03  0.46677498262E+03  0.90546914389E+02 0.  0.
          5    1    1    2  502    0  0.49872350524E+02  0.73557302010E+01  0.76724020691E+02  0.91898889355E+02  0.41800000000E+01 0. -1.
         -5    1    1    2    0  502 -0.69858916891E+02  0.30198818684E+02  0.22285254488E+03  0.23552699650E+03  0.41800000000E+01 0. -1.
        -11    1    3    3    0    0 -0.19940781847E+02  0.19505818985E+02  0.88046542500E+02  0.92359652453E+02  0.00000000000E+00 0.  1.
         11    1    3    3    0    0  0.39927348213E+02 -0.57060367870E+02  0.36788144932E+03  0.37441533017E+03  0.00000000000E+00 0. -1.
</event>
<event>
 7    1  0.4687179E-006  0.1272167E+03  0.7561462E-02  0.1231645E+00
         -1   -1    0    0    0  501 -0.00000000000E+00  0.00000000000E+00  0.97679281414E+02  0.97679281414E+02  0.00000000000E+00 0.  1.
          1   -1    0    0  501    0  0.00000000000E+00 -0.00000000000E+00 -0.17271760896E+03  0.17271760896E+03  0.00000000000E+00 0. -1.
         23    2    1    2    0    0  0.52922728467E+02  0.37411636898E+02 -0.58970182814E+02  0.12860367744E+03  0.94132765956E+02 0.  0.
          5    1    1    2  502    0 -0.75060975914E+02  0.20587789116E+02 -0.16005693062E+02  0.79571739809E+02  0.41800000000E+01 0. -1.
         -5    1    1    2    0  502  0.22138247447E+02 -0.57999426014E+02 -0.62451673522E-01  0.62221473128E+02  0.41800000000E+01 0. -1.
        -11    1    3    3    0    0  0.55407800513E+02 -0.18412667227E+02 -0.28931704596E+02  0.65162061070E+02  0.00000000000E+00 0.  1.
         11    1    3    3    0    0 -0.24850720455E+01  0.55824304126E+02 -0.30038478217E+02  0.63441616371E+02  0.00000000000E+00 0. -1.
</event>
<event>
 7    1  0.4687179E-006  0.9113978E+02  0.7561462E-02  0.1300115E+00
          2   -1    0    0  501    0  0.00000000000E+00  0.00000000000E+00  0.33477965533E+03  0.33477965533E+03  0.00000000000E+00 0. -1.
         -2   -1    0    0    0  501 -0.00000000000E+00 -0.00000000000E+00 -0.46841350195E+02  0.46841350195E+02  0.00000000000E+00 0.  1.
         23    2    1    2    0    0 -0.51850369296E+02  0.18401372962E+02  0.17085678590E+03  0.20166461905E+03  0.91921194331E+02 0.  0.
          5    1    1    2  502    0  0.13186583621E+02  0.18827146600E+02  0.12354419110E+03  0.12573379415E+03  0.41800000000E+01 0.  1.
         -5    1    1    2    0  502  0.38663785674E+02 -0.37228519562E+02 -0.64626718551E+01  0.54222592330E+02  0.41800000000E+01 0.  1.
        -11    1    3    3    0    0 -0.73137067267E+02 -0.51706815893E+01  0.99849383296E+02  0.12387762470E+03  0.00000000000E+00 0. -1.
         11    1    3    3    0    0  0.21286697971E+02  0.23572054551E+02  0.71007402600E+02  0.77786994352E+02  0.00000000000E+00 0.  1.
</event>
<event>
 7    1  0.4687179E-006  0.1280921E+03  0.7561462E-02  0.1230314E+00
         -2   -1    0    0    0  501 -0.00000000000E+00  0.00000000000E+00  0.16668761019E+03  0.16668761019E+03  0.00000000000E+00 0.  1.
          2   -1    0    0  501    0  0.00000000000E+00 -0.00000000000E+00 -0.11186552196E+03  0.11186552196E+03  0.00000000000E+00 0. -1.
         23    2    1    2    0    0 -0.22805880449E+02 -0.74660347473E+02 -0.18567873395E+01  0.12058439620E+03  0.91885109136E+02 0.  0.
          5    1    1    2  502    0  0.16773709975E+02 -0.33703863632E+02  0.22726344477E+02  0.44173146858E+02  0.41800000000E+01 0.  1.
         -5    1    1    2    0  502  0.60321704743E+01  0.10836421110E+03  0.33952531091E+02  0.11379558909E+03  0.41800000000E+01 0.  1.
        -11    1    3    3    0    0  0.17738431990E+02  0.65624518752E+01 -0.20519086402E+02  0.27906104186E+02  0.00000000000E+00 0. -1.
         11    1    3    3    0    0 -0.40544312439E+02 -0.81222799348E+02  0.18662299063E+02  0.92678292018E+02  0.00000000000E+00 0.  1.
</event>
<event>
 7    1  0.4687179E-006  0.1679480E+03  0.7561462E-02  0.1180005E+00
          1   -1    0    0  501    0  0.00000000000E+00  0.00000000000E+00  0.38537030926E+02  0.38537030926E+02  0.00000000000E+00 0. -1.
         -1   -1    0    0    0  501 -0.00000000000E+00 -0.00000000000E+00 -0.15205135812E+04  0.15205135812E+04  0.00000000000E+00 0.  1.
         23    2    1    2    0    0  0.20459526689E+02 -0.16136989151E+03 -0.25774398953E+03  0.31774007164E+03  0.89821795086E+02 0.  0.
          5    1    1    2  502    0  0.13844942959E+02  0.67017065286E+02 -0.18611304810E+03  0.19833937723E+03  0.41800000000E+01 0. -1.
         -5    1    1    2    0  502 -0.34304469647E+02  0.94352826220E+02 -0.10381195126E+04  0.10429711632E+04  0.41800000000E+01 0. -1.
        -11    1    3    3    0    0 -0.31583359794E+01 -0.11281865410E+03 -0.99224110075E+02  0.15027790197E+03  0.00000000000E+00 0.  1.
         11    1    3    3    0    0  0.23617862668E+02 -0.48551237405E+02 -0.15851987946E+03  0.16746216968E+03  0.00000000000E+00 0. -1.
</event>
<event>
 6    1  0.4687179E-006  0.8268126E+02  0.7561462E-02  0.1321610E+00
          1   -1    0    0  501    0  0.00000000000E+00  0.00000000000E+00  0.35872882776E+02  0.35872882776E+02  0.00000000000E+00 0. -1.
         -1   -1    0    0    0  501 -0.00000000000E+00 -0.00000000000E+00 -0.22300196017E+03  0.22300196017E+03  0.00000000000E+00 0.  1.
          5    1    1    2  502    0 -0.12181737507E+02  0.61379885223E+02 -0.41292570387E+02  0.75089505311E+02  0.41800000000E+01 0. -1.
         -5    1    1    2    0  502 -0.11333481582E+02 -0.55909033658E+02 -0.99614916349E+02  0.11486893317E+03  0.41800000000E+01 0. -1.
        -11    1    1    2    0    0  0.21051743342E+02  0.14347527201E+02 -0.41006389510E+02  0.48275784978E+02  0.00000000000E+00 0.  1.
         11    1    1    2    0    0  0.24634757459E+01 -0.19818378766E+02 -0.52152011485E+01  0.20640619484E+02  0.00000000000E+00 0. -1.
</event>
<event>
 7    1  0.4687179E-006  0.1127697E+03  0.7561462E-02  0.1255525E+00
          1   -1    0    0  501    0  0.00000000000E+00  0.00000000000E+00  0.18790952681E+02  0.18790952681E+02  0.00000000000E+00 0. -1.
         -1   -1    0    0    0  501 -0.00000000000E+00 -0.00000000000E+00 -0.10168034091E+04  0.10168034091E+04  0.00000000000E+00 0.  1.
         23    2    1    2    0    0 -0.51236427746E+02  0.28930120715E+02 -0.25085588465E+03  0.27575760056E+03  0.98241824052E+02 0.  0.
          5    1    1    2  502    0  0.34870808326E+02  0.39318679101E+02 -0.50310317246E+03  0.50585789145E+03  0.41800000000E+01 0. -1.
         -5    1    1    2    0  502  0.16365619420E+02 -0.68248799816E+02 -0.24405339931E+03  0.25397886977E+03  0.41800000000E+01 0. -1.
        -11    1    3    3    0    0 -0.65350809505E+01  0.51861289081E+02 -0.18886289906E+03  0.19596299454E+03  0.00000000000E+00 0.  1.
         11    1    3    3    0    0 -0.44701346796E+02 -0.22931168366E+02 -0.61992985585E+02  0.79794606019E+02  0.00000000000E+00 0. -1.
</event>
<event>
 7    1  0.5060109E-006  0.1262823E+03  0.7561462E-02  0.1233079E+00
          2   -1    0    0  501    0  0.00000000000E+00  0.00000000000E+00  0.34805977112E+03  0.34805977112E+03  0.00000000000E+00 0. -1.
         -2   -1    0    0    0  501 -0.00000000000E+00 -0.00000000000E+00 -0.64367509287E+02  0.64367509287E+02  0.00000000000E+00 0.  1.
         23    2    1    2    0    0 -0.87227671598E+02 -0.49494024862E+02  0.15914733598E+03  0.20940753459E+03  0.92007150832E+02 0.  0.
          5    1    1    2  502    0  0.10900021250E+03  0.16469754420E+02  0.11997221520E+03  0.16298191297E+03  0.41800000000E+01 0. -1.
         -5    1    1    2    0  502 -0.21772540902E+02  0.33024270442E+02  0.45727106420E+01  0.40037832836E+02  0.41800000000E+01 0. -1.
        -11    1    3    3    0    0 -0.21663335835E+02 -0.25036370796E+01  0.11579640655E+03  0.11783198244E+03  0.00000000000E+00 0. -1.
         11    1    3    3    0    0 -0.65564335763E+02 -0.46990387783E+02  0.43350929437E+02  0.91575552147E+02  0.00000000000E+00 0.  1.
</event>
<event>
 7    1  0.4687179E-006  0.6021556E+02  0.7561462E-02  0.1396929E+00
         -3   -1    0    0    0  501 -0.00000000000E+00  0.00000000000E+00  0.22971611365E+03  0.22971611365E+03  0.00000000000E+00 0.  1.
          3   -1    0    0  501    0  0.00000000000E+00 -0.00000000000E+00 -0.23412590020E+03  0.23412590020E+03  0.00000000000E+00 0. -1.
         23    2    1    2    0    0  0.50269033870E+01  0.82423183026E+01 -0.20997105937E+03  0.22972821275E+03  0.92703831593E+02 0.  0.
          5    1    1    2  502    0  0.54715085596E+01 -0.16062315474E+02 -0.86241177844E+01  0.19488026885E+02  0.41800000000E+01 0. -1.
         -5    1    1    2    0  502 -0.10498411947E+02  0.78199971713E+01  0.21418539060E+03  0.21462577421E+03  0.41800000000E+01 0.  1.
        -11    1    3    3    0    0  0.40582182875E+02 -0.18621380020E+02 -0.71824180396E+02  0.84571757994E+02  0.00000000000E+00 0. -1.
         11    1    3    3    0    0 -0.35555279488E+02  0.26863698322E+02 -0.13814687898E+03  0.14515645476E+03  0.00000000000E+00 0.  1.
</event>
<event>
 7    1  0.4687179E-006  0.3616130E+03  0.7561462E-02  0.1057947E+00
         -1   -1    0    0    0  501 -0.00000000000E+00  0.00000000000E+00  0.14959716997E+03  0.14959716997E+03  0.00000000000E+00 0.  1.
          1   -1    0    0  501    0  0.00000000000E+00 -0.00000000000E+00 -0.96643782563E+03  0.96643782563E+03  0.00000000000E+00 0. -1.
         23    2    1    2    0    0  0.15063764298E+03  0.32666200755E+03 -0.48699381486E+03  0.61220396252E+03  0.90724579712E+02 0.  0.
          5    1    1    2  502    0 -0.50040145350E+02 -0.86311942913E+02 -0.17280549785E+03  0.19958201352E+03  0.41800000000E+01 0. -1.
         -5    1    1    2    0  502 -0.10059749763E+03 -0.24035006464E+03 -0.15704134296E+03  0.30424901955E+03  0.41800000000E+01 0. -1.
        -11    1    3    3    0    0  0.32167764796E+02  0.12332493287E+03 -0.23550308286E+03  0.26777883821E+03  0.00000000000E+00 0.  1.
         11    1    3    3    0    0  0.11846987818E+03  0.20333707468E+03 -0.25149073200E+03  0.34442512431E+03  0.00000000000E+00 0. -1.
</event>
<event>
 7    1  0.4687179E-006  0.1687945E+03  0.7561462E-02  0.1179111E+00
         -2   -1    0    0    0  501 -0.00000000000E+00  0.00000000000E+00  0.38568211620E+02  0.38568211620E+02  0.00000000000E+00 0. -1.
          2   -1    0    0  501    0  0.00000000000E+00 -0.00000000000E+00 -0.88471756183E+03  0.88471756183E+03  0.00000000000E+00 0.  1.
         23    2    1    2    0    0  0.14407497424E+03 -0.36895441836E+02 -0.42583484935E+03  0.46021987460E+03  0.91368168563E+02 0.  0.
          5    1    1    2  502    0 -0.96627401214E+02  0.78799533768E+02 -0.21958186464E+03  0.25254680530E+03  0.41800000000E+01 0.  1.
         -5    1    1    2    0  502 -0.47447573021E+02 -0.41904091932E+02 -0.20073263622E+03  0.21051909355E+03  0.41800000000E+01 0.  1.
        -11    1    3    3    0    0  0.39932062245E+02 -0.37690347847E+01 -0.31437833336E+02  0.50961873819E+02  0.00000000000E+00 0. -1.
         11    1    3    3    0    0  0.10414291199E+03 -0.33126407051E+02 -0.39439701602E+03  0.40925800078E+03  0.00000000000E+00 0.  1.
</event>
<event>
 7    1  0.4687179E-006  0.1041629E+03  0.7561462E-02  0.1271778E+00
          2   -1    0    0  501    0  0.00000000000E+00  0.00000000000E+00  0.29186905376E+03  0.29186905376E+03  0.00000000000E+00 0. -1.
         -2   -1    0    0    0  501 -0.00000000000E+00 -0.00000000000E+00 -0.47939129802E+02  0.47939129802E+02  0.00000000000E+00 0.  1.
         23    2    1    2    0    0  0.21616734378E+02  0.34289516467E+02  0.12458964318E+03  0.16224468070E+03  0.95695888534E+02 0.  0.
          5    1    1    2  502    0  0.85796361726E+01  0.35153952208E+02  0.88480735057E+02  0.95685544305E+02  0.41800000000E+01 0. -1.
         -5    1    1    2    0  502 -0.30196370551E+02 -0.69443468675E+02  0.30859545725E+02  0.81877958563E+02  0.41800000000E+01 0. -1.
        -11    1    3    3    0    0  0.29989162459E+02 -0.23229891172E+02  0.20736139562E+02  0.43231530077E+02  0.00000000000E+00 0.  1.
         11    1    3    3    0    0 -0.83724280802E+01  0.57519407639E+02  0.10385350362E+03  0.11901315062E+03  0.00000000000E+00 0. -1.
</event>
<event>
 7    1  0.4687179E-006  0.1776601E+03  0.7561462E-02  0.1170087E+00
         -2   -1    0    0    0  501 -0.00000000000E+00  0.00000000000E+00  0.36604064839E+03  0.36604064839E+03  0.00000000000E+00 0.  1.
          2   -1    0    0  501    0  0.00000000000E+00 -0.00000000000E+00 -0.10376476539E+03  0.10376476539E+03  0.00000000000E+00 0. -1.
         23    2    1    2    0    0  0.91269695804E+02 -0.12012671252E+03  0.54799096439E+02  0.18440429565E+03  0.90782260657E+02 0.  0.
          5    1    1    2  502    0 -0.11521461576E+03  0.10686590336E+03  0.20392805414E+03  0.25748563582E+03  0.41800000000E+01 0. -1.
         -5    1    1    2    0  502  0.23944919953E+02  0.13260809158E+02  0.35487324116E+01  0.27915482314E+02  0.41800000000E+01 0. -1.
        -11    1    3    3    0    0 -0.76442252902E+01 -0.46494530182E+02 -0.49539153970E+01  0.47378442301E+02  0.00000000000E+00 0. -1.
         11    1    3    3    0    0  0.98913921094E+02 -0.73632182340E+02  0.59753011836E+02  0.13702585335E+03  0.00000000000E+00 0.  1.
</event>
<event>
 7    1  0.6484167E-006  0.1900712E+03  0.7561462E-02  0.1158397E+00
          2   -1    0    0  501    0  0.00000000000E+00  0.00000000000E+00  0.12074384214E+04  0.12074384214E+04  0.00000000000E+00 0. -1.
         -2   -1    0    0    0  501 -0.00000000000E+00 -0.00000000000E+00 -0.35209003003E+02  0.35209003003E+02  0.00000000000E+00 0.  1.
         23    2    1    2    0    0 -0.12548292225E+03  0.12207288762E+03  0.54104416791E+03  0.57579641485E+03  0.90360201700E+02 0.  0.
          5    1    1    2  502    0 -0.66806642382E+01 -0.66873657166E+01  0.21408797251E+03  0.21433731478E+03  0.41800000000E+01 0.  1.
         -5    1    1    2    0  502  0.13216358649E+03 -0.11538552190E+03  0.41709727793E+03  0.45251369473E+03  0.41800000000E+01 0.  1.
        -11    1    3    3    0    0 -0.60249786710E+02  0.11352341340E+03  0.40048824910E+03  0.42060485002E+03  0.00000000000E+00 0.  1.
         11    1    3    3    0    0 -0.65233135541E+02  0.85494742162E+01  0.14055591881E+03  0.15519156483E+03  0.00000000000E+00 0. -1.
</event>
<event>
 7    1  0.4687179E-006  0.1244860E+03  0.7561462E-02  0.1235875E+00
          1   -1    0    0  501    0  0.00000000000E+00  0.00000000000E+00  0.77069026383E+03  0.77069026383E+03  0.00000000000E+00 0. -1.
         -1   -1    0    0    0  501 -0.00000000000E+00 -0.00000000000E+00 -0.43968387515E+02  0.43968387515E+02  0.00000000000E+00 0.  1.
         23    2    1    2    0    0 -0.96615073058E+02  0.55389446883E+02  0.51688205443E+03  0.53680312157E+03  0.92671840235E+02 0.  0.
          5    1    1    2  502    0  0.37003725696E+02 -0.11196497107E+02  0.19897838224E+03  0.20274246290E+03  0.41800000000E+01 0. -1.
         -5    1    1    2    0  502  0.59611347362E+02 -0.44192949776E+02  0.10861439647E+02  0.75113066875E+02  0.41800000000E+01 0.  1.
        -11    1    3    3    0    0  0.12090181035E+02 -0.28750028233E+01  0.12754338155E+02  0.17807618046E+02  0.00000000000E+00 0.  1.
         11    1    3    3    0    0 -0.10870525409E+03  0.58264449706E+02  0.50412771627E+03  0.51899550353E+03  0.00000000000E+00 0. -1.
</event>
<event>
 7    1  0.4687179E-006  0.9690275E+02  0.7561462E-02  0.1286947E+00
         -4   -1    0    0    0  501 -0.00000000000E+00  0.00000000000E+00  0.25913899436E+02  0.25913899436E+02  0.00000000000E+00 0.  1.
          4   -1    0    0  501    0  0.00000000000E+00 -0.00000000000E+00 -0.47784867897E+03  0.47784867897E+03  0.00000000000E+00 0. -1.
         23    2    1    2    0    0 -0.16861184520E+02  0.18837812724E+02 -0.21693711895E+03  0.23634784063E+03  0.90329538138E+02 0.  0.
          5    1    1    2  502    0 -0.40405096692E+02 -0.30964768853E+02 -0.43382136564E+02  0.67013960647E+02  0.41800000000E+01 0.  1.
         -5    1    1    2    0  502  0.57266281212E+02  0.12126956129E+02 -0.19161552402E+03  0.20040077713E+03  0.41800000000E+01 0.  1.
        -11    1    3    3    0    0 -0.25085039969E+02  0.47774918714E+02 -0.18395990352E+03  0.19171058445E+03  0.00000000000E+00 0.  1.
         11    1    3    3    0    0  0.82238554487E+01 -0.28937105990E+02 -0.32977215434E+02  0.44637256180E+02  0.00000000000E+00 0. -1.
</event>
<event>
 7    1  0.4687179E-006  0.9604265E+02  0.7561462E-02  0.1288845E+00
          1   -1    0    0  501    0  0.00000000000E+00  0.00000000000E+00  0.14420729180E+03  0.14420729180E+03  0.00000000000E+00 0. -1.
         -1   -1    0    0    0  501 -0.00000000000E+00 -0.00000000000E+00 -0.14238792141E+03  0.14238792141E+03  0.00000000000E+00 0.  1.
         23    2    1    2    0    0 -0.20201799193E+02  0.21214336134E+02  0.89992121325E+02  0.13077030307E+03  0.90244830968E+02 0.  0.
          5    1    1    2  502    0  0.59622256590E+02  0.63392808849E+01 -0.89173422948E+02  0.10753776882E+03  0.41800000000E+01 0. -1.
         -5    1    1    2    0  502 -0.39420457397E+02 -0.27553617019E+02  0.10006720162E+01  0.48287141318E+02  0.41800000000E+01 0. -1.
        -11    1    3    3    0    0  0.24486801123E+02 -0.12718782046E+02  0.37013279528E+01  0.27840091139E+02  0.00000000000E+00 0.  1.
         11    1    3    3    0    0 -0.44688600316E+02  0.33933118180E+02  0.86290793372E+02  0.10293021193E+03  0.00000000000E+00 0. -1.
</event>
<event>
 7    1  0.4687179E-006  0.2119392E+03  0.7561462E-02  0.1140039E+00
         -3   -1    0    0    0  501 -0.00000000000E+00  0.00000000000E+00  0.11375077361E+04  0.11375077361E+04  0.00000000000E+00 0.  1.
          3   -1    0    0  501    0  0.00000000000E+00 -0.00000000000E+00 -0.50706616907E+02  0.50706616907E+02  0.00000000000E+00 0. -1.
         23    2    1    2    0    0  0.75954386665E+02 -0.17782041192E+03  0.29948712719E+03  0.36790989288E+03  0.90972425398E+02 0.  0.
          5    1    1    2  502    0  0.11944546585E+01  0.14706161389E+03  0.50669927786E+03  0.52762692841E+03  0.41800000000E+01 0.  1.
         -5    1    1    2    0  502 -0.77148841324E+02  0.30758798027E+02  0.28061471417E+03  0.29267753174E+03  0.41800000000E+01 0.  1.
        -11    1    3    3    0    0  0.23940413957E+02 -0.45444871730E+02  0.16255974029E+03  0.17048181413E+03  0.00000000000E+00 0.  1.
         11    1    3    3    0    0  0.52013972708E+02 -0.13237554019E+03  0.13692738690E+03  0.19742807875E+03  0.00000000000E+00 0. -1.
</event>
<event>
 7    1  0.4687179E-006  0.1674721E+03  0.7561462E-02  0.1180510E+00
         -1   -1    0    0    0  501 -0.00000000000E+00  0.00000000000E+00  0.84390375687E+02  0.84390375687E+02  0.00000000000E+00 0.  1.
          1   -1    0    0  501    0  0.00000000000E+00 -0.00000000000E+00 -0.35341598826E+03  0.35341598826E+03  0.00000000000E+00 0. -1.
         23    2    1    2    0    0  0.53475701678E+02  0.11589470798E+03 -0.76442793085E+02  0.17507983817E+03  0.92294177014E+02 0.  0.
          5    1    1    2  502    0  0.73125185568E+01 -0.11733312536E+03 -0.13148504550E+03  0.17642654229E+03  0.41800000000E+01 0. -1.
         -5    1    1    2    0  502 -0.60788220235E+02  0.14384173878E+01 -0.61097773995E+02  0.86299983494E+02  0.41800000000E+01 0. -1.
        -11    1    3    3    0    0 -0.19422115075E+02 -0.27658884493E-01 -0.28831450763E+01  0.19634964847E+02  0.00000000000E+00 0.  1.
         11    1    3    3    0    0  0.72897816753E+02  0.11592236686E+03 -0.73559648009E+02  0.15544487332E+03  0.00000000000E+00 0. -1.
</event>
<event>
 7    1  0.4687179E-006  0.1490347E+03  0.7561462E-02  0.1201664E+00
         -2   -1    0    0    0  501 -0.00000000000E+00  0.00000000000E+00  0.80781649836E+02  0.80781649836E+02  0.00000000000E+00 0.  1.
          2   -1    0    0  501    0  0.00000000000E+00 -0.00000000000E+00 -0.28632421030E+03  0.28632421030E+03  0.00000000000E+00 0. -1.
         23    2    1    2    0    0 -0.27004450706E+02  0.98257325451E+02 -0.11899786417E+03  0.18401835244E+03  0.96532481546E+02 0.  0.
          5    1    1    2  502    0 -0.23901096505E+01 -0.12161684946E+03 -0.77334814322E+02  0.14420303951E+03  0.41800000000E+01 0. -1.
         -5    1    1    2    0  502  0.29394560356E+02  0.23359524012E+02 -0.92098819699E+01  0.38884468191E+02  0.41800000000E+01 0. -1.
        -11    1    3    3    0    0  0.17952582166E+02 -0.10568800680E+02 -0.83581641274E+01  0.22446684873E+02  0.00000000000E+00 0. -1.
         11    1    3    3    0    0 -0.44957032871E+02  0.10882612613E+03 -0.11063970004E+03  0.16157166756E+03  0.00000000000E+00 0.  1.
</event>
<event>
 7    1  0.4687179E-006  0.1652816E+03  0.7561462E-02  0.1182860E+00
         -1   -1    0    0    0  501 -0.00000000000E+00  0.00000000000E+00  0.23436598122E+02  0.23436598122E+02  0.00000000000E+00 0.  1.
          1   -1    0    0  501    0  0.00000000000E+00 -0.00000000000E+00 -0.14007962303E+04  0.14007962303E+04  0.00000000000E+00 0. -1.
         23    2    1    2    0    0  0.75067323020E+02 -0.12401284833E+03 -0.63256886752E+03  0.65522475309E+03  0.90342766026E+02 0.  0.
          5    1    1    2  502    0 -0.51859761859E+02 -0.68611004845E+01 -0.13402344934E+03  0.14393146623E+03  0.41800000000E+01 0.  1.
         -5    1    1    2    0  502 -0.23207561161E+02  0.13087394882E+03 -0.61076731529E+03  0.62507660906E+03  0.41800000000E+01 0.  1.
        -11    1    3    3    0    0  0.97475361217E+01 -0.20581601648E+02 -0.19232144412E+02  0.29807585704E+02  0.00000000000E+00 0.  1.
         11    1    3    3    0    0  0.65319786899E+02 -0.10343124668E+03 -0.61333672311E+03  0.62541716739E+03  0.00000000000E+00 0. -1.
</event>
<event>
 7    1  0.4687179E-006  0.6430469E+02  0.7561462E-02  0.1380606E+00
         -1   -1    0    0    0  501 -0.00000000000E+00  0.00000000000E+00  0.27792331277E+03  0.27792331277E+03  0.00000000000E+00 0.  1.
          1   -1    0    0  501    0  0.00000000000E+00 -0.00000000000E+00 -0.51023735441E+02  0.51023735441E+02  0.00000000000E+00 0. -1.
         23    2    1    2    0    0  0.17586066955E+01  0.18441113623E+02  0.35879304889E+02  0.99856773220E+02  0.91328436259E+02 0.  0.
          5    1    1    2  502    0 -0.12266817145E+02  0.41866256949E+02  0.21517228220E+02  0.48823373337E+02  0.41800000000E+01 0. -1.
         -5    1    1    2    0  502  0.10508210449E+02 -0.60307370571E+02  0.16950304422E+03  0.18026690165E+03  0.41800000000E+01 0. -1.
        -11    1    3    3    0    0  0.80033216246E+01  0.84176345072E+01 -0.30394905043E+02  0.32538592168E+02  0.00000000000E+00 0. -1.
         11    1    3    3    0    0 -0.62447149291E+01  0.10023479116E+02  0.66274209931E+02  0.67318181052E+02  0.00000000000E+00 0.  1.
</event>
<event>
 7    1  0.4687179E-006  0.9235175E+02  0.7561462E-02  0.1297254E+00
          1   -1    0    0  501    0  0.00000000000E+00  0.00000000000E+00  0.62936290066E+02  0.62936290066E+02  0.00000000000E+00 0. -1.
         -1   -1    0    0    0  501 -0.00000000000E+00 -0.00000000000E+00 -0.17835019605E+03  0.17835019605E+03  0.00000000000E+00 0.  1.
         23    2    1    2    0    0 -0.17858897224E+02  0.24356277469E+02 -0.52803491756E+02  0.10986453991E+03  0.91486829247E+02 0.  0.
          5    1    1    2  502    0 -0.12864624123E+02 -0.61116244909E+02 -0.16354936723E+02  0.64696601926E+02  0.41800000000E+01 0. -1.
         -5    1    1    2    0  502  0.30723521347E+02  0.36759967440E+02 -0.46255477505E+02  0.66725344280E+02  0.41800000000E+01 0.  1.
        -11    1    3    3    0    0  0.18775514216E+02 -0.12098283622E+02 -0.53715903015E+02  0.58174621936E+02  0.00000000000E+00 0. -1.
         11    1    3    3    0    0 -0.36634411440E+02  0.36454561090E+02  0.91241125904E+00  0.51689917974E+02  0.00000000000E+00 0.  1.
</event>
<event>
 7    1  0.4687179E-006  0.1462080E+03  0.7561462E-02  0.1205212E+00
          4   -1    0    0  501    0  0.00000000000E+00  0.00000000000E+00  0.53559012858E+03  0.53559012858E+03  0.00000000000E+00 0. -1.
         -4   -1    0    0    0  501 -0.00000000000E+00 -0.00000000000E+00 -0.51321197848E+02  0.51321197848E+02  0.00000000000E+00 0.  1.
         23    2    1    2    0    0  0.96673214180E+02  0.73914399606E+02  0.29085708837E+03  0.32640386603E+03  0.84454657032E+02 0.  0.
          5    1    1    2  502    0 -0.56692550741E+02 -0.90127340777E+02  0.64626706780E+02  0.12462369957E+03  0.41800000000E+01 0. -1.
         -5    1    1    2    0  502 -0.39980663439E+02  0.16212941171E+02  0.12878513558E+03  0.13588376083E+03  0.41800000000E+01 0. -1.
        -11    1    3    3    0    0  0.91650346995E+02  0.88306316601E+02  0.22213229811E+03  0.25600888563E+03  0.00000000000E+00 0.  1.
         11    1    3    3    0    0  0.50228671854E+01 -0.14391916995E+02  0.68724790263E+02  0.70394980405E+02  0.00000000000E+00 0. -1.
</event>
<event>
 7    1  0.4687179E-006  0.1558094E+03  0.7561462E-02  0.1193511E+00
         -1   -1    0    0    0  501 -0.00000000000E+00  0.00000000000E+00  0.12630617693E+03  0.12630617693E+03  0.00000000000E+00 0.  1.
          1   -1    0    0  501    0  0.00000000000E+00 -0.00000000000E+00 -0.21682936769E+03  0.21682936769E+03  0.00000000000E+00 0. -1.
         23    2    1    2    0    0  0.12616283327E+03 -0.15809312737E+02 -0.10659636364E+01  0.14359377697E+03  0.66716127282E+02 0.  0.
          5    1    1    2  502    0 -0.44894400845E+02 -0.54493752692E+02 -0.38745082717E+02  0.80645707539E+02  0.41800000000E+01 0. -1.
         -5    1    1    2    0  502 -0.81268432424E+02  0.70303065429E+02 -0.50712144410E+02  0.11889606010E+03  0.41800000000E+01 0. -1.
        -11    1    3    3    0    0  0.10876869562E+03 -0.27750453368E+02  0.19724864698E+02  0.11397274717E+03  0.00000000000E+00 0.  1.
         11    1    3    3    0    0  0.17394137648E+02  0.11941140631E+02 -0.20790828334E+02  0.29621029808E+02  0.00000000000E+00 0. -1.
</event>
<event>
 7    1  0.4687179E-006  0.1630162E+03  0.7561462E-02  0.1185333E+00
         -1   -1    0    0    0  501 -0.00000000000E+00  0.00000000000E+00  0.62382160441E+03  0.62382160441E+03  0.00000000000E+00 0. -1.
          1   -1    0    0  501    0  0.00000000000E+00 -0.00000000000E+00 -0.57884612591E+02  0.57884612591E+02  0.00000000000E+00 0.  1.
         23    2    1    2    0    0 -0.34883069474E+01 -0.14412314133E+03  0.16452722749E+03  0.23723034438E+03  0.91789866314E+02 0.  0.
          5    1    1    2  502    0  0.64806593588E+01  0.15415005970E+03  0.25813009300E+03  0.30075381488E+03  0.41800000000E+01 0.  1.
         -5    1    1    2    0  502 -0.29923524115E+01 -0.10026918362E+02  0.14327967134E+03  0.14372205775E+03  0.41800000000E+01 0.  1.
        -11    1    3    3    0    0 -0.12863651318E+02  0.28288064878E+01 -0.36807555820E+01  0.13675658413E+02  0.00000000000E+00 0.  1.
         11    1    3    3    0    0  0.93753443710E+01 -0.14695194782E+03  0.16820798307E+03  0.22355468597E+03  0.00000000000E+00 0. -1.
</event>
<event>
 7    1  0.4687179E-006  0.2523475E+03  0.7561462E-02  0.1111830E+00
          2   -1    0    0  501    0  0.00000000000E+00  0.00000000000E+00  0.79356705678E+03  0.79356705678E+03  0.00000000000E+00 0. -1.
         -2   -1    0    0    0  501 -0.00000000000E+00 -0.00000000000E+00 -0.14749441158E+03  0.14749441158E+03  0.00000000000E+00 0.  1.
         23    2    1    2    0    0 -0.80751780712E+02 -0.23273769844E+03  0.60738377193E+03  0.66207579570E+03  0.93496665647E+02 0.  0.
          5    1    1    2  502    0  0.27979921937E+02  0.17170228554E+03 -0.25397451278E+02  0.17586089339E+03  0.41800000000E+01 0.  1.
         -5    1    1    2    0  502  0.52771858775E+02  0.61035412899E+02  0.64086324551E+02  0.10312477928E+03  0.41800000000E+01 0.  1.
        -11    1    3    3    0    0 -0.56554391490E+02 -0.99350044129E+02  0.38514660654E+03  0.40175457558E+03  0.00000000000E+00 0. -1.
         11    1    3    3    0    0 -0.24197389222E+02 -0.13338765431E+03  0.22223716538E+03  0.26032122012E+03  0.00000000000E+00 0.  1.
</event>
<event>
 7    1  0.4687179E-006  0.9001486E+02  0.7561462E-02  0.1302816E+00
          2   -1    0    0  501    0  0.00000000000E+00  0.00000000000E+00  0.36926205263E+02  0.36926205263E+02  0.00000000000E+00 0. -1.
         -2   -1    0    0    0  501 -0.00000000000E+00 -0.00000000000E+00 -0.49820203913E+03  0.49820203913E+03  0.00000000000E+00 0.  1.
         23    2    1    2    0    0 -0.41091417741E+02  0.32378578177E+02 -0.84732189435E+02  0.13491981645E+03  0.91032609582E+02 0.  0.
          5    1    1    2  502    0  0.72093876845E+02 -0.11518468906E+02 -0.11712785802E+03  0.13808189501E+03  0.41800000000E+01 0. -1.
         -5    1    1    2    0  502 -0.31002459104E+02 -0.20860109271E+02 -0.25941578641E+03  0.26212653293E+03  0.41800000000E+01 0. -1.
        -11    1    3    3    0    0 -0.40616626361E+02  0.38824985900E+01 -0.95970638788E+02  0.10428397596E+03  0.00000000000E+00 0.  1.
         11    1    3    3    0    0 -0.47479138053E+00  0.28496079587E+02  0.11238449353E+02  0.30635840490E+02  0.00000000000E+00 0. -1.
</event>
<event>
 7    1  0.4687179E-006  0.1977313E+03  0.7561462E-02  0.1151667E+00
         -2   -1    0    0    0  501 -0.00000000000E+00  0.00000000000E+00  0.56814880698E+03  0.56814880698E+03  0.00000000000E+00 0. -1.
          2   -1    0    0  501    0  0.00000000000E+00 -0.00000000000E+00 -0.72788278882E+02  0.72788278882E+02  0.00000000000E+00 0.  1.
         23    2    1    2    0    0 -0.24177789330E+02  0.16456338412E+03  0.20366658689E+03  0.28261127054E+03  0.10355374802E+03 0.  0.
          5    1    1    2  502    0 -0.42589665427E+02 -0.90876222941E+02  0.19609343519E+03  0.22032356938E+03  0.41800000000E+01 0. -1.
         -5    1    1    2    0  502  0.66767454757E+02 -0.73687161176E+02  0.95600506018E+02  0.13800224595E+03  0.41800000000E+01 0. -1.
        -11    1    3    3    0    0 -0.64828916975E+02  0.10384150591E+03  0.11824551952E+03  0.17019944099E+03  0.00000000000E+00 0.  1.
         11    1    3    3    0    0  0.40651127645E+02  0.60721878206E+02  0.85421067375E+02  0.11241182955E+03  0.00000000000E+00 0. -1.
</event>
<event>
 7    1  0.4687179E-006  0.1645560E+03  0.7561462E-02  0.1183647E+00
         -1   -1    0    0    0  501 -0.00000000000E+00  0.00000000000E+00  0.12173686992E+03  0.12173686992E+03  0.00000000000E+00 0.  1.
          1   -1    0    0  501    0  0.00000000000E+00 -0.00000000000E+00 -0.26801481248E+03  0.26801481248E+03  0.00000000000E+00 0. -1.
         23    2    1    2    0    0  0.11150551393E+03  0.73918300995E+02 -0.12606318551E+03  0.20548576056E+03  0.91842670868E+02 0.  0.
          5    1    1    2  502    0 -0.74872568487E+02  0.10154207185E+02 -0.46445274728E+02  0.88789894582E+02  0.41800000000E+01 0.  1.
         -5    1    1    2    0  502 -0.36632945444E+02 -0.84072508180E+02  0.26230517679E+02  0.95476027259E+02  0.41800000000E+01 0.  1.
        -11    1    3    3    0    0  0.64848589925E+02  0.91179795289E+02 -0.95472024831E+02  0.14708501694E+03  0.00000000000E+00 0.  1.
         11    1    3    3    0    0  0.46656924006E+02 -0.17261494294E+02 -0.30591160678E+02  0.58400743613E+02  0.00000000000E+00 0. -1.
</event>
<event>
 7    1  0.4687179E-006  0.1014332E+03  0.7561462E-02  0.1277311E+00
         -1   -1    0    0    0  501 -0.00000000000E+00  0.00000000000E+00  0.52964543596E+02  0.52964543596E+02  0.00000000000E+00 0.  1.
          1   -1    0    0  501    0  0.00000000000E+00 -0.00000000000E+00 -0.31982980364E+03  0.31982980364E+03  0.00000000000E+00 0. -1.
         23    2    1    2    0    0  0.19682230091E+02  0.62908866607E+02 -0.79568807711E+02  0.13811731456E+03  0.91653050913E+02 0.  0.
          5    1    1    2  502    0 -0.63657741277E+01  0.12488774748E+02  0.13396196714E+02  0.19834895043E+02  0.41800000000E+01 0.  1.
         -5    1    1    2    0  502 -0.13316455963E+02 -0.75397641354E+02 -0.20069264904E+03  0.21484213763E+03  0.41800000000E+01 0.  1.
        -11    1    3    3    0    0 -0.23875876822E+02 -0.10593685383E+02 -0.10119870354E+02  0.28012415819E+02  0.00000000000E+00 0.  1.
         11    1    3    3    0    0  0.43558106913E+02  0.73502551990E+02 -0.69448937357E+02  0.11010489874E+03  0.00000000000E+00 0. -1.
</event>
<event>
 7    1  0.4687179E-006  0.9417067E+02  0.7561462E-02  0.1293055E+00
         -2   -1    0    0    0  501 -0.00000000000E+00  0.00000000000E+00  0.37663916615E+03  0.37663916615E+03  0.00000000000E+00 0.  1.
          2   -1    0    0  501    0  0.00000000000E+00 -0.00000000000E+00 -0.61908468427E+02  0.61908468427E+02  0.00000000000E+00 0. -1.
         23    2    1    2    0    0 -0.92056650751E+01  0.52441807452E+02  0.16949370310E+02  0.10803760391E+03  0.92465968156E+02 0.  0.
          5    1    1    2  502    0 -0.17740609299E+02 -0.58809229781E+02  0.45194696091E+02  0.76375962714E+02  0.41800000000E+01 0. -1.
         -5    1    1    2    0  502  0.26946274374E+02  0.63674223290E+01  0.25258663132E+03  0.25413406795E+03  0.41800000000E+01 0.  1.
        -11    1    3    3    0    0  0.36857957684E+02  0.30036239763E+02 -0.12218618223E+02  0.49091540769E+02  0.00000000000E+00 0.  1.
         11    1    3    3    0    0 -0.46063622759E+02  0.22405567689E+02  0.29167988533E+02  0.58946063144E+02  0.00000000000E+00 0. -1.
</event>
<event>
 7    1  0.4687179E-006  0.1327911E+03  0.7561462E-02  0.1223372E+00
          1   -1    0    0  501    0  0.00000000000E+00  0.00000000000E+00  0.66316463827E+03  0.66316463827E+03  0.00000000000E+00 0. -1.
         -1   -1    0    0    0  501 -0.00000000000E+00 -0.00000000000E+00 -0.27317123047E+02  0.27317123047E+02  0.00000000000E+00 0.  1.
         23    2    1    2    0    0 -0.78163664063E+02  0.13107844458E+01  0.32956828707E+03  0.35053262474E+03  0.90258454615E+02 0.  0.
          5    1    1    2  502    0 -0.33413481738E+02  0.79578155931E+01  0.57558960631E+02  0.67158721993E+02  0.41800000000E+01 0. -1.
         -5    1    1    2    0  502  0.11157714580E+03 -0.92686000389E+01  0.24872026752E+03  0.27279041458E+03  0.41800000000E+01 0. -1.
        -11    1    3    3    0    0 -0.49280705857E+02 -0.43430505136E+02  0.19724386512E+03  0.20789405733E+03  0.00000000000E+00 0.  1.
         11    1    3    3    0    0 -0.28882958206E+02  0.44741289581E+02  0.13232442195E+03  0.14263856741E+03  0.00000000000E+00 0. -1.
</event>
<event>
 7    1  0.4687179E-006  0.1110808E+03  0.7561462E-02  0.1258581E+00
         -3   -1    0    0    0  501 -0.00000000000E+00  0.00000000000E+00  0.10485041721E+03  0.10485041721E+03  0.00000000000E+00 0.  1.
          3   -1    0    0  501    0  0.00000000000E+00 -0.00000000000E+00 -0.18015008077E+03  0.18015008077E+03  0.00000000000E+00 0. -1.
         23    2    1    2    0    0  0.47148517406E+02  0.69472559541E+02 -0.40920084029E+02  0.13046659609E+03  0.91091493537E+02 0.  0.
          5    1    1    2  502    0 -0.39778165573E+02 -0.11699403430E+02 -0.73329652427E+02  0.84343872462E+02  0.41800000000E+01 0.  1.
         -5    1    1    2    0  502 -0.73703518334E+01 -0.57773156111E+02  0.38950072897E+02  0.70190029433E+02  0.41800000000E+01 0.  1.
        -11    1    3    3    0    0 -0.12646863055E+01  0.73505445855E+02 -0.13707512112E+02  0.74783326284E+02  0.00000000000E+00 0. -1.
         11    1    3    3    0    0  0.48413203712E+02 -0.40328863136E+01 -0.27212571917E+02  0.55683269804E+02  0.00000000000E+00 0.  1.
</event>
<event>
 7    1  0.4687179E-006  0.9900471E+02  0.7561462E-02  0.1282403E+00
         -2   -1    0    0    0  501 -0.00000000000E+00  0.00000000000E+00  0.10731348435E+04  0.10731348435E+04  0.00000000000E+00 0.  1.
          2   -1    0    0  501    0  0.00000000000E+00 -0.00000000000E+00 -0.19231666445E+02  0.19231666445E+02  0.00000000000E+00 0. -1.
         23    2    1    2    0    0 -0.44047072149E+02 -0.45503375186E+02  0.20836851242E+03  0.23528653844E+03  0.89059623208E+02 0.  0.
          5    1    1    2  502    0  0.69733638263E+02  0.56155664492E+02  0.36950754655E+03  0.38022301129E+03  0.41800000000E+01 0. -1.
         -5    1    1    2    0  502 -0.25686566113E+02 -0.10652289307E+02  0.47602711814E+03  0.47685696026E+03  0.41800000000E+01 0. -1.
        -11    1    3    3    0    0  0.47568354142E+01 -0.28014411615E+02  0.16576841861E+03  0.16818621629E+03  0.00000000000E+00 0.  1.
         11    1    3    3    0    0 -0.48803907564E+02 -0.17488963571E+02  0.42600093806E+02  0.67100322149E+02  0.00000000000E+00 0. -1.
</event>
<event>
 7    1  0.4687179E-006  0.1129571E+03  0.7561462E-02  0.1255190E+00
         -2   -1    0    0    0  501 -0.00000000000E+00  0.00000000000E+00  0.18894771280E+02  0.18894771280E+02  0.00000000000E+00 0.  1.
          2   -1    0    0  501    0  0.00000000000E+00 -0.00000000000E+00 -0.70291081427E+03  0.70291081427E+03  0.00000000000E+00 0. -1.
         23    2    1    2    0    0  0.14192195914E+02 -0.33873210452E+02 -0.34462032285E+03  0.35823262584E+03  0.90656684729E+02 0.  0.
          5    1    1    2  502    0  0.37324141793E+02  0.59953887633E+02 -0.15684411531E+03  0.17206135275E+03  0.41800000000E+01 0. -1.
         -5    1    1    2    0  502 -0.51516337708E+02 -0.26080677181E+02 -0.18255160483E+03  0.19151160696E+03  0.41800000000E+01 0. -1.
        -11    1    3    3    0    0 -0.20501650334E+02 -0.53584462417E+02 -0.18445072950E+03  0.19316750216E+03  0.00000000000E+00 0. -1.
         11    1    3    3    0    0  0.34693846248E+02  0.19711251965E+02 -0.16016959335E+03  0.16506512368E+03  0.00000000000E+00 0.  1.
</event>
<event>
 7    1  0.4687179E-006  0.6849448E+02  0.7561462E-02  0.1365289E+00
         -1   -1    0    0    0  501 -0.00000000000E+00  0.00000000000E+00  0.14661506349E+02  0.14661506349E+02  0.00000000000E+00 0.  1.
          1   -1    0    0  501    0  0.00000000000E+00 -0.00000000000E+00 -0.93099023525E+03  0.93099023525E+03  0.00000000000E+00 0. -1.
         23    2    1    2    0    0 -0.42476234647E+02  0.87968903483E+01 -0.39163503183E+03  0.40451201823E+03  0.91489665779E+02 0.  0.
          5    1    1    2  502    0  0.39842295446E+02 -0.77697179857E+01 -0.42499318424E+02  0.58918939998E+02  0.41800000000E+01 0. -1.
         -5    1    1    2    0  502  0.26339392016E+01 -0.10271723626E+01 -0.48219437865E+03  0.48222078338E+03  0.41800000000E+01 0. -1.
        -11    1    3    3    0    0 -0.46403632959E+02  0.39037815414E+02 -0.33242279329E+03  0.33790851082E+03  0.00000000000E+00 0.  1.
         11    1    3    3    0    0  0.39273983121E+01 -0.30240925066E+02 -0.59212238536E+02  0.66603507406E+02  0.00000000000E+00 0. -1.
</event>
<event>
 7    1  0.4687179E-006  0.1319137E+03  0.7561462E-02  0.1224643E+00
         -1   -1    0    0    0  501 -0.00000000000E+00  0.00000000000E+00  0.69640061067E+02  0.69640061067E+02  0.00000000000E+00 0.  1.
          1   -1    0    0  501    0  0.00000000000E+00 -0.00000000000E+00 -0.35580055887E+03  0.35580055887E+03  0.00000000000E+00 0. -1.
         23    2    1    2    0    0  0.10506883200E+03 -0.42036842712E+02 -0.14581329403E+03  0.20599303526E+03  0.91460692413E+02 0.  0.
          5    1    1    2  502    0 -0.16070651938E+02 -0.53996502647E+01  0.22118093787E+02  0.28179860707E+02  0.41800000000E+01 0. -1.
         -5    1    1    2    0  502 -0.88998180065E+02  0.47436492976E+02 -0.16246529756E+03  0.19126772397E+03  0.41800000000E+01 0. -1.
        -11    1    3    3    0    0  0.19509295354E+02  0.28502792013E+02 -0.37504412604E+02  0.50986299361E+02  0.00000000000E+00 0. -1.
         11    1    3    3    0    0  0.85559536649E+02 -0.70539634725E+02 -0.10830888143E+03  0.15500673590E+03  0.00000000000E+00 0.  1.
</event>
<event>
 7    1  0.4687179E-006  0.9203734E+02  0.7561462E-02  0.1297992E+00
         -2   -1    0    0    0  501 -0.00000000000E+00  0.00000000000E+00  0.59446451665E+03  0.59446451665E+03  0.00000000000E+00 0. -1.
          2   -1    0    0  501    0  0.00000000000E+00 -0.00000000000E+00 -0.23775964154E+02  0.23775964154E+02  0.00000000000E+00 0.  1.
         23    2    1    2    0    0  0.12172598685E+02  0.42218206789E+02  0.19230279253E+03  0.21729929596E+03  0.91148619651E+02 0.  0.
          5    1    1    2  502    0  0.42895901833E+02 -0.41731352888E+02  0.95986998981E+02  0.11319249349E+03  0.41800000000E+01 0.  1.
         -5    1    1    2    0  502 -0.55068500518E+02 -0.48685390124E+00  0.28239876098E+03  0.28774869136E+03  0.41800000000E+01 0.  1.
        -11    1    3    3    0    0  0.61585582233E+01 -0.12431848762E+02 -0.31787923740E+01  0.14233180389E+02  0.00000000000E+00 0.  1.
         11    1    3    3    0    0  0.60140404615E+01  0.54650055551E+02  0.19548158491E+03  0.20306611557E+03  0.00000000000E+00 0. -1.
</event>
<event>
 6    1  0.4687179E-006  0.7472731E+02  0.7561462E-02  0.1344718E+00
          1   -1    0    0  501    0  0.00000000000E+00  0.00000000000E+00  0.14266432982E+03  0.14266432982E+03  0.00000000000E+00 0. -1.
         -1   -1    0    0    0  501 -0.00000000000E+00 -0.00000000000E+00 -0.59167151531E+02  0.59167151531E+02  0.00000000000E+00 0.  1.
          5    1    1    2  502    0 -0.52520321988E+01 -0.46340819516E+02 -0.20631811353E+02  0.51168344074E+02  0.41800000000E+01 0. -1.
         -5    1    1    2    0  502 -0.19201266214E+02  0.61310581549E+02  0.47352238496E+02  0.79921104376E+02  0.41800000000E+01 0. -1.
        -11    1    1    2    0    0  0.12569016295E+02  0.61656505910E+01  0.76414529461E+01  0.15949521026E+02  0.00000000000E+00 0.  1.
         11    1    1    2    0    0  0.11884282118E+02 -0.21135412625E+02  0.49135298196E+02  0.54792511871E+02  0.00000000000E+00 0. -1.
</event>
<event>
 7    1  0.4687179E-006  0.1218303E+03  0.7561462E-02  0.1240108E+00
          2   -1    0    0  501    0  0.00000000000E+00  0.00000000000E+00  0.30821763328E+03  0.30821763328E+03  0.00000000000E+00 0.  1.
         -2   -1    0    0    0  501 -0.00000000000E+00 -0.00000000000E+00 -0.69056069909E+02  0.69056069909E+02  0.00000000000E+00 0. -1.
         23    2    1    2    0    0 -0.79352560570E+02  0.54245907060E+02  0.13815524370E+03  0.18995403823E+03  0.88069392969E+02 0.  0.
          5    1    1    2  502    0  0.72211907633E+01 -0.67815430148E+02  0.80396051860E+01  0.68798152692E+02  0.41800000000E+01 0.  1.
         -5    1    1    2    0  502  0.72131369806E+02  0.13569523088E+02  0.92966714488E+02  0.11852151227E+03  0.41800000000E+01 0.  1.
        -11    1    3    3    0    0 -0.36204647657E+02  0.44884995992E+02  0.13366585370E+03  0.14557472247E+03  0.00000000000E+00 0.  1.
         11    1    3    3    0    0 -0.43147912913E+02  0.93609110678E+01  0.44893899952E+01  0.44379315759E+02  0.00000000000E+00 0. -1.
</event>
<event>
 7    1  0.4687179E-006  0.1123931E+03  0.7561462E-02  0.1256201E+00
         -2   -1    0    0    0  501 -0.00000000000E+00  0.00000000000E+00  0.24458737285E+03  0.24458737285E+03  0.00000000000E+00 0. -1.
          2   -1    0    0  501    0  0.00000000000E+00 -0.00000000000E+00 -0.67926300302E+02  0.67926300302E+02  0.00000000000E+00 0.  1.
         23    2    1    2    0    0 -0.52614404350E+02 -0.11314681784E+02  0.25205083037E+02  0.10884092788E+03  0.91185271845E+02 0.  0.
          5    1    1    2  502    0  0.37612622114E+02  0.60317579200E+02  0.12945326599E+03  0.14774484823E+03  0.41800000000E+01 0.  1.
         -5    1    1    2    0  502  0.15001782236E+02 -0.49002897417E+02  0.22002723520E+02  0.55927897044E+02  0.41800000000E+01 0.  1.
        -11    1    3    3    0    0 -0.72734115733E+02  0.93350457339E+01  0.47373604603E+01  0.73483584932E+02  0.00000000000E+00 0. -1.
         11    1    3    3    0    0  0.20119711383E+02 -0.20649727518E+02  0.20467722576E+02  0.35357342945E+02  0.00000000000E+00 0.  1.
</event>
<event>
 7    1  0.4687179E-006  0.1486518E+03  0.7561462E-02  0.1202140E+00
         -1   -1    0    0    0  501 -0.00000000000E+00  0.00000000000E+00  0.81222018219E+02  0.81222018219E+02  0.00000000000E+00 0.  1.
          1   -1    0    0  501    0  0.00000000000E+00 -0.00000000000E+00 -0.35893138959E+03  0.35893138959E+03  0.00000000000E+00 0. -1.
         23    2    1    2    0    0  0.42322919567E+02  0.12441880598E+03 -0.17584823661E+03  0.23610706964E+03  0.86906140234E+02 0.  0.
          5    1    1    2  502    0 -0.27024713298E+02 -0.14670853019E+02 -0.86749941129E+02  0.92133564693E+02  0.41800000000E+01 0. -1.
         -5    1    1    2    0  502 -0.15298206269E+02 -0.10974795296E+03 -0.15111193627E+02  0.11191277348E+03  0.41800000000E+01 0.  1.
        -11    1    3    3    0    0 -0.24552198008E+02  0.21446228432E+02 -0.22268486832E+02  0.39479572525E+02  0.00000000000E+00 0.  1.
         11    1    3    3    0    0  0.66875117575E+02  0.10297257755E+03 -0.15357974978E+03  0.19662749711E+03  0.00000000000E+00 0. -1.
</event>
<event>
 7    1  0.4687179E-006  0.1015360E+03  0.7561462E-02  0.1277099E+00
          1   -1    0    0  501    0  0.00000000000E+00  0.00000000000E+00  0.13231869890E+03  0.13231869890E+03  0.00000000000E+00 0. -1.
         -1   -1    0    0    0  501 -0.00000000000E+00 -0.00000000000E+00 -0.13651326136E+03  0.13651326136E+03  0.00000000000E+00 0.  1.
         23    2    1    2    0    0  0.18468901430E+02  0.73747749867E+02 -0.19268673536E+02  0.12167867014E+03  0.93030027715E+02 0.  0.
          5    1    1    2  502    0 -0.28313629887E+02 -0.56398775530E+02  0.66538349375E+02  0.91800369586E+02  0.41800000000E+01 0.  1.
         -5    1    1    2    0  502  0.98447284571E+01 -0.17348974336E+02 -0.51464238291E+02  0.55352920535E+02  0.41800000000E+01 0.  1.
        -11    1    3    3    0    0  0.52861346325E+02  0.65331192152E+02 -0.75259634639E+01  0.84374917655E+02  0.00000000000E+00 0. -1.
         11    1    3    3    0    0 -0.34392444894E+02  0.84165577147E+01 -0.11742710072E+02  0.37303752484E+02  0.00000000000E+00 0.  1.
</event>
<event>
 7    1  0.4687179E-006  0.1393061E+03  0.7561462E-02  0.1214266E+00
         -1   -1    0    0    0  501 -0.00000000000E+00  0.00000000000E+00  0.10744781330E+03  0.10744781330E+03  0.00000000000E+00 0.  1.
          1   -1    0    0  501    0  0.00000000000E+00 -0.00000000000E+00 -0.24719781235E+03  0.24719781235E+03  0.00000000000E+00 0. -1.
         23    2    1    2    0    0 -0.86080369285E+02  0.57069153397E+02 -0.13460538429E+03  0.19233254494E+03  0.90589624785E+02 0.  0.
          5    1    1    2  502    0  0.69126087996E+01  0.30357726041E+02 -0.28023383702E+02  0.42097008503E+02  0.41800000000E+01 0. -1.
         -5    1    1    2    0  502  0.79167760485E+02 -0.87426879438E+02  0.22878768943E+02  0.12021607221E+03  0.41800000000E+01 0. -1.
        -11    1    3    3    0    0 -0.10371578940E+02  0.52302024304E+02 -0.89204744015E+02  0.10392573190E+03  0.00000000000E+00 0. -1.
         11    1    3    3    0    0 -0.75708790344E+02  0.47671290931E+01 -0.45400640277E+02  0.88406813045E+02  0.00000000000E+00 0.  1.
</event>
<event>
 7    1  0.4687179E-006  0.1203793E+03  0.7561462E-02  0.1242473E+00
         -1   -1    0    0    0  501 -0.00000000000E+00  0.00000000000E+00  0.20253809149E+02  0.20253809149E+02  0.00000000000E+00 0.  1.
          1   -1    0    0  501    0  0.00000000000E+00 -0.00000000000E+00 -0.88304656043E+03  0.88304656043E+03  0.00000000000E+00 0. -1.
         23    2    1    2    0    0  0.40931412620E+02 -0.65656921530E+02 -0.39870050672E+03  0.41645876542E+03  0.92139011037E+02 0.  0.
          5    1    1    2  502    0 -0.51929923159E+02  0.98841452202E+02 -0.36179943202E+03  0.37865901680E+03  0.41800000000E+01 0. -1.
         -5    1    1    2    0  502  0.10998510540E+02 -0.33184530672E+02 -0.10229281254E+03  0.10818258736E+03  0.41800000000E+01 0. -1.
        -11    1    3    3    0    0 -0.12123085480E+02 -0.21968009655E+02 -0.21483402410E+02  0.33031791185E+02  0.00000000000E+00 0.  1.
         11    1    3    3    0    0  0.53054498099E+02 -0.43688911874E+02 -0.37721710431E+03  0.38342697424E+03  0.00000000000E+00 0. -1.
</event>
<event>
 7    1  0.4687179E-006  0.6794297E+02  0.7561462E-02  0.1367231E+00
         -4   -1    0    0    0  501 -0.00000000000E+00  0.00000000000E+00  0.47599843588E+02  0.47599843588E+02  0.00000000000E+00 0.  1.
          4   -1    0    0  501    0  0.00000000000E+00 -0.00000000000E+00 -0.26345642130E+03  0.26345642130E+03  0.00000000000E+00 0. -1.
         23    2    1    2    0    0 -0.30921621905E+01  0.24328974312E+02 -0.10867868548E+03  0.14451494500E+03  0.92043751519E+02 0.  0.
          5    1    1    2  502    0  0.21676497855E+02 -0.46061730068E+01  0.23762987204E+02  0.32760331956E+02  0.41800000000E+01 0. -1.
         -5    1    1    2    0  502 -0.18584335665E+02 -0.19722801305E+02 -0.13094087943E+03  0.13378098793E+03  0.41800000000E+01 0. -1.
        -11    1    3    3    0    0  0.35963159025E+02 -0.60079124508E+01 -0.78567127629E+02  0.86615456837E+02  0.00000000000E+00 0. -1.
         11    1    3    3    0    0 -0.39055321216E+02  0.30336886763E+02 -0.30111557848E+02  0.57899488165E+02  0.00000000000E+00 0.  1.
</event>
<event>
 7    1  0.4687179E-006  0.1589574E+03  0.7561462E-02  0.1189879E+00
          1   -1    0    0  501    0  0.00000000000E+00  0.00000000000E+00  0.39648968077E+03  0.39648968077E+03  0.00000000000E+00 0. -1.
         -1   -1    0    0    0  501 -0.00000000000E+00 -0.00000000000E+00 -0.72397072656E+02  0.72397072656E+02  0.00000000000E+00 0.  1.
         23    2    1    2    0    0  0.79392586453E+02  0.10071489568E+03  0.17791303968E+03  0.23766766070E+03  0.91576166438E+02 0.  0.
          5    1    1    2  502    0  0.22479769904E+02 -0.17056862305E+02  0.77370059465E+02  0.82461355241E+02  0.41800000000E+01 0. -1.
         -5    1    1    2    0  502 -0.10187235636E+03 -0.83658033371E+02  0.68809508972E+02  0.14875773749E+03  0.41800000000E+01 0. -1.
        -11    1    3    3    0    0  0.39593643117E+02 -0.91613333461E+01  0.49320640478E+02  0.63907058930E+02  0.00000000000E+00 0.  1.
         11    1    3    3    0    0  0.39798943336E+02  0.10987622902E+03  0.12859239920E+03  0.17376060177E+03  0.00000000000E+00 0. -1.
</event>
<event>
 7    1  0.4687179E-006  0.1253227E+03  0.7561462E-02  0.1234566E+00
         -1   -1    0    0    0  501 -0.00000000000E+00  0.00000000000E+00  0.28736254207E+02  0.28736254207E+02  0.00000000000E+00 0.  1.
          1   -1    0    0  501    0  0.00000000000E+00 -0.00000000000E+00 -0.96417175139E+03  0.96417175139E+03  0.00000000000E+00 0. -1.
         23    2    1    2    0    0 -0.49522445199E+02  0.99317407626E+02 -0.61539382295E+03  0.63181232375E+03  0.90337340467E+02 0.  0.
          5    1    1    2  502    0  0.39584839649E+02 -0.91633508973E+02 -0.32983153660E+03  0.34463019953E+03  0.41800000000E+01 0. -1.
         -5    1    1    2    0  502  0.99376055500E+01 -0.76838986533E+01  0.97898623655E+01  0.16465482311E+02  0.41800000000E+01 0. -1.
        -11    1    3    3    0    0  0.89245282585E+01  0.72756096339E+02 -0.41382084351E+03  0.42026275981E+03  0.00000000000E+00 0. -1.
         11    1    3    3    0    0 -0.58446973458E+02  0.26561311287E+02 -0.20157297944E+03  0.21154956394E+03  0.00000000000E+00 0.  1.
</event>
<event>
 7    1  0.4687179E-006  0.9926749E+02  0.7561462E-02  0.1281844E+00
          2   -1    0    0  501    0  0.00000000000E+00  0.00000000000E+00  0.25744826781E+03  0.25744826781E+03  0.00000000000E+00 0. -1.
         -2   -1    0    0    0  501 -0.00000000000E+00 -0.00000000000E+00 -0.56468724629E+02  0.56468724629E+02  0.00000000000E+00 0.  1.
         23    2    1    2    0    0  0.24776093176E+02  0.23833289782E+02  0.13055859302E+03  0.16630666729E+03  0.97110663057E+02 0.  0.
          5    1    1    2  502    0 -0.41356274774E+01 -0.74026990568E+02  0.31347064058E+02  0.80605270127E+02  0.41800000000E+01 0.  1.
         -5    1    1    2    0  502 -0.20640465699E+02  0.50193700786E+02  0.39073886097E+02  0.67005055015E+02  0.41800000000E+01 0.  1.
        -11    1    3    3    0    0  0.36941626980E+01  0.41909371282E+02  0.10890410686E+02  0.43458523723E+02  0.00000000000E+00 0.  1.
         11    1    3    3    0    0  0.21081930478E+02 -0.18076081500E+02  0.11966818234E+03  0.12284814357E+03  0.00000000000E+00 0. -1.
</event>
<event>
 7    1  0.4687179E-006  0.1110726E+03  0.7561462E-02  0.1258596E+00
          2   -1    0    0  501    0  0.00000000000E+00  0.00000000000E+00  0.40664236752E+02  0.40664236752E+02  0.00000000000E+00 0. -1.
         -2   -1    0    0    0  501 -0.00000000000E+00 -0.00000000000E+00 -0.32718207806E+03  0.32718207806E+03  0.00000000000E+00 0.  1.
         23    2    1    2    0    0 -0.20898813219E+02  0.24607393055E+02 -0.88079234361E+02  0.13106003908E+03  0.91523210884E+02 0.  0.
          5    1    1    2  502    0 -0.43643088914E+02 -0.41106355385E+02 -0.11661465700E+03  0.13119032850E+03  0.41800000000E+01 0. -1.
         -5    1    1    2    0  502  0.64541902132E+02  0.16498962330E+02 -0.81823949947E+02  0.10559594724E+03  0.41800000000E+01 0. -1.
        -11    1    3    3    0    0 -0.30621709425E+02 -0.28184370805E+02 -0.26362881858E+02  0.49265092973E+02  0.00000000000E+00 0.  1.
         11    1    3    3    0    0  0.97228962063E+01  0.52791763859E+02 -0.61716352502E+02  0.81794946104E+02  0.00000000000E+00 0. -1.
</event>
<event>
 7    1  0.4687179E-006  0.1320783E+03  0.7561462E-02  0.1224404E+00
         -2   -1    0    0    0  501 -0.00000000000E+00  0.00000000000E+00  0.90251022491E+03  0.90251022491E+03  0.00000000000E+00 0.  1.
          2   -1    0    0  501    0  0.00000000000E+00 -0.00000000000E+00 -0.29462683534E+02  0.29462683534E+02  0.00000000000E+00 0. -1.
         23    2    1    2    0    0 -0.89561946403E+02  0.24091399158E+02  0.18314673213E+03  0.22471853185E+03  0.91399974349E+02 0.  0.
          5    1    1    2  502    0  0.54870546316E+02  0.49228341690E+02  0.36100464874E+03  0.36847799838E+03  0.41800000000E+01 0. -1.
         -5    1    1    2    0  502  0.34691400087E+02 -0.73319740849E+02  0.32889616051E+03  0.33877637821E+03  0.41800000000E+01 0. -1.
        -11    1    3    3    0    0 -0.49251952530E+02 -0.16453351201E+02  0.14976852251E+03  0.15851522933E+03  0.00000000000E+00 0.  1.
         11    1    3    3    0    0 -0.40309993873E+02  0.40544750359E+02  0.33378209617E+02  0.66203302523E+02  0.00000000000E+00 0. -1.
</event>
<event>
 7    1  0.4687179E-006  0.2378565E+03  0.7561462E-02  0.1121229E+00
         -1   -1    0    0    0  501 -0.00000000000E+00  0.00000000000E+00  0.11846715932E+03  0.11846715932E+03  0.00000000000E+00 0.  1.
          1   -1    0    0  501    0  0.00000000000E+00 -0.00000000000E+00 -0.51856278400E+03  0.51856278400E+03  0.00000000000E+00 0. -1.
         23    2    1    2    0    0  0.20383536934E+03 -0.53957994505E+02 -0.27815606349E+03  0.36321157159E+03  0.10045659320E+03 0.  0.
          5    1    1    2  502    0  0.19775872594E+01  0.36186225049E+02 -0.62440659058E+01  0.37011005035E+02  0.41800000000E+01 0.  1.
         -5    1    1    2    0  502 -0.20581295660E+03  0.17771769457E+02 -0.11569549527E+03  0.23680736669E+03  0.41800000000E+01 0.  1.
        -11    1    3    3    0    0  0.31270617792E+02 -0.51236479393E+02 -0.57973512570E+02  0.83450323650E+02  0.00000000000E+00 0.  1.
         11    1    3    3    0    0  0.17256475155E+03 -0.27215151128E+01 -0.22018255092E+03  0.27976124794E+03  0.00000000000E+00 0. -1.
</event>
<event>
 7    1  0.4687179E-006  0.1031079E+03  0.7561462E-02  0.1273893E+00
          2   -1    0    0  501    0  0.00000000000E+00  0.00000000000E+00  0.92849614114E+02  0.92849614114E+02  0.00000000000E+00 0. -1.
         -2   -1    0    0    0  501 -0.00000000000E+00 -0.00000000000E+00 -0.25072369079E+03  0.25072369079E+03  0.00000000000E+00 0.  1.
         23    2    1    2    0    0 -0.13687962985E+01  0.54154251447E+02  0.31736369378E+02  0.11004724832E+03  0.90380546407E+02 0.  0.
          5    1    1    2  502    0  0.19735853792E+02 -0.78341346594E+02 -0.61015519325E+02  0.10132737295E+03  0.41800000000E+01 0. -1.
         -5    1    1    2    0  502 -0.18367057493E+02  0.24187095148E+02 -0.12859492673E+03  0.13219868363E+03  0.41800000000E+01 0. -1.
        -11    1    3    3    0    0  0.90900299909E+01  0.72755904781E+02  0.18766146400E+01  0.73345565702E+02  0.00000000000E+00 0.  1.
         11    1    3    3    0    0 -0.10458826289E+02 -0.18601653334E+02  0.29859754738E+02  0.36701682620E+02  0.00000000000E+00 0. -1.
</event>
<event>
 7    1  0.4696708E-006  0.1881822E+03  0.7561462E-02  0.1160111E+00
          2   -1    0    0  501    0  0.00000000000E+00  0.00000000000E+00  0.14118939490E+04  0.14118939490E+04  0.00000000000E+00 0. -1.
         -2   -1    0    0    0  501 -0.00000000000E+00 -0.00000000000E+00 -0.30928338883E+02  0.30928338883E+02  0.00000000000E+00 0.  1.
         23    2    1    2    0    0 -0.13817139756E+03 -0.10557805874E+03  0.83976106947E+03  0.86076760871E+03  0.74055120102E+02 0.  0.
          5    1    1    2  502    0  0.84572209422E+02  0.11056362601E+03  0.25262598001E+03  0.28846859826E+03  0.41800000000E+01 0. -1.
         -5    1    1    2    0  502  0.53599188138E+02 -0.49855672688E+01  0.28857856066E+03  0.29358608094E+03  0.41800000000E+01 0. -1.
        -11    1    3    3    0    0 -0.59963588771E+02 -0.81686953130E+02  0.56804828778E+03  0.57701581221E+03  0.00000000000E+00 0. -1.
         11    1    3    3    0    0 -0.78207808789E+02 -0.23891105615E+02  0.27171278169E+03  0.28375179650E+03  0.00000000000E+00 0.  1.
</event>
<event>
 7    1  0.4687179E-006  0.1633318E+03  0.7561462E-02  0.1184986E+00
         -1   -1    0    0    0  501 -0.00000000000E+00  0.00000000000E+00  0.61685148408E+02  0.61685148408E+02  0.00000000000E+00 0.  1.
          1   -1    0    0  501    0  0.00000000000E+00 -0.00000000000E+00 -0.50200918104E+03  0.50200918104E+03  0.00000000000E+00 0. -1.
         23    2    1    2    0    0 -0.62858923453E+02 -0.11849447856E+03 -0.25843841160E+03  0.30538217336E+03  0.92063421131E+02 0.  0.
          5    1    1    2  502    0  0.29729224621E+02 -0.13302588218E+02 -0.20985292631E+01  0.32903827664E+02  0.41800000000E+01 0.  1.
         -5    1    1    2    0  502  0.33129698832E+02  0.13179706678E+03 -0.17978709177E+03  0.22540832842E+03  0.41800000000E+01 0.  1.
        -11    1    3    3    0    0 -0.61428085062E+02 -0.13131112443E+03 -0.25256113972E+03  0.29120980466E+03  0.00000000000E+00 0. -1.
         11    1    3    3    0    0 -0.14308383916E+01  0.12816645871E+02 -0.58772718802E+01  0.14172368702E+02  0.00000000000E+00 0.  1.
</event>
<event>
 7    1  0.4687179E-006  0.2629974E+03  0.7561462E-02  0.1105356E+00
         -1   -1    0    0    0  501 -0.00000000000E+00  0.00000000000E+00  0.12152923875E+04  0.12152923875E+04  0.00000000000E+00 0.  1.
          1   -1    0    0  501    0  0.00000000000E+00 -0.00000000000E+00 -0.69282181686E+02  0.69282181686E+02  0.00000000000E+00 0. -1.
         23    2    1    2    0    0  0.53316211217E+02 -0.24048388698E+03  0.31424819035E+03  0.40813224354E+03  0.84527420423E+02 0.  0.
          5    1    1    2  502    0 -0.82629736633E+02  0.98649633837E+02  0.45195454110E+03  0.46993595654E+03  0.41800000000E+01 0. -1.
         -5    1    1    2    0  502  0.29313525417E+02  0.14183425314E+03  0.37980747436E+03  0.40650636910E+03  0.41800000000E+01 0. -1.
        -11    1    3    3    0    0 -0.11362254126E+02 -0.46541325839E+02  0.25318882976E+02  0.54187098694E+02  0.00000000000E+00 0. -1.
         11    1    3    3    0    0  0.64678465342E+02 -0.19394256114E+03  0.28892930737E+03  0.35394514485E+03  0.00000000000E+00 0.  1.
</event>
<event>
 7    1  0.4687179E-006  0.1689496E+03  0.7561462E-02  0.1178948E+00
         -1   -1    0    0    0  501 -0.00000000000E+00  0.00000000000E+00  0.63380851251E+02  0.63380851251E+02  0.00000000000E+00 0.  1.
          1   -1    0    0  501    0  0.00000000000E+00 -0.00000000000E+00 -0.65353833236E+03  0.65353833236E+03  0.00000000000E+00 0. -1.
         23    2    1    2    0    0  0.28876141799E+02  0.12713803991E+03 -0.47599703933E+03  0.50319405443E+03  0.98148673992E+02 0.  0.
          5    1    1    2  502    0  0.68180099365E+01 -0.13752262235E+03 -0.66018185599E+02  0.15275742256E+03  0.41800000000E+01 0.  1.
         -5    1    1    2    0  502 -0.35694151735E+02  0.10384582441E+02 -0.48142256181E+02  0.60967706622E+02  0.41800000000E+01 0.  1.
        -11    1    3    3    0    0 -0.31275725156E+02  0.81303092215E+02 -0.23598752531E+03  0.25155213354E+03  0.00000000000E+00 0.  1.
         11    1    3    3    0    0  0.60151866955E+02  0.45834947693E+02 -0.24000951403E+03  0.25164192089E+03  0.00000000000E+00 0. -1.
</event>
<event>
 7    1  0.4687179E-006  0.1574932E+03  0.7561462E-02  0.1191556E+00
         -3   -1    0    0    0  501 -0.00000000000E+00  0.00000000000E+00  0.36446334706E+02  0.36446334706E+02  0.00000000000E+00 0.  1.
          3   -1    0    0  501    0  0.00000000000E+00 -0.00000000000E+00 -0.87876197188E+03  0.87876197188E+03  0.00000000000E+00 0. -1.
         23    2    1    2    0    0 -0.13911527326E+03 -0.22643808422E+02 -0.43332115677E+03  0.46488528925E+03  0.92115720378E+02 0.  0.
          5    1    1    2  502    0  0.86970729402E+02 -0.15861672900E+02 -0.95640920342E+02  0.13030793715E+03  0.41800000000E+01 0. -1.
         -5    1    1    2    0  502  0.52144543855E+02  0.38505481321E+02 -0.31335356006E+03  0.32001508019E+03  0.41800000000E+01 0. -1.
        -11    1    3    3    0    0 -0.54781896841E+02  0.29654921558E+02 -0.23509304762E+03  0.24320610937E+03  0.00000000000E+00 0.  1.
         11    1    3    3    0    0 -0.84333376416E+02 -0.52298729980E+02 -0.19822810915E+03  0.22167917988E+03  0.00000000000E+00 0. -1.
</event>
<event>
 7    1  0.4687179E-006  0.2322327E+03  0.7561462E-02  0.1125078E+00
         -1   -1    0    0    0  501 -0.00000000000E+00  0.00000000000E+00  0.72817959262E+03  0.72817959262E+03  0.00000000000E+00 0.  1.
          1   -1    0    0  501    0  0.00000000000E+00 -0.00000000000E+00 -0.82056017187E+02  0.82056017187E+02  0.00000000000E+00 0. -1.
         23    2    1    2    0    0 -0.11059974417E+03  0.18598753304E+03  0.25399015254E+03  0.34669545528E+03  0.94143907227E+02 0.  0.
          5    1    1    2  502    0  0.13256039764E+03 -0.14938314313E+03  0.28407156729E+03  0.34727756941E+03  0.41800000000E+01 0. -1.
         -5    1    1    2    0  502 -0.21960653468E+02 -0.36604389914E+02  0.10806185560E+03  0.11626258511E+03  0.41800000000E+01 0.  1.
        -11    1    3    3    0    0 -0.81232654366E+02  0.89100477007E+02  0.19573635923E+03  0.22989206481E+03  0.00000000000E+00 0.  1.
         11    1    3    3    0    0 -0.29367089803E+02  0.96887056035E+02  0.58253793312E+02  0.11680339047E+03  0.00000000000E+00 0. -1.
</event>
<event>
 7    1  0.4687179E-006  0.1507322E+03  0.7561462E-02  0.1199576E+00
         -1   -1    0    0    0  501 -0.00000000000E+00  0.00000000000E+00  0.59416717666E+02  0.59416717666E+02  0.00000000000E+00 0.  1.
          1   -1    0    0  501    0  0.00000000000E+00 -0.00000000000E+00 -0.80199123101E+03  0.80199123101E+03  0.00000000000E+00 0. -1.
         23    2    1    2    0    0 -0.93028807548E+02 -0.10951080013E+03 -0.60045190263E+03  0.62372461930E+03  0.88560369066E+02 0.  0.
          5    1    1    2  502    0  0.52743515789E+02  0.80547050195E+02 -0.15830171998E+03  0.18532839151E+03  0.41800000000E+01 0.  1.
         -5    1    1    2    0  502  0.40285291760E+02  0.28963749935E+02  0.16179109261E+02  0.52354937866E+02  0.41800000000E+01 0.  1.
        -11    1    3    3    0    0 -0.43481335912E+02 -0.10721107212E+02 -0.80134343130E+02  0.91799137586E+02  0.00000000000E+00 0.  1.
         11    1    3    3    0    0 -0.49547471636E+02 -0.98789692918E+02 -0.52031755950E+03  0.53192548171E+03  0.00000000000E+00 0. -1.
</event>
<event>
 7    1  0.4687179E-006  0.1601894E+03  0.7561462E-02  0.1188483E+00
         -1   -1    0    0    0  501 -0.00000000000E+00  0.00000000000E+00  0.53090821887E+02  0.53090821887E+02  0.00000000000E+00 0.  1.
          1   -1    0    0  501    0  0.00000000000E+00 -0.00000000000E+00 -0.51148654750E+03  0.51148654750E+03  0.00000000000E+00 0. -1.
         23    2    1    2    0    0 -0.46338885431E+02 -0.11321958497E+03 -0.24171361465E+03  0.28607283589E+03  0.91903368827E+02 0.  0.
          5    1    1    2  502    0  0.43821889101E+02 -0.14646337307E+02 -0.68334255974E+02  0.82594891491E+02  0.41800000000E+01 0.  1.
         -5    1    1    2    0  502  0.25169963299E+01  0.12786592228E+03 -0.14834785499E+03  0.19590964201E+03  0.41800000000E+01 0.  1.
        -11    1    3    3    0    0 -0.65090444871E+02 -0.10876321052E+03 -0.17146798295E+03  0.21323102765E+03  0.00000000000E+00 0.  1.
         11    1    3    3    0    0  0.18751559441E+02 -0.44563744566E+01 -0.70245631693E+02  0.72841808234E+02  0.00000000000E+00 0. -1.
</event>
<event>
 7    1  0.4687179E-006  0.1881767E+03  0.7561462E-02  0.1160116E+00
         -1   -1    0    0    0  501 -0.00000000000E+00  0.00000000000E+00  0.20870446843E+04  0.20870446843E+04  0.00000000000E+00 0.  1.
          1   -1    0    0  501    0  0.00000000000E+00 -0.00000000000E+00 -0.19128351324E+02  0.19128351324E+02  0.00000000000E+00 0. -1.
         23    2    1    2    0    0  0.68988705307E+02 -0.14985558131E+03  0.82691519574E+03  0.84802058682E+03  0.90188901814E+02 0.  0.
          5    1    1    2  502    0 -0.10525614789E+03  0.11897254325E+03  0.98209676929E+03  0.99486926748E+03  0.41800000000E+01 0.  1.
         -5    1    1    2    0  502  0.36267442578E+02  0.30883038057E+02  0.25890436795E+03  0.26328318134E+03  0.41800000000E+01 0.  1.
        -11    1    3    3    0    0 -0.49945335219E+01 -0.15057388680E+02  0.15553095491E+02  0.22216415065E+02  0.00000000000E+00 0. -1.
         11    1    3    3    0    0  0.73983238829E+02 -0.13479819263E+03  0.81136210025E+03  0.82580417175E+03  0.00000000000E+00 0.  1.
</event>
<event>
 7    1  0.4687179E-006  0.9930236E+02  0.7561462E-02  0.1281770E+00
          1   -1    0    0  501    0  0.00000000000E+00  0.00000000000E+00  0.93822535789E+02  0.93822535789E+02  0.00000000000E+00 0. -1.
         -1   -1    0    0    0  501 -0.00000000000E+00 -0.00000000000E+00 -0.14768391624E+03  0.14768391624E+03  0.00000000000E+00 0.  1.
         23    2    1    2    0    0 -0.89336822166E+01  0.27338627275E+02  0.15950594852E+02  0.95394627611E+02  0.89546090265E+02 0.  0.
          5    1    1    2  502    0  0.57815579713E+02 -0.17099382384E+02 -0.74320950296E+02  0.95791994385E+02  0.41800000000E+01 0.  1.
         -5    1    1    2    0  502 -0.48881897496E+02 -0.10239244891E+02  0.45089749962E+01  0.50319830030E+02  0.41800000000E+01 0.  1.
        -11    1    3    3    0    0  0.16600997196E+02  0.50757702176E+02  0.25891318478E+02  0.59348949532E+02  0.00000000000E+00 0. -1.
         11    1    3    3    0    0 -0.25534679413E+02 -0.23419074901E+02 -0.99407236258E+01  0.36045678078E+02  0.00000000000E+00 0.  1.
</event>
<event>
 7    1  0.4687179E-006  0.1078053E+03  0.7561462E-02  0.1264689E+00
          2   -1    0    0  501    0  0.00000000000E+00  0.00000000000E+00  0.16444505940E+03  0.16444505940E+03  0.00000000000E+00 0.  1.
         -2   -1    0    0    0  501 -0.00000000000E+00 -0.00000000000E+00 -0.12523149605E+03  0.12523149605E+03  0.00000000000E+00 0. -1.
         23    2    1    2    0    0 -0.54471375331E+01  0.81736800999E+02  0.63483532295E+02  0.13819704322E+03  0.91420391257E+02 0.  0.
          5    1    1    2  502    0 -0.78797443009E+01  0.27400313365E+01 -0.58520380170E+02  0.59259644255E+02  0.41800000000E+01 0.  1.
         -5    1    1    2    0  502  0.13326881834E+02 -0.84476832335E+02  0.34250411219E+02  0.92219867976E+02  0.41800000000E+01 0.  1.
        -11    1    3    3    0    0  0.35196181635E+02  0.70002166481E+02  0.53061420478E+02  0.94628689396E+02  0.00000000000E+00 0. -1.
         11    1    3    3    0    0 -0.40643319168E+02  0.11734634518E+02  0.10422111816E+02  0.43568353825E+02  0.00000000000E+00 0.  1.
</event>
<event>
 7    1  0.4687179E-006  0.9994254E+02  0.7561462E-02  0.1280417E+00
          2   -1    0    0  501    0  0.00000000000E+00  0.00000000000E+00  0.45937931047E+03  0.45937931047E+03  0.00000000000E+00 0.  1.
         -2   -1    0    0    0  501 -0.00000000000E+00 -0.00000000000E+00 -0.28147201842E+02  0.28147201842E+02  0.00000000000E+00 0. -1.
         23    2    1    2    0    0  0.30430013915E+02 -0.12272798016E+02  0.20944858373E+03  0.23079181403E+03  0.91211539171E+02 0.  0.
          5    1    1    2  502    0 -0.12085075576E+02  0.62722995239E+02  0.66157246726E+02  0.92056921944E+02  0.41800000000E+01 0. -1.
         -5    1    1    2    0  502 -0.18344938339E+02 -0.50450197223E+02  0.15562627817E+03  0.16467777634E+03  0.41800000000E+01 0. -1.
        -11    1    3    3    0    0  0.92480826953E+01 -0.43401218533E+02  0.17221009886E+03  0.17783562903E+03  0.00000000000E+00 0.  1.
         11    1    3    3    0    0  0.21181931220E+02  0.31128420517E+02  0.37238484873E+02  0.52956185000E+02  0.00000000000E+00 0. -1.
</event>
<event>
 7    1  0.7831344E-006  0.2524561E+03  0.7561462E-02  0.1111762E+00
          3   -1    0    0  501    0  0.00000000000E+00  0.00000000000E+00  0.11742362231E+03  0.11742362231E+03  0.00000000000E+00 0. -1.
         -3   -1    0    0    0  501 -0.00000000000E+00 -0.00000000000E+00 -0.60533975790E+03  0.60533975790E+03  0.00000000000E+00 0.  1.
         23    2    1    2    0    0 -0.18302743920E+03 -0.13683507250E+03 -0.12587706833E+03  0.27673313571E+03  0.92267608082E+02 0.  0.
          5    1    1    2  502    0  0.14906485643E+03  0.35185580119E+02 -0.20877239199E+03  0.25896281688E+03  0.41800000000E+01 0. -1.
         -5    1    1    2    0  502  0.33962582771E+02  0.10164949239E+03 -0.15326667526E+03  0.18706742762E+03  0.41800000000E+01 0. -1.
        -11    1    3    3    0    0 -0.69759643916E+02 -0.40071690119E+01 -0.52376872481E+02  0.87325838637E+02  0.00000000000E+00 0.  1.
         11    1    3    3    0    0 -0.11326779528E+03 -0.13282790349E+03 -0.73500195853E+02  0.18940729707E+03  0.00000000000E+00 0. -1.
</event>
<event>
 7    1  0.4687179E-006  0.7827444E+02  0.7561462E-02  0.1334021E+00
          3   -1    0    0  501    0  0.00000000000E+00  0.00000000000E+00  0.63138035760E+02  0.63138035760E+02  0.00000000000E+00 0. -1.
         -3   -1    0    0    0  501 -0.00000000000E+00 -0.00000000000E+00 -0.21396602398E+03  0.21396602398E+03  0.00000000000E+00 0.  1.
         23    2    1    2    0    0  0.16590935448E+02  0.14874950004E+01 -0.50019398441E+02  0.11558884322E+03  0.10286577991E+03 0.  0.
          5    1    1    2  502    0  0.14886260532E-01 -0.35247133448E+02  0.15847360015E+02  0.38871221455E+02  0.41800000000E+01 0. -1.
         -5    1    1    2    0  502 -0.16605821709E+02  0.33759638448E+02 -0.11665594980E+03  0.12264399506E+03  0.41800000000E+01 0. -1.
        -11    1    3    3    0    0 -0.11183461655E+02  0.36692257195E+02  0.10962837849E+02  0.39894553091E+02  0.00000000000E+00 0. -1.
         11    1    3    3    0    0  0.27774397104E+02 -0.35204762195E+02 -0.60982236290E+02  0.75694290132E+02  0.00000000000E+00 0.  1.
</event>
<event>
 7    1  0.4687179E-006  0.1204200E+03  0.7561462E-02  0.1242406E+00
          1   -1    0    0  501    0  0.00000000000E+00  0.00000000000E+00  0.64632619689E+03  0.64632619689E+03  0.00000000000E+00 0. -1.
         -1   -1    0    0    0  501 -0.00000000000E+00 -0.00000000000E+00 -0.29606057362E+02  0.29606057362E+02  0.00000000000E+00 0.  1.
         23    2    1    2    0    0  0.44069951762E+02 -0.63262493134E+02  0.37109090301E+03  0.38970413838E+03  0.90645206643E+02 0.  0.
          5    1    1    2  502    0 -0.77319118709E+02  0.40954291519E+02  0.22402251939E+03  0.24053910639E+03  0.41800000000E+01 0. -1.
         -5    1    1    2    0  502  0.33249166947E+02  0.22308201615E+02  0.21606717128E+02  0.45689009477E+02  0.41800000000E+01 0. -1.
        -11    1    3    3    0    0 -0.24332626025E+02 -0.10058942241E+02  0.43523626930E+02  0.50868114860E+02  0.00000000000E+00 0.  1.
         11    1    3    3    0    0  0.68402577787E+02 -0.53203550892E+02  0.32756727608E+03  0.33883602352E+03  0.00000000000E+00 0. -1.
</event>
<event>
 7    1  0.4687179E-006  0.8378377E+02  0.7561462E-02  0.1318644E+00
          2   -1    0    0  501    0  0.00000000000E+00  0.00000000000E+00  0.53571047810E+03  0.53571047810E+03  0.00000000000E+00 0. -1.
         -2   -1    0    0    0  501 -0.00000000000E+00 -0.00000000000E+00 -0.30355545863E+02  0.30355545863E+02  0.00000000000E+00 0.  1.
         23    2    1    2    0    0  0.57831785936E+02 -0.33735563467E+02  0.25720269676E+03  0.28021765202E+03  0.88803725021E+02 0.  0.
          5    1    1    2  502    0 -0.17541732131E+01  0.40276649780E+02  0.21794388102E+03  0.22168061105E+03  0.41800000000E+01 0.  1.
         -5    1    1    2    0  502 -0.56077612723E+02 -0.65410863125E+01  0.30208354457E+02  0.64167760891E+02  0.41800000000E+01 0.  1.
        -11    1    3    3    0    0  0.40822984284E+02 -0.34426654286E+02  0.25771259529E+03  0.26318718119E+03  0.00000000000E+00 0. -1.
         11    1    3    3    0    0  0.17008801652E+02  0.69109081878E+00 -0.50989853487E+00  0.17030470829E+02  0.00000000000E+00 0.  1.
</event>
<event>
 7    1  0.4687179E-006  0.1097630E+03  0.7561462E-02  0.1261009E+00
          2   -1    0    0  501    0  0.00000000000E+00  0.00000000000E+00  0.43760776658E+03  0.43760776658E+03  0.00000000000E+00 0. -1.
         -2   -1    0    0    0  501 -0.00000000000E+00 -0.00000000000E+00 -0.33857760861E+02  0.33857760861E+02  0.00000000000E+00 0.  1.
         23    2    1    2    0    0  0.31222774895E+02 -0.19264010014E+02  0.25498360394E+03  0.27366959355E+03  0.92371231466E+02 0.  0.
          5    1    1    2  502    0 -0.74267297064E+02  0.26838952883E+02  0.12488354438E+03  0.14781519835E+03  0.41800000000E+01 0. -1.
         -5    1    1    2    0  502  0.43044522168E+02 -0.75749428698E+01  0.23882857403E+02  0.49980735548E+02  0.41800000000E+01 0. -1.
        -11    1    3    3    0    0 -0.30886581588E+02  0.18496337057E+01  0.11479058871E+03  0.11888768365E+03  0.00000000000E+00 0. -1.
         11    1    3    3    0    0  0.62109356483E+02 -0.21113643719E+02  0.14019301523E+03  0.15478190990E+03  0.00000000000E+00 0.  1.
</event>
<event>
 7    1  0.4687179E-006  0.1062081E+03  0.7561462E-02  0.1267758E+00
          2   -1    0    0  501    0  0.00000000000E+00  0.00000000000E+00  0.18061050605E+03  0.18061050605E+03  0.00000000000E+00 0. -1.
         -2   -1    0    0    0  501 -0.00000000000E+00 -0.00000000000E+00 -0.16978510900E+03  0.16978510900E+03  0.00000000000E+00 0.  1.
         23    2    1    2    0    0 -0.78800579598E+01  0.65132948934E+02  0.41020637855E+02  0.12068372630E+03  0.92614646320E+02 0.  0.
          5    1    1    2  502    0 -0.33462341876E+02 -0.33090889220E+02  0.88284955657E+02  0.10013211807E+03  0.41800000000E+01 0. -1.
         -5    1    1    2    0  502  0.41342399836E+02 -0.32042059713E+02 -0.11848019646E+03  0.12957977068E+03  0.41800000000E+01 0.  1.
        -11    1    3    3    0    0  0.82857002930E+01  0.85945612633E+02  0.37349300284E+02  0.94075881032E+02  0.00000000000E+00 0.  1.
         11    1    3    3    0    0 -0.16165758253E+02 -0.20812663699E+02  0.36713375706E+01  0.26607845266E+02  0.00000000000E+00 0. -1.
</event>
<event>
 7    1  0.4687179E-006  0.1553001E+03  0.7561462E-02  0.1194107E+00
          2   -1    0    0  501    0  0.00000000000E+00  0.00000000000E+00  0.35765272142E+03  0.35765272142E+03  0.00000000000E+00 0.  1.
         -2   -1    0    0    0  501 -0.00000000000E+00 -0.00000000000E+00 -0.10446902198E+03  0.10446902198E+03  0.00000000000E+00 0. -1.
         23    2    1    2    0    0  0.10768852348E+03 -0.10488542266E+03  0.18123300043E+03  0.25374125257E+03  0.94559255692E+02 0.  0.
          5    1    1    2  502    0 -0.37048591858E+02  0.24770349495E+02 -0.35263927092E+02  0.56984079591E+02  0.41800000000E+01 0.  1.
         -5    1    1    2    0  502 -0.70639931617E+02  0.80115073160E+02  0.10721462610E+03  0.15139641124E+03  0.41800000000E+01 0.  1.
        -11    1    3    3    0    0  0.19761204085E+02 -0.53665325097E+02  0.12504322831E+03  0.13750011364E+03  0.00000000000E+00 0.  1.
         11    1    3    3    0    0  0.87927319390E+02 -0.51220097558E+02  0.56189772120E+02  0.11624113893E+03  0.00000000000E+00 0. -1.
</event>
<event>
 7    1  0.4687179E-006  0.2382009E+03  0.7561462E-02  0.1120997E+00
          1   -1    0    0  501    0  0.00000000000E+00  0.00000000000E+00  0.80261675255E+02  0.80261675255E+02  0.00000000000E+00 0. -1.
         -1   -1    0    0    0  501 -0.00000000000E+00 -0.00000000000E+00 -0.90382891342E+03  0.90382891342E+03  0.00000000000E+00 0.  1.
         23    2    1    2    0    0 -0.17131599525E+02  0.23182526800E+03 -0.25341254890E+03  0.35578931877E+03  0.91277997478E+02 0.  0.
          5    1    1    2  502    0 -0.25849865934E+02 -0.58870048430E+02 -0.60553416038E+02  0.88419945515E+02  0.41800000000E+01 0.  1.
         -5    1    1    2    0  502  0.42981465459E+02 -0.17295521957E+03 -0.50960127323E+03  0.53988132439E+03  0.41800000000E+01 0.  1.
        -11    1    3    3    0    0  0.62273723045E+01  0.48039815543E+02 -0.11420364238E+03  0.12405271451E+03  0.00000000000E+00 0.  1.
         11    1    3    3    0    0 -0.23358971829E+02  0.18378545246E+03 -0.13920890651E+03  0.23173660426E+03  0.00000000000E+00 0. -1.
</event>
<event>
 7    1  0.4687179E-006  0.8350952E+02  0.7561462E-02  0.1319377E+00
          2   -1    0    0  501    0  0.00000000000E+00  0.00000000000E+00  0.30228200583E+03  0.30228200583E+03  0.00000000000E+00 0. -1.
         -2   -1    0    0    0  501 -0.00000000000E+00 -0.00000000000E+00 -0.44746259197E+02  0.44746259197E+02  0.00000000000E+00 0.  1.
         23    2    1    2    0    0  0.37149512268E+02 -0.18974559675E+02  0.11081968148E+03  0.14976358294E+03  0.91695195057E+02 0.  0.
          5    1    1    2  502    0  0.60711232936E+01 -0.11720307776E+02  0.14331279022E+03  0.14398004165E+03  0.41800000000E+01 0. -1.
         -5    1    1    2    0  502 -0.43220635561E+02  0.30694867451E+02  0.34032749357E+01  0.53284640436E+02  0.41800000000E+01 0. -1.
        -11    1    3    3    0    0  0.17907524922E+02 -0.55715727843E+02  0.73648091909E+02  0.94068928025E+02  0.00000000000E+00 0.  1.
         11    1    3    3    0    0  0.19241987345E+02  0.36741168168E+02  0.37171589567E+02  0.55694654916E+02  0.00000000000E+00 0. -1.
</event>
<event>
 7    1  0.4687179E-006  0.1145511E+03  0.7561462E-02  0.1252367E+00
         -2   -1    0    0    0  501 -0.00000000000E+00  0.00000000000E+00  0.84214296060E+02  0.84214296060E+02  0.00000000000E+00 0.  1.
          2   -1    0    0  501    0  0.00000000000E+00 -0.00000000000E+00 -0.16890965269E+03  0.16890965269E+03  0.00000000000E+00 0. -1.
         23    2    1    2    0    0  0.37722758850E+02  0.29208032776E+02 -0.24541705824E+02  0.10635101843E+03  0.91826619689E+02 0.  0.
          5    1    1    2  502    0 -0.70212037996E+02  0.13905836715E+02 -0.89572963961E+01  0.72255159906E+02  0.41800000000E+01 0. -1.
         -5    1    1    2    0  502  0.32489279146E+02 -0.43113869490E+02 -0.51196354406E+02  0.74517770406E+02  0.41800000000E+01 0. -1.
        -11    1    3    3    0    0  0.28845127370E+02 -0.31031752370E+02 -0.13509170452E+02  0.44469188373E+02  0.00000000000E+00 0. -1.
         11    1    3    3    0    0  0.88776314793E+01  0.60239785146E+02 -0.11032535372E+02  0.61881830062E+02  0.00000000000E+00 0.  1.
</event>
<event>
 7    1  0.4687179E-006  0.1519989E+03  0.7561462E-02  0.1198038E+00
          2   -1    0    0  501    0  0.00000000000E+00  0.00000000000E+00  0.45301543000E+03  0.45301543000E+03  0.00000000000E+00 0. -1.
         -2   -1    0    0    0  501 -0.00000000000E+00 -0.00000000000E+00 -0.73009671549E+02  0.73009671549E+02  0.00000000000E+00 0.  1.
         23    2    1    2    0    0  0.10177799670E+03 -0.10349774350E+03  0.19460997367E+03  0.25939966970E+03  0.91348800026E+02 0.  0.
          5    1    1    2  502    0 -0.83633134474E+02  0.71352235036E+02  0.19873558629E+03  0.22715401886E+03  0.41800000000E+01 0. -1.
         -5    1    1    2    0  502 -0.18144862223E+02  0.32145508466E+02 -0.13339801503E+02  0.39471412995E+02  0.41800000000E+01 0. -1.
        -11    1    3    3    0    0  0.13580217882E+02 -0.54031871426E+02  0.23127767232E+02  0.60322127488E+02  0.00000000000E+00 0.  1.
         11    1    3    3    0    0  0.88197778815E+02 -0.49465872076E+02  0.17148220643E+03  0.19907754221E+03  0.00000000000E+00 0. -1.
</event>
<event>
 7    1  0.4687179E-006  0.1968133E+03  0.7561462E-02  0.1152456E+00
          2   -1    0    0  501    0  0.00000000000E+00  0.00000000000E+00  0.51390695252E+03  0.51390695252E+03  0.00000000000E+00 0. -1.
         -2   -1    0    0    0  501 -0.00000000000E+00 -0.00000000000E+00 -0.10557670252E+03  0.10557670252E+03  0.00000000000E+00 0.  1.
         23    2    1    2    0    0  0.14638636500E+02 -0.29367816876E+02  0.82703551113E+02  0.12807945880E+03  0.92128779720E+02 0.  0.
          5    1    1    2  502    0  0.12907623291E+03  0.10528756341E+03  0.27423378655E+03  0.32088594079E+03  0.41800000000E+01 0. -1.
         -5    1    1    2    0  502 -0.14371486941E+03 -0.75919746539E+02  0.51392912335E+02  0.17051825545E+03  0.41800000000E+01 0.  1.
        -11    1    3    3    0    0 -0.19809801448E+02 -0.10809682413E+01  0.81084256107E+02  0.83476064319E+02  0.00000000000E+00 0.  1.
         11    1    3    3    0    0  0.34448437948E+02 -0.28286848635E+02  0.16192950060E+01  0.44603394479E+02  0.00000000000E+00 0. -1.
</event>
<event>
 7    1  0.4687179E-006  0.1278607E+03  0.7561462E-02  0.1230665E+00
         -1   -1    0    0    0  501 -0.00000000000E+00  0.00000000000E+00  0.48177118430E+02  0.48177118430E+02  0.00000000000E+00 0.  1.
          1   -1    0    0  501    0  0.00000000000E+00 -0.00000000000E+00 -0.46270970732E+03  0.46270970732E+03  0.00000000000E+00 0. -1.
         23    2    1    2    0    0 -0.84677185095E+02  0.26622808379E+02 -0.28410110627E+03  0.30954568810E+03  0.85006439963E+02 0.  0.
          5    1    1    2  502    0  0.21501619212E+02  0.49617385946E+02 -0.43883429025E+02  0.69766986174E+02  0.41800000000E+01 0.  1.
         -5    1    1    2    0  502  0.63175565883E+02 -0.76240194325E+02 -0.86548053590E+02  0.13157415147E+03  0.41800000000E+01 0.  1.
        -11    1    3    3    0    0 -0.55483496138E+02  0.41811380032E+02 -0.25900273159E+03  0.26815858147E+03  0.00000000000E+00 0. -1.
         11    1    3    3    0    0 -0.29193688957E+02 -0.15188571653E+02 -0.25098374684E+02  0.41387106634E+02  0.00000000000E+00 0.  1.
</event>
<event>
 7    1  0.4687179E-006  0.1075993E+03  0.7561462E-02  0.1265081E+00
         -1   -1    0    0    0  501 -0.00000000000E+00  0.00000000000E+00  0.16080094443E+02  0.16080094443E+02  0.00000000000E+00 0.  1.
          1   -1    0    0  501    0  0.00000000000E+00 -0.00000000000E+00 -0.82755900548E+03  0.82755900548E+03  0.00000000000E+00 0. -1.
         23    2    1    2    0    0  0.22682759474E+02 -0.23369771961E+01 -0.47804596146E+03  0.48735066893E+03  0.91993283420E+02 0.  0.
          5    1    1    2  502    0 -0.23189341493E+02  0.59463960799E+02 -0.22149304808E+03  0.23054359878E+03  0.41800000000E+01 0.  1.
         -5    1    1    2    0  502  0.50658201952E+00 -0.57126983603E+02 -0.11193990150E+03  0.12574483221E+03  0.41800000000E+01 0.  1.
        -11    1    3    3    0    0 -0.19043156877E+02 -0.35745612015E+02 -0.17490539162E+03  0.17953352506E+03  0.00000000000E+00 0.  1.
         11    1    3    3    0    0  0.41725916350E+02  0.33408634819E+02 -0.30314056984E+03  0.30781714386E+03  0.00000000000E+00 0. -1.
</event>
<event>
 7    1  0.4687179E-006  0.9330704E+02  0.7561462E-02  0.1295035E+00
          1   -1    0    0  501    0  0.00000000000E+00  0.00000000000E+00  0.45453862375E+03  0.45453862375E+03  0.00000000000E+00 0. -1.
         -1   -1    0    0    0  501 -0.00000000000E+00 -0.00000000000E+00 -0.36642477284E+02  0.36642477284E+02  0.00000000000E+00 0.  1.
         23    2    1    2    0    0  0.64382987462E+01 -0.63839214640E+01  0.34115543687E+03  0.35307249310E+03  0.90503851476E+02 0.  0.
          5    1    1    2  502    0 -0.16187108710E+02  0.51326514574E+02  0.74336771690E+02  0.91868719442E+02  0.41800000000E+01 0.  1.
         -5    1    1    2    0  502  0.97488099641E+01 -0.44942593110E+02  0.24039379125E+01  0.46239888501E+02  0.41800000000E+01 0. -1.
        -11    1    3    3    0    0 -0.34216993530E+02  0.18391525815E+02  0.10036738456E+03  0.10762277989E+03  0.00000000000E+00 0.  1.
         11    1    3    3    0    0  0.40655292276E+02 -0.24775447279E+02  0.24078805231E+03  0.24544971321E+03  0.00000000000E+00 0. -1.
</event>
<event>
 7    1  0.4687179E-006  0.4843674E+03  0.7561462E-02  0.1017942E+00
          1   -1    0    0  501    0  0.00000000000E+00  0.00000000000E+00  0.21151539173E+04  0.21151539173E+04  0.00000000000E+00 0. -1.
         -1   -1    0    0    0  501 -0.00000000000E+00 -0.00000000000E+00 -0.18570410205E+03  0.18570410205E+03  0.00000000000E+00 0.  1.
         23    2    1    2    0    0 -0.46722381330E+03 -0.21167303996E+02  0.16856825648E+04  0.17518469858E+04  0.93252376673E+02 0.  0.
          5    1    1    2  502    0  0.25854312990E+02  0.42499769706E+02  0.21446063834E+02  0.54333065247E+02  0.41800000000E+01 0. -1.
         -5    1    1    2    0  502  0.44136950031E+03 -0.21332465710E+02  0.22232118653E+03  0.49467796826E+03  0.41800000000E+01 0.  1.
        -11    1    3    3    0    0 -0.63148329850E+02 -0.35759012623E+02  0.25646220559E+03  0.26653195201E+03  0.00000000000E+00 0.  1.
         11    1    3    3    0    0 -0.40407548345E+03  0.14591708628E+02  0.14292203593E+04  0.14853150338E+04  0.00000000000E+00 0. -1.
</event>
<event>
 7    1  0.4687179E-006  0.1652691E+03  0.7561462E-02  0.1182873E+00
          2   -1    0    0  501    0  0.00000000000E+00  0.00000000000E+00  0.23717643080E+03  0.23717643080E+03  0.00000000000E+00 0. -1.
         -2   -1    0    0    0  501 -0.00000000000E+00 -0.00000000000E+00 -0.21296317556E+03  0.21296317556E+03  0.00000000000E+00 0.  1.
         23    2    1    2    0    0  0.15432492578E+03 -0.21607622867E+02  0.13343882461E+03  0.22398369003E+03  0.89887159275E+02 0.  0.
          5    1    1    2  502    0 -0.72736266031E+02  0.10448305254E+02  0.16855307057E+02  0.75506988119E+02  0.41800000000E+01 0. -1.
         -5    1    1    2    0  502 -0.81588659752E+02  0.11159317613E+02 -0.12608087643E+03  0.15064892821E+03  0.41800000000E+01 0.  1.
        -11    1    3    3    0    0  0.62285817277E+02 -0.48110925082E+02  0.33430903748E+02  0.85509119231E+02  0.00000000000E+00 0.  1.
         11    1    3    3    0    0  0.92039108505E+02  0.26503302216E+02  0.10000792087E+03  0.13847457080E+03  0.00000000000E+00 0. -1.
</event>
<event>
 7    1  0.4687179E-006  0.9948732E+02  0.7561462E-02  0.1281378E+00
          1   -1    0    0  501    0  0.00000000000E+00  0.00000000000E+00  0.13976698759E+03  0.13976698759E+03  0.00000000000E+00 0. -1.
         -1   -1    0    0    0  501 -0.00000000000E+00 -0.00000000000E+00 -0.19253133211E+03  0.19253133211E+03  0.00000000000E+00 0.  1.
         23    2    1    2    0    0 -0.65544211441E+02  0.63122472003E+02  0.58806793502E+02  0.14157362996E+03  0.91128281078E+02 0.  0.
          5    1    1    2  502    0  0.16704498485E+02 -0.19391282522E+02  0.26959702726E+02  0.37408021580E+02  0.41800000000E+01 0.  1.
         -5    1    1    2    0  502  0.48839712956E+02 -0.43731189481E+02 -0.13853084075E+03  0.15331666815E+03  0.41800000000E+01 0.  1.
        -11    1    3    3    0    0 -0.63585632547E+02  0.23667383044E+02 -0.33451401690E+01  0.67929873026E+02  0.00000000000E+00 0.  1.
         11    1    3    3    0    0 -0.19585788939E+01  0.39455088959E+02  0.62151933671E+02  0.73643756932E+02  0.00000000000E+00 0. -1.
</event>
<event>
 7    1  0.4687179E-006  0.7652121E+02  0.7561462E-02  0.1339224E+00
         -2   -1    0    0    0  501 -0.00000000000E+00  0.00000000000E+00  0.19654605806E+03  0.19654605806E+03  0.00000000000E+00 0.  1.
          2   -1    0    0  501    0  0.00000000000E+00 -0.00000000000E+00 -0.89173668751E+02  0.89173668751E+02  0.00000000000E+00 0. -1.
         23    2    1    2    0    0  0.11675742115E+02  0.50773483423E+02 -0.10491832316E+02  0.10611561550E+03  0.91848656686E+02 0.  0.
          5    1    1    2  502    0  0.53789619197E+01 -0.26462151521E+02 -0.22917758025E+02  0.35663352722E+02  0.41800000000E+01 0.  1.
         -5    1    1    2    0  502 -0.17054704034E+02 -0.24311331902E+02  0.14078197965E+03  0.14394075859E+03  0.41800000000E+01 0.  1.
        -11    1    3    3    0    0  0.46148066997E+02  0.34435281566E+02  0.15891944720E+02  0.59732626018E+02  0.00000000000E+00 0.  1.
         11    1    3    3    0    0 -0.34472324882E+02  0.16338201857E+02 -0.26383777036E+02  0.46382989483E+02  0.00000000000E+00 0. -1.
</event>
<event>
 7    1  0.4687179E-006  0.1049493E+03  0.7561462E-02  0.1270220E+00
          2   -1    0    0  501    0  0.00000000000E+00  0.00000000000E+00  0.60605173786E+02  0.60605173786E+02  0.00000000000E+00 0. -1.
         -2   -1    0    0    0  501 -0.00000000000E+00 -0.00000000000E+00 -0.34939018966E+03  0.34939018966E+03  0.00000000000E+00 0.  1.
         23    2    1    2    0    0  0.17289562929E+02 -0.57443430671E+02 -0.27045406853E+02  0.11376324708E+03  0.92800569187E+02 0.  0.
          5    1    1    2  502    0 -0.67082564140E+01  0.96917387364E+02 -0.19408843846E+03  0.21708471854E+03  0.41800000000E+01 0. -1.
         -5    1    1    2    0  502 -0.10581306515E+02 -0.39473956693E+02 -0.67651170555E+02  0.79147397822E+02  0.41800000000E+01 0. -1.
        -11    1    3    3    0    0  0.29960432272E+02 -0.38402574505E+02 -0.57704547645E+02  0.75512913130E+02  0.00000000000E+00 0.  1.
         11    1    3    3    0    0 -0.12670869342E+02 -0.19040856166E+02  0.30659140791E+02  0.38250333953E+02  0.00000000000E+00 0. -1.
</event>
<event>
 7    1  0.4687179E-006  0.1138246E+03  0.7561462E-02  0.1253647E+00
          1   -1    0    0  501    0  0.00000000000E+00  0.00000000000E+00  0.39238776217E+03  0.39238776217E+03  0.00000000000E+00 0. -1.
         -1   -1    0    0    0  501 -0.00000000000E+00 -0.00000000000E+00 -0.55405154756E+02  0.55405154756E+02  0.00000000000E+00 0.  1.
         23    2    1    2    0    0  0.30452749460E+02  0.55720433714E+02  0.23519710569E+03  0.27447220606E+03  0.12643249855E+03 0.  0.
          5    1    1    2  502    0  0.90881332622E+01 -0.58249948975E+02  0.11667274430E+03  0.13078857895E+03  0.41800000000E+01 0. -1.
         -5    1    1    2    0  502 -0.39540882722E+02  0.25295152614E+01 -0.14887242575E+02  0.42532131917E+02  0.41800000000E+01 0. -1.
        -11    1    3    3    0    0 -0.38421504122E+02  0.44719108426E+02  0.52613270386E+02  0.79020040864E+02  0.00000000000E+00 0.  1.
         11    1    3    3    0    0  0.68874253582E+02  0.11001325288E+02  0.18258383531E+03  0.19545216520E+03  0.00000000000E+00 0. -1.
</event>
<event>
 6    1  0.4687179E-006  0.1810023E+03  0.7561462E-02  0.1166836E+00
          1   -1    0    0  501    0  0.00000000000E+00  0.00000000000E+00  0.22991335133E+03  0.22991335133E+03  0.00000000000E+00 0. -1.
         -1   -1    0    0    0  501 -0.00000000000E+00 -0.00000000000E+00 -0.14909757214E+03  0.14909757214E+03  0.00000000000E+00 0.  1.
          5    1    1    2  502    0 -0.38379002607E+02  0.29402076389E+02  0.33981318754E+02  0.59242150209E+02  0.41800000000E+01 0. -1.
         -5    1    1    2    0  502  0.69148144112E+02  0.54586293024E+02 -0.77156215888E+00  0.88199755829E+02  0.41800000000E+01 0.  1.
        -11    1    1    2    0    0 -0.11165934764E+02  0.69578100628E+02  0.33194016334E+01  0.70546499653E+02  0.00000000000E+00 0.  1.
         11    1    1    2    0    0 -0.19603206741E+02 -0.15356647004E+03  0.44286620969E+02  0.16102251778E+03  0.00000000000E+00 0. -1.
</event>
<event>
 7    1  0.4687179E-006  0.1795921E+03  0.7561462E-02  0.1168198E+00
          3   -1    0    0  501    0  0.00000000000E+00  0.00000000000E+00  0.61108642331E+03  0.61108642331E+03  0.00000000000E+00 0. -1.
         -3   -1    0    0    0  501 -0.00000000000E+00 -0.00000000000E+00 -0.58809090875E+02  0.58809090875E+02  0.00000000000E+00 0.  1.
         23    2    1    2    0    0 -0.13864127430E+03  0.69647244621E+02  0.25665668035E+03  0.31336962788E+03  0.90861050424E+02 0.  0.
          5    1    1    2  502    0  0.54673796833E+02  0.19346211212E+02  0.17602410483E+03  0.18537922707E+03  0.41800000000E+01 0. -1.
         -5    1    1    2    0  502  0.83967477465E+02 -0.88993455833E+02  0.11959654725E+03  0.17114665923E+03  0.41800000000E+01 0. -1.
        -11    1    3    3    0    0 -0.28037931737E+02  0.61643817814E+02  0.11516242111E+03  0.13359816289E+03  0.00000000000E+00 0. -1.
         11    1    3    3    0    0 -0.11060334256E+03  0.80034268075E+01  0.14149425924E+03  0.17977146499E+03  0.00000000000E+00 0.  1.
</event>
<event>
 6    1  0.4687179E-006  0.8292717E+02  0.7561462E-02  0.1320944E+00
          2   -1    0    0  501    0  0.00000000000E+00  0.00000000000E+00  0.60169485384E+02  0.60169485384E+02  0.00000000000E+00 0.  1.
         -2   -1    0    0    0  501 -0.00000000000E+00 -0.00000000000E+00 -0.17073340685E+03  0.17073340685E+03  0.00000000000E+00 0. -1.
          5    1    1    2  502    0 -0.28855596959E+02 -0.47858438350E+02 -0.90465214055E+02  0.10641664790E+03  0.41800000000E+01 0. -1.
         -5    1    1    2    0  502  0.49116553485E+02  0.57190294163E+02 -0.37638613973E+02  0.84364111058E+02  0.41800000000E+01 0.  1.
        -11    1    1    2    0    0 -0.23912567715E+02  0.40091910996E+00  0.61344007324E+01  0.24690129671E+02  0.00000000000E+00 0.  1.
         11    1    1    2    0    0  0.36516111878E+01 -0.97327749231E+01  0.11405505828E+02  0.15432003602E+02  0.00000000000E+00 0. -1.
</event>
<event>
 7    1  0.4687179E-006  0.1089445E+03  0.7561462E-02  0.1262537E+00
          1   -1    0    0  501    0  0.00000000000E+00  0.00000000000E+00  0.58850537033E+03  0.58850537033E+03  0.00000000000E+00 0. -1.
         -1   -1    0    0    0  501 -0.00000000000E+00 -0.00000000000E+00 -0.38292958883E+02  0.38292958883E+02  0.00000000000E+00 0.  1.
         23    2    1    2    0    0  0.24131180727E+02  0.84048974325E+02  0.36307030376E+03  0.38529926520E+03  0.94809990628E+02 0.  0.
          5    1    1    2  502    0 -0.61824790521E+01 -0.67578866975E+02  0.20167475797E+03  0.21282694076E+03  0.41800000000E+01 0.  1.
         -5    1    1    2    0  502 -0.17948701674E+02 -0.16470107350E+02 -0.14532650282E+02  0.28672123258E+02  0.41800000000E+01 0.  1.
        -11    1    3    3    0    0  0.57369776039E+02  0.65675818244E+02  0.20590023619E+03  0.22360570558E+03  0.00000000000E+00 0.  1.
         11    1    3    3    0    0 -0.33238595312E+02  0.18373156082E+02  0.15717006757E+03  0.16169355962E+03  0.00000000000E+00 0. -1.
</event>
<event>
 7    1  0.4687179E-006  0.9237221E+02  0.7561462E-02  0.1297207E+00
         -1   -1    0    0    0  501 -0.00000000000E+00  0.00000000000E+00  0.86490331439E+02  0.86490331439E+02  0.00000000000E+00 0. -1.
          1   -1    0    0  501    0  0.00000000000E+00 -0.00000000000E+00 -0.25287238523E+03  0.25287238523E+03  0.00000000000E+00 0.  1.
         23    2    1    2    0    0 -0.48944189001E+02  0.24492980554E+02 -0.17190274000E+03  0.20270725059E+03  0.92435045784E+02 0.  0.
          5    1    1    2  502    0 -0.23545170840E+02  0.13096727418E+02  0.39596882596E+02  0.48075823969E+02  0.41800000000E+01 0.  1.
         -5    1    1    2    0  502  0.72489359841E+02 -0.37589707972E+02 -0.34076196383E+02  0.88579642106E+02  0.41800000000E+01 0.  1.
        -11    1    3    3    0    0 -0.31567658473E+02  0.41003245981E+02 -0.17106793087E+03  0.17872330630E+03  0.00000000000E+00 0.  1.
         11    1    3    3    0    0 -0.17376530528E+02 -0.16510265427E+02 -0.83480913457E+00  0.23983944296E+02  0.00000000000E+00 0. -1.
</event>
<event>
 7    1  0.4687179E-006  0.1419174E+03  0.7561462E-02  0.1210772E+00
          1   -1    0    0  501    0  0.00000000000E+00  0.00000000000E+00  0.54015808457E+03  0.54015808457E+03  0.00000000000E+00 0. -1.
         -1   -1    0    0    0  501 -0.00000000000E+00 -0.00000000000E+00 -0.46352872102E+02  0.46352872102E+02  0.00000000000E+00 0.  1.
         23    2    1    2    0    0 -0.10546226765E+03  0.50271199902E+02  0.20711526945E+03  0.25261293892E+03  0.85247162030E+02 0.  0.
          5    1    1    2  502    0  0.30391386162E+02 -0.72496039626E+02  0.77368863556E+02  0.11037538477E+03  0.41800000000E+01 0.  1.
         -5    1    1    2    0  502  0.75070881490E+02  0.22224839724E+02  0.20932107946E+03  0.22352263298E+03  0.41800000000E+01 0.  1.
        -11    1    3    3    0    0 -0.91682493641E+01  0.25766300592E+02  0.55771502592E+01  0.27911711657E+02  0.00000000000E+00 0.  1.
         11    1    3    3    0    0 -0.96294018287E+02  0.24504899311E+02  0.20153811919E+03  0.22470122727E+03  0.00000000000E+00 0. -1.
</event>
<event>
 7    1  0.4687179E-006  0.1008693E+03  0.7561462E-02  0.1278479E+00
          1   -1    0    0  501    0  0.00000000000E+00  0.00000000000E+00  0.51006068255E+03  0.51006068255E+03  0.00000000000E+00 0. -1.
         -1   -1    0    0    0  501 -0.00000000000E+00 -0.00000000000E+00 -0.28853995797E+02  0.28853995797E+02  0.00000000000E+00 0.  1.
         23    2    1    2    0    0 -0.41405756989E+01  0.42646908023E+02  0.34078747651E+03  0.35518064566E+03  0.90450449252E+02 0.  0.
          5    1    1    2  502    0 -0.42028857678E+02 -0.35097918313E+02  0.27459574708E+02  0.61398610659E+02  0.41800000000E+01 0. -1.
         -5    1    1    2    0  502  0.46169433377E+02 -0.75489897095E+01  0.11295963553E+03  0.12233542203E+03  0.41800000000E+01 0.  1.
        -11    1    3    3    0    0  0.36415016423E+02  0.46560776216E+02  0.21347218647E+03  0.22150470356E+03  0.00000000000E+00 0. -1.
         11    1    3    3    0    0 -0.40555592122E+02 -0.39138681934E+01  0.12731529004E+03  0.13367594210E+03  0.00000000000E+00 0.  1.
</event>
<event>
 7    1  0.4687179E-006  0.1059099E+03  0.7561462E-02  0.1268337E+00
         -1   -1    0    0    0  501 -0.00000000000E+00  0.00000000000E+00  0.20388865538E+03  0.20388865538E+03  0.00000000000E+00 0.  1.
          1   -1    0    0  501    0  0.00000000000E+00 -0.00000000000E+00 -0.69969138827E+02  0.69969138827E+02  0.00000000000E+00 0. -1.
         23    2    1    2    0    0  0.39059003704E+02 -0.27707597476E+02  0.41390425444E+02  0.11105103043E+03  0.91246081083E+02 0.  0.
          5    1    1    2  502    0 -0.55905951316E+02  0.68228473121E+02  0.73081652383E+02  0.11462547820E+03  0.41800000000E+01 0.  1.
         -5    1    1    2    0  502  0.16846947612E+02 -0.40520875645E+02  0.19447438724E+02  0.48181285577E+02  0.41800000000E+01 0.  1.
        -11    1    3    3    0    0  0.67361818919E+01  0.20394232358E+02 -0.18034780546E+02  0.28045573078E+02  0.00000000000E+00 0. -1.
         11    1    3    3    0    0  0.32322821812E+02 -0.48101829834E+02  0.59425205991E+02  0.83005457353E+02  0.00000000000E+00 0.  1.
</event>
<event>
 7    1  0.4687179E-006  0.8472302E+02  0.7561462E-02  0.1316158E+00
         -2   -1    0    0    0  501 -0.00000000000E+00  0.00000000000E+00  0.26785534209E+03  0.26785534209E+03  0.00000000000E+00 0.  1.
          2   -1    0    0  501    0  0.00000000000E+00 -0.00000000000E+00 -0.50660429218E+02  0.50660429218E+02  0.00000000000E+00 0. -1.
         23    2    1    2    0    0 -0.14543460253E+02  0.33936157751E+02  0.61969594846E+02  0.11577335786E+03  0.90554208432E+02 0.  0.
          5    1    1    2  502    0  0.66124152870E+02 -0.20252061456E+02  0.12031189393E+03  0.13883433944E+03  0.41800000000E+01 0. -1.
         -5    1    1    2    0  502 -0.51580692617E+02 -0.13684096295E+02  0.34913424094E+02  0.63908074014E+02  0.41800000000E+01 0. -1.
        -11    1    3    3    0    0 -0.18287292345E+01  0.33871163785E+02  0.83858710409E+02  0.90459290834E+02  0.00000000000E+00 0.  1.
         11    1    3    3    0    0 -0.12714731018E+02  0.64993966180E-01 -0.21889115563E+02  0.25314067022E+02  0.00000000000E+00 0. -1.
</event>
<event>
 7    1  0.4687179E-006  0.7156899E+02  0.7561462E-02  0.1354837E+00
         -1   -1    0    0    0  501 -0.00000000000E+00  0.00000000000E+00  0.11367997655E+03  0.11367997655E+03  0.00000000000E+00 0.  1.
          1   -1    0    0  501    0  0.00000000000E+00 -0.00000000000E+00 -0.12567509585E+03  0.12567509585E+03  0.00000000000E+00 0. -1.
         23    2    1    2    0    0  0.12190229810E+02  0.96645014739E+01 -0.51557076011E+02  0.10723971790E+03  0.92737374970E+02 0.  0.
          5    1    1    2  502    0 -0.32599607549E+02  0.29253512222E+02  0.66988059216E+02  0.80145959768E+02  0.41800000000E+01 0.  1.
         -5    1    1    2    0  502  0.20409377738E+02 -0.38918013696E+02 -0.27426102510E+02  0.51969394730E+02  0.41800000000E+01 0.  1.
        -11    1    3    3    0    0  0.19768201983E+02 -0.17740622842E+02  0.18006389463E+02  0.32089586628E+02  0.00000000000E+00 0.  1.
         11    1    3    3    0    0 -0.75779721733E+01  0.27405124316E+02 -0.69563465474E+02  0.75150131269E+02  0.00000000000E+00 0. -1.
</event>
<event>
 7    1  0.4687179E-006  0.1600871E+03  0.7561462E-02  0.1188598E+00
         -2   -1    0    0    0  501 -0.00000000000E+00  0.00000000000E+00  0.31121982071E+03  0.31121982071E+03  0.00000000000E+00 0.  1.
          2   -1    0    0  501    0  0.00000000000E+00 -0.00000000000E+00 -0.22829874035E+03  0.22829874035E+03  0.00000000000E+00 0. -1.
         23    2    1    2    0    0 -0.13514373540E+03  0.43660579260E+01 -0.16815136622E+03  0.22646831216E+03  0.68775888033E+02 0.  0.
          5    1    1    2  502    0 -0.18573707635E+02 -0.17184398788E+00  0.83217162299E+02  0.85367327748E+02  0.41800000000E+01 0. -1.
         -5    1    1    2    0  502  0.15371744303E+03 -0.41942139381E+01  0.16785528427E+03  0.22768292115E+03  0.41800000000E+01 0.  1.
        -11    1    3    3    0    0 -0.54332091056E+02 -0.26934716479E+02 -0.43410168113E+02  0.74578131955E+02  0.00000000000E+00 0. -1.
         11    1    3    3    0    0 -0.80811644342E+02  0.31300774405E+02 -0.12474119810E+03  0.15189018021E+03  0.00000000000E+00 0.  1.
</event>
<event>
 7    1  0.4687179E-006  0.1308407E+03  0.7561462E-02  0.1226214E+00
          2   -1    0    0  501    0  0.00000000000E+00  0.00000000000E+00  0.88465277599E+03  0.88465277599E+03  0.00000000000E+00 0. -1.
         -2   -1    0    0    0  501 -0.00000000000E+00 -0.00000000000E+00 -0.24771354495E+02  0.24771354495E+02  0.00000000000E+00 0.  1.
         23    2    1    2    0    0  0.49173643555E+02  0.86922199198E+02  0.42681882196E+03  0.44772658286E+03  0.91166168511E+02 0.  0.
          5    1    1    2  502    0 -0.84755048102E+02 -0.89734965760E+02  0.35160557419E+03  0.37266571410E+03  0.41800000000E+01 0. -1.
         -5    1    1    2    0  502  0.35581404547E+02  0.28127665623E+01  0.81457025342E+02  0.89031833537E+02  0.41800000000E+01 0. -1.
        -11    1    3    3    0    0  0.57884314523E+01  0.30618324566E+02  0.25794921556E+02  0.40452017452E+02  0.00000000000E+00 0.  1.
         11    1    3    3    0    0  0.43385212103E+02  0.56303874632E+02  0.40102390041E+03  0.40727456540E+03  0.00000000000E+00 0. -1.
</event>
<event>
 7    1  0.4687179E-006  0.1290008E+03  0.7561462E-02  0.1228946E+00
         -2   -1    0    0    0  501 -0.00000000000E+00  0.00000000000E+00  0.72634365573E+02  0.72634365573E+02  0.00000000000E+00 0.  1.
          2   -1    0    0  501    0  0.00000000000E+00 -0.00000000000E+00 -0.24767540824E+03  0.24767540824E+03  0.00000000000E+00 0. -1.
         23    2    1    2    0    0  0.40170561478E+02 -0.62594748323E+02 -0.11197589103E+03  0.16170042813E+03  0.89870193941E+02 0.  0.
          5    1    1    2  502    0 -0.82238073606E+02  0.53324626293E+02 -0.25652102873E+02  0.10140078551E+03  0.41800000000E+01 0. -1.
         -5    1    1    2    0  502  0.42067512128E+02  0.92701220306E+01 -0.37413048758E+02  0.57208560168E+02  0.41800000000E+01 0. -1.
        -11    1    3    3    0    0 -0.21219233455E+02 -0.49489922352E+02 -0.49726959087E+02  0.73295830324E+02  0.00000000000E+00 0. -1.
         11    1    3    3    0    0  0.61389794933E+02 -0.13104825971E+02 -0.62248931944E+02  0.88404597809E+02  0.00000000000E+00 0.  1.
</event>
<event>
 7    1  0.4687179E-006  0.1029674E+03  0.7561462E-02  0.1274177E+00
         -4   -1    0    0    0  501 -0.00000000000E+00  0.00000000000E+00  0.15746316976E+03  0.15746316976E+03  0.00000000000E+00 0.  1.
          4   -1    0    0  501    0  0.00000000000E+00 -0.00000000000E+00 -0.95316992206E+02  0.95316992206E+02  0.00000000000E+00 0. -1.
         23    2    1    2    0    0  0.44792585904E+02  0.11855931990E+02 -0.18657419781E+02  0.96821031491E+02  0.82941388648E+02 0.  0.
          5    1    1    2  502    0 -0.64108103277E+02  0.25724401289E+02  0.53882767569E+01  0.69412532398E+02  0.41800000000E+01 0. -1.
         -5    1    1    2    0  502  0.19315517373E+02 -0.37580333280E+02  0.75415320582E+02  0.86546598080E+02  0.41800000000E+01 0. -1.
        -11    1    3    3    0    0 -0.16638640180E+02  0.26340951051E+02 -0.55643034710E+00  0.31160867511E+02  0.00000000000E+00 0. -1.
         11    1    3    3    0    0  0.61431226084E+02 -0.14485019060E+02 -0.18100989434E+02  0.65660163980E+02  0.00000000000E+00 0.  1.
</event>
<event>
 7    1  0.4687179E-006  0.7493562E+02  0.7561462E-02  0.1344071E+00
          1   -1    0    0  501    0  0.00000000000E+00  0.00000000000E+00  0.11295247285E+03  0.11295247285E+03  0.00000000000E+00 0. -1.
         -1   -1    0    0    0  501 -0.00000000000E+00 -0.00000000000E+00 -0.18371794375E+03  0.18371794375E+03  0.00000000000E+00 0.  1.
         23    2    1    2    0    0  0.44040109979E+02 -0.71369419656E+00  0.63586543194E+02  0.10789123265E+03  0.75214552848E+02 0.  0.
          5    1    1    2  502    0 -0.71041162496E+02 -0.24456980206E+01 -0.14316639975E+03  0.15989658728E+03  0.41800000000E+01 0.  1.
         -5    1    1    2    0  502  0.27001052517E+02  0.31593922171E+01  0.88143856551E+01  0.28882596675E+02  0.41800000000E+01 0.  1.
        -11    1    3    3    0    0  0.24208918969E+02 -0.13349643594E+02 -0.10948607897E+02  0.29734773526E+02  0.00000000000E+00 0.  1.
         11    1    3    3    0    0  0.19831191010E+02  0.12635949397E+02  0.74535151091E+02  0.78156459120E+02  0.00000000000E+00 0. -1.
</event>
<event>
 7    1  0.4687179E-006  0.9129157E+02  0.7561462E-02  0.1299754E+00
          1   -1    0    0  501    0  0.00000000000E+00  0.00000000000E+00  0.29589444732E+03  0.29589444732E+03  0.00000000000E+00 0. -1.
         -1   -1    0    0    0  501 -0.00000000000E+00 -0.00000000000E+00 -0.41582122477E+02  0.41582122477E+02  0.00000000000E+00 0.  1.
         23    2    1    2    0    0 -0.69134719539E+01 -0.12122425007E+02  0.12162487167E+03  0.15458625406E+03  0.94390419299E+02 0.  0.
          5    1    1    2  502    0 -0.56344126316E+02  0.19976295355E+02  0.47817906065E+02  0.76666403900E+02  0.41800000000E+01 0. -1.
         -5    1    1    2    0  502  0.63257598270E+02 -0.78538703487E+01  0.84869547114E+02  0.10622391184E+03  0.41800000000E+01 0. -1.
        -11    1    3    3    0    0  0.20604219489E+02  0.10525743555E+02  0.11626655985E+03  0.11854635413E+03  0.00000000000E+00 0. -1.
         11    1    3    3    0    0 -0.27517691443E+02 -0.22648168562E+02  0.53583118126E+01  0.36039899931E+02  0.00000000000E+00 0.  1.
</event>
<event>
 7    1  0.5808739E-006  0.1199079E+03  0.7561462E-02  0.1243249E+00
         -2   -1    0    0    0  501 -0.00000000000E+00  0.00000000000E+00  0.94186698994E+02  0.94186698994E+02  0.00000000000E+00 0.  1.
          2   -1    0    0  501    0  0.00000000000E+00 -0.00000000000E+00 -0.23918610161E+03  0.23918610161E+03  0.00000000000E+00 0. -1.
         23    2    1    2    0    0 -0.43105106691E+02  0.84447311708E+02 -0.11141564053E+03  0.17285851147E+03  0.92071827154E+02 0.  0.
          5    1    1    2  502    0 -0.23011312757E+02 -0.59227860513E+02 -0.57403727151E+02  0.85732842403E+02  0.41800000000E+01 0.  1.
         -5    1    1    2    0  502  0.66116419448E+02 -0.25219451195E+02  0.23819965065E+02  0.74781446729E+02  0.41800000000E+01 0.  1.
        -11    1    3    3    0    0 -0.11325050660E+02  0.68986243248E+02 -0.11776391843E+03  0.13695144766E+03  0.00000000000E+00 0. -1.
         11    1    3    3    0    0 -0.31780056031E+02  0.15461068460E+02  0.63482779076E+01  0.35907063812E+02  0.00000000000E+00 0.  1.
</event>
<event>
 7    1  0.4687179E-006  0.1224294E+03  0.7561462E-02  0.1239142E+00
          2   -1    0    0  501    0  0.00000000000E+00  0.00000000000E+00  0.10370236010E+04  0.10370236010E+04  0.00000000000E+00 0. -1.
         -2   -1    0    0    0  501 -0.00000000000E+00 -0.00000000000E+00 -0.17712232604E+02  0.17712232604E+02  0.00000000000E+00 0.  1.
         23    2    1    2    0    0 -0.64351490931E+02 -0.19193232983E+02  0.60150423419E+03  0.61346435484E+03  0.10010832300E+03 0.  0.
          5    1    1    2  502    0  0.65009313840E+02  0.56830553146E+02  0.17136346512E+03  0.19193444775E+03  0.41800000000E+01 0. -1.
         -5    1    1    2    0  502 -0.65782290928E+00 -0.37637320163E+02  0.24644366910E+03  0.24933703102E+03  0.41800000000E+01 0. -1.
        -11    1    3    3    0    0 -0.68646049997E+02  0.27277319865E+02  0.37240426296E+03  0.37965940977E+03  0.00000000000E+00 0.  1.
         11    1    3    3    0    0  0.42945590657E+01 -0.46470552848E+02  0.22909997123E+03  0.23380494507E+03  0.00000000000E+00 0. -1.
</event>
<event>
 7    1  0.4687179E-006  0.7758097E+02  0.7561462E-02  0.1336060E+00
          1   -1    0    0  501    0  0.00000000000E+00  0.00000000000E+00  0.15566503042E+03  0.15566503042E+03  0.00000000000E+00 0. -1.
         -1   -1    0    0    0  501 -0.00000000000E+00 -0.00000000000E+00 -0.90919238335E+02  0.90919238335E+02  0.00000000000E+00 0.  1.
         23    2    1    2    0    0  0.16844967223E+02  0.99375520246E+01  0.89128505431E+02  0.12914843574E+03  0.91394311156E+02 0.  0.
          5    1    1    2  502    0 -0.11498912139E+01 -0.33186241242E+02  0.36955787552E+02  0.49858314163E+02  0.41800000000E+01 0. -1.
         -5    1    1    2    0  502 -0.15695076009E+02  0.23248689217E+02 -0.61338500903E+02  0.67577518852E+02  0.41800000000E+01 0.  1.
        -11    1    3    3    0    0  0.52235718448E+02  0.20932886038E+02  0.57046700867E+02  0.80131654666E+02  0.00000000000E+00 0. -1.
         11    1    3    3    0    0 -0.35390751225E+02 -0.10995334014E+02  0.32081804564E+02  0.49016781070E+02  0.00000000000E+00 0.  1.
</event>
<event>
 7    1  0.4687179E-006  0.1126684E+03  0.7561462E-02  0.1255707E+00
          2   -1    0    0  501    0  0.00000000000E+00  0.00000000000E+00  0.22980526554E+03  0.22980526554E+03  0.00000000000E+00 0. -1.
         -2   -1    0    0    0  501 -0.00000000000E+00 -0.00000000000E+00 -0.75293461994E+02  0.75293461994E+02  0.00000000000E+00 0.  1.
         23    2    1    2    0    0  0.39817311228E+02  0.57649927769E+02  0.95432796429E+02  0.15001992181E+03  0.92139165724E+02 0.  0.
          5    1    1    2  502    0 -0.71299959271E+02 -0.76987872059E+02  0.34631459077E+02  0.11057860098E+03  0.41800000000E+01 0. -1.
         -5    1    1    2    0  502  0.31482648044E+02  0.19337944291E+02  0.24447548037E+02  0.44500204744E+02  0.41800000000E+01 0. -1.
        -11    1    3    3    0    0  0.33557124958E+02  0.99105560531E+01 -0.80325661714E+01  0.35900165404E+02  0.00000000000E+00 0.  1.
         11    1    3    3    0    0  0.62601862691E+01  0.47739371716E+02  0.10346536260E+03  0.11411975641E+03  0.00000000000E+00 0. -1.
</event>
<event>
 7    1  0.4687179E-006  0.1077865E+03  0.7561462E-02  0.1264725E+00
          3   -1    0    0  501    0  0.00000000000E+00  0.00000000000E+00  0.29626785603E+03  0.29626785603E+03  0.00000000000E+00 0. -1.
         -3   -1    0    0    0  501 -0.00000000000E+00 -0.00000000000E+00 -0.40848330519E+02  0.40848330519E+02  0.00000000000E+00 0.  1.
         23    2    1    2    0    0  0.15173175600E+02 -0.22278295145E+01  0.13682641796E+03  0.16405937819E+03  0.89212232557E+02 0.  0.
          5    1    1    2  502    0 -0.69735539483E+02 -0.40182045704E+01  0.76942157354E+02  0.10400365096E+03  0.41800000000E+01 0.  1.
         -5    1    1    2    0  502  0.54562363882E+02  0.62460340849E+01  0.41650950190E+02  0.69053157393E+02  0.41800000000E+01 0.  1.
        -11    1    3    3    0    0  0.40848079661E+02 -0.31499691652E+02  0.77506737387E+02  0.93102580665E+02  0.00000000000E+00 0. -1.
         11    1    3    3    0    0 -0.25674904061E+02  0.29271862137E+02  0.59319680577E+02  0.70956797527E+02  0.00000000000E+00 0.  1.
</event>
<event>
 7    1  0.4687179E-006  0.1125453E+03  0.7561462E-02  0.1255928E+00
          1   -1    0    0  501    0  0.00000000000E+00  0.00000000000E+00  0.44144414546E+03  0.44144414546E+03  0.00000000000E+00 0. -1.
         -1   -1    0    0    0  501 -0.00000000000E+00 -0.00000000000E+00 -0.39637365478E+02  0.39637365478E+02  0.00000000000E+00 0.  1.
         23    2    1    2    0    0 -0.38160319960E+02 -0.35942876979E+02  0.25041150018E+03  0.27782164166E+03  0.10830902423E+03 0.  0.
          5    1    1    2  502    0  0.68302565746E+02  0.26811958492E+02  0.15474625024E+03  0.17131256804E+03  0.41800000000E+01 0.  1.
         -5    1    1    2    0  502 -0.30142245786E+02  0.91309184866E+01 -0.33509704314E+01  0.31947301236E+02  0.41800000000E+01 0.  1.
        -11    1    3    3    0    0 -0.57555307893E+02  0.19750812294E+02  0.11444466337E+03  0.12961592891E+03  0.00000000000E+00 0.  1.
         11    1    3    3    0    0  0.19394987933E+02 -0.55693689273E+02  0.13596683681E+03  0.14820571276E+03  0.00000000000E+00 0. -1.
</event>
<event>
 7    1  0.4769956E-006  0.2152453E+03  0.7561462E-02  0.1137478E+00
          2   -1    0    0  501    0  0.00000000000E+00  0.00000000000E+00  0.57642083052E+03  0.57642083052E+03  0.00000000000E+00 0.  1.
         -2   -1    0    0    0  501 -0.00000000000E+00 -0.00000000000E+00 -0.13890377847E+03  0.13890377847E+03  0.00000000000E+00 0. -1.
         23    2    1    2    0    0 -0.19248659023E+03 -0.59708412740E+02  0.42341010145E+03  0.47770597459E+03  0.91163052682E+02 0.  0.
          5    1    1    2  502    0  0.43638467492E+02  0.62933921877E+02 -0.29888114882E+02  0.82315042240E+02  0.41800000000E+01 0. -1.
         -5    1    1    2    0  502  0.14884812274E+03 -0.32255091367E+01  0.43995065475E+02  0.15530359217E+03  0.41800000000E+01 0. -1.
        -11    1    3    3    0    0 -0.11242790118E+03 -0.53625406892E+02  0.16266650200E+03  0.20488071676E+03  0.00000000000E+00 0. -1.
         11    1    3    3    0    0 -0.80058689059E+02 -0.60830058478E+01  0.26074359945E+03  0.27282525783E+03  0.00000000000E+00 0.  1.
</event>
<event>
 7    1  0.4687179E-006  0.1135285E+03  0.7561462E-02  0.1254172E+00
         -2   -1    0    0    0  501 -0.00000000000E+00  0.00000000000E+00  0.15052450973E+02  0.15052450973E+02  0.00000000000E+00 0.  1.
          2   -1    0    0  501    0  0.00000000000E+00 -0.00000000000E+00 -0.11213402192E+04  0.11213402192E+04  0.00000000000E+00 0. -1.
         23    2    1    2    0    0 -0.46897546650E+02 -0.50500750318E+02 -0.40056549117E+03  0.41636450181E+03  0.90316000743E+02 0.  0.
          5    1    1    2  502    0 -0.19964256866E+02  0.45263966810E+02 -0.52283302870E+03  0.52518496412E+03  0.41800000000E+01 0. -1.
         -5    1    1    2    0  502  0.66861803516E+02  0.52367835079E+01 -0.18288924832E+03  0.19484320420E+03  0.41800000000E+01 0. -1.
        -11    1    3    3    0    0  0.25490325529E+02 -0.15172419765E+02 -0.68095344423E+02  0.74276072521E+02  0.00000000000E+00 0. -1.
         11    1    3    3    0    0 -0.72387872178E+02 -0.35328330553E+02 -0.33247014675E+03  0.34208842929E+03  0.00000000000E+00 0.  1.
</event>
<event>
 7    1  0.4687179E-006  0.1359814E+03  0.7561462E-02  0.1218841E+00
          2   -1    0    0  501    0  0.00000000000E+00  0.00000000000E+00  0.15741618872E+03  0.15741618872E+03  0.00000000000E+00 0. -1.
         -2   -1    0    0    0  501 -0.00000000000E+00 -0.00000000000E+00 -0.14029081437E+03  0.14029081437E+03  0.00000000000E+00 0.  1.
         23    2    1    2    0    0  0.84568707180E+02  0.42902983210E+02  0.40636358465E+02  0.13898822803E+03  0.93133676509E+02 0.  0.
          5    1    1    2  502    0 -0.11565809700E+03 -0.23302416410E+02 -0.71495822815E+01  0.11827251134E+03  0.41800000000E+01 0. -1.
         -5    1    1    2    0  502  0.31089389822E+02 -0.19600566800E+02 -0.16361401836E+02  0.40446263714E+02  0.41800000000E+01 0. -1.
        -11    1    3    3    0    0  0.66065527801E+01  0.38250144829E+02  0.46613228301E+02  0.60658990856E+02  0.00000000000E+00 0. -1.
         11    1    3    3    0    0  0.77962154399E+02  0.46528383807E+01 -0.59768698359E+01  0.78329237176E+02  0.00000000000E+00 0.  1.
</event>
<event>
 7    1  0.4687179E-006  0.7041209E+02  0.7561462E-02  0.1358697E+00
          2   -1    0    0  501    0  0.00000000000E+00  0.00000000000E+00  0.10171328937E+03  0.10171328937E+03  0.00000000000E+00 0.  1.
         -2   -1    0    0    0  501 -0.00000000000E+00 -0.00000000000E+00 -0.12865820392E+03  0.12865820392E+03  0.00000000000E+00 0. -1.
         23    2    1    2    0    0  0.34986123328E+02  0.90157390180E+01 -0.20932025783E+02  0.10003228764E+03  0.90901025795E+02 0.  0.
          5    1    1    2  502    0 -0.44953284182E+02 -0.18774801719E+01 -0.59835175401E+02  0.74980286115E+02  0.41800000000E+01 0. -1.
         -5    1    1    2    0  502  0.99671608543E+01 -0.71382588461E+01  0.53822286628E+02  0.55358919541E+02  0.41800000000E+01 0. -1.
        -11    1    3    3    0    0  0.37823409991E+02  0.37968952497E+02  0.13189357198E+02  0.55192488985E+02  0.00000000000E+00 0.  1.
         11    1    3    3    0    0 -0.28372866634E+01 -0.28953213479E+02 -0.34121382981E+02  0.44839798650E+02  0.00000000000E+00 0. -1.
</event>
<event>
 7    1  0.4687179E-006  0.1278748E+03  0.7561462E-02  0.1230644E+00
          1   -1    0    0  501    0  0.00000000000E+00  0.00000000000E+00  0.38453228229E+02  0.38453228229E+02  0.00000000000E+00 0.  1.
         -1   -1    0    0    0  501 -0.00000000000E+00 -0.00000000000E+00 -0.60462058990E+03  0.60462058990E+03  0.00000000000E+00 0. -1.
         23    2    1    2    0    0 -0.37913244831E+02 -0.66762735316E+02 -0.10703226851E+03  0.16105333724E+03  0.92669271990E+02 0.  0.
          5    1    1    2  502    0  0.62244432886E+02  0.84502426549E+02 -0.25737122619E+03  0.27797922582E+03  0.41800000000E+01 0.  1.
         -5    1    1    2    0  502 -0.24331188055E+02 -0.17739691232E+02 -0.20176386697E+03  0.20404125507E+03  0.41800000000E+01 0.  1.
        -11    1    3    3    0    0  0.30921766335E+02 -0.25321018921E+02 -0.33905368586E+02  0.52410720768E+02  0.00000000000E+00 0. -1.
         11    1    3    3    0    0 -0.68835011166E+02 -0.41441716395E+02 -0.73126899928E+02  0.10864261647E+03  0.00000000000E+00 0.  1.
</event>
<event>
 7    1  0.4687179E-006  0.5531337E+02  0.7561462E-02  0.1418623E+00
          2   -1    0    0  501    0  0.00000000000E+00  0.00000000000E+00  0.42919187423E+02  0.42919187423E+02  0.00000000000E+00 0. -1.
         -2   -1    0    0    0  501 -0.00000000000E+00 -0.00000000000E+00 -0.32062310243E+03  0.32062310243E+03  0.00000000000E+00 0.  1.
         23    2    1    2    0    0  0.41755401360E+02 -0.15263788253E+02 -0.10049341017E+03  0.14211921817E+03  0.90124635432E+02 0.  0.
          5    1    1    2  502    0 -0.10180994362E+02  0.63668743640E+01  0.18770624216E+02  0.22671534329E+02  0.41800000000E+01 0.  1.
         -5    1    1    2    0  502 -0.31574406997E+02  0.88969138888E+01 -0.19598112906E+03  0.19875153736E+03  0.41800000000E+01 0.  1.
        -11    1    3    3    0    0  0.50750818139E+02 -0.20151698122E+02 -0.11327111558E+03  0.12574610174E+03  0.00000000000E+00 0.  1.
         11    1    3    3    0    0 -0.89954167795E+01  0.48879098688E+01  0.12777705413E+02  0.16373116427E+02  0.00000000000E+00 0. -1.
</event>
<event>
 7    1  0.4687179E-006  0.1373663E+03  0.7561462E-02  0.1216917E+00
         -1   -1    0    0    0  501 -0.00000000000E+00  0.00000000000E+00  0.68364591329E+02  0.68364591329E+02  0.00000000000E+00 0.  1.
          1   -1    0    0  501    0  0.00000000000E+00 -0.00000000000E+00 -0.30456124827E+03  0.30456124827E+03  0.00000000000E+00 0. -1.
         23    2    1    2    0    0 -0.57704190385E+02 -0.73855956483E+02 -0.13233107982E+03  0.18525596815E+03  0.89575572305E+02 0.  0.
          5    1    1    2  502    0  0.28093380160E+02 -0.28190870368E+02 -0.61133807221E+02  0.73066941678E+02  0.41800000000E+01 0.  1.
         -5    1    1    2    0  502  0.29610810225E+02  0.10204682685E+03 -0.42731769901E+02  0.11460292977E+03  0.41800000000E+01 0.  1.
        -11    1    3    3    0    0 -0.18853292675E+02  0.19582304524E+02 -0.39384471408E+02  0.47854465657E+02  0.00000000000E+00 0. -1.
         11    1    3    3    0    0 -0.38850897710E+02 -0.93438261007E+02 -0.92946608407E+02  0.13740150249E+03  0.00000000000E+00 0.  1.
</event>
<event>
 7    1  0.4687179E-006  0.2226836E+03  0.7561462E-02  0.1131898E+00
         -2   -1    0    0    0  501 -0.00000000000E+00  0.00000000000E+00  0.81270304588E+03  0.81270304588E+03  0.00000000000E+00 0.  1.
          2   -1    0    0  501    0  0.00000000000E+00 -0.00000000000E+00 -0.12310719618E+03  0.12310719618E+03  0.00000000000E+00 0. -1.
         23    2    1    2    0    0  0.19428748547E+03  0.43174015829E+02  0.11222496650E+02  0.21786181115E+03  0.87898814964E+02 0.  0.
          5    1    1    2  502    0 -0.13880650731E+03 -0.87320323785E+02  0.47076995628E+03  0.49853175381E+03  0.41800000000E+01 0. -1.
         -5    1    1    2    0  502 -0.55480978166E+02  0.44146307957E+02  0.20760339676E+03  0.21941667710E+03  0.41800000000E+01 0. -1.
        -11    1    3    3    0    0  0.15793311139E+03  0.61627902829E+02  0.31331764805E+02  0.17240227831E+03  0.00000000000E+00 0.  1.
         11    1    3    3    0    0  0.36354374088E+02 -0.18453887001E+02 -0.20109268154E+02  0.45459532845E+02  0.00000000000E+00 0. -1.
</event>
<event>
 7    1  0.4687179E-006  0.1194742E+03  0.7561462E-02  0.1243967E+00
          2   -1    0    0  501    0  0.00000000000E+00  0.00000000000E+00  0.48419384166E+03  0.48419384166E+03  0.00000000000E+00 0. -1.
         -2   -1    0    0    0  501 -0.00000000000E+00 -0.00000000000E+00 -0.36175593001E+02  0.36175593001E+02  0.00000000000E+00 0.  1.
         23    2    1    2    0    0  0.53836556780E+02 -0.70768908365E+01  0.29599174808E+03  0.31614270273E+03  0.96884654766E+02 0.  0.
          5    1    1    2  502    0 -0.44877891954E+02  0.63986383480E+02  0.94539293363E+02  0.12273317745E+03  0.41800000000E+01 0. -1.
         -5    1    1    2    0  502 -0.89586648255E+01 -0.56909492644E+02  0.57487207217E+02  0.81493554482E+02  0.41800000000E+01 0. -1.
        -11    1    3    3    0    0 -0.23271347024E+02  0.74911789285E+01  0.29373420785E+02  0.38216111820E+02  0.00000000000E+00 0. -1.
         11    1    3    3    0    0  0.77107903804E+02 -0.14568069765E+02  0.26661832729E+03  0.27792659091E+03  0.00000000000E+00 0.  1.
</event>
<event>
 7    1  0.4687179E-006  0.1087042E+03  0.7561462E-02  0.1262988E+00
          1   -1    0    0  501    0  0.00000000000E+00  0.00000000000E+00  0.51035863508E+02  0.51035863508E+02  0.00000000000E+00 0. -1.
         -1   -1    0    0    0  501 -0.00000000000E+00 -0.00000000000E+00 -0.31589465185E+03  0.31589465185E+03  0.00000000000E+00 0.  1.
         23    2    1    2    0    0  0.15796716270E+01  0.22398262998E+02 -0.34728726078E+02  0.10404140235E+03  0.95469112488E+02 0.  0.
          5    1    1    2  502    0 -0.54892165574E+02 -0.34019321723E+02 -0.16833581518E+03  0.18034656405E+03  0.41800000000E+01 0.  1.
         -5    1    1    2    0  502  0.53312493947E+02  0.11621058725E+02 -0.61794247083E+02  0.82542548963E+02  0.41800000000E+01 0.  1.
        -11    1    3    3    0    0 -0.41462516813E+02 -0.11673408056E+02 -0.12893662858E+02  0.44962821286E+02  0.00000000000E+00 0. -1.
         11    1    3    3    0    0  0.43042188440E+02  0.34071671054E+02 -0.21835063220E+02  0.59078581059E+02  0.00000000000E+00 0.  1.
</event>
<event>
 7    1  0.4687179E-006  0.1331093E+03  0.7561462E-02  0.1222914E+00
         -1   -1    0    0    0  501 -0.00000000000E+00  0.00000000000E+00  0.54747666136E+02  0.54747666136E+02  0.00000000000E+00 0.  1.
          1   -1    0    0  501    0  0.00000000000E+00 -0.00000000000E+00 -0.50197814328E+03  0.50197814328E+03  0.00000000000E+00 0. -1.
         23    2    1    2    0    0 -0.92815261313E+02 -0.82783430687E+02 -0.20427194379E+03  0.25648543036E+03  0.92682144093E+02 0.  0.
          5    1    1    2  502    0  0.67448177407E+02  0.46440704942E+02 -0.24221446214E+03  0.25571725358E+03  0.41800000000E+01 0. -1.
         -5    1    1    2    0  502  0.25367083907E+02  0.36342725746E+02 -0.74407121396E+00  0.44523125480E+02  0.41800000000E+01 0. -1.
        -11    1    3    3    0    0 -0.48512155988E+02 -0.82141230469E+02 -0.18504044908E+03  0.20818400230E+03  0.00000000000E+00 0. -1.
         11    1    3    3    0    0 -0.44303105325E+02 -0.64220021845E+00 -0.19231494719E+02  0.48301428050E+02  0.00000000000E+00 0.  1.
</event>
<event>
 7    1  0.4687179E-006  0.1074357E+03  0.7561462E-02  0.1265394E+00
         -2   -1    0    0    0  501 -0.00000000000E+00  0.00000000000E+00  0.14058698118E+02  0.14058698118E+02  0.00000000000E+00 0. -1.
          2   -1    0    0  501    0  0.00000000000E+00 -0.00000000000E+00 -0.13865711730E+04  0.13865711730E+04  0.00000000000E+00 0.  1.
         23    2    1    2    0    0  0.52817773543E+02  0.69999106737E+02 -0.68022213945E+03  0.69168477744E+03  0.89644186661E+02 0.  0.
          5    1    1    2  502    0 -0.46090297543E+02 -0.50552148156E+02 -0.68222560497E+03  0.68565959753E+03  0.41800000000E+01 0.  1.
         -5    1    1    2    0  502 -0.67274759996E+01 -0.19446958582E+02 -0.10064730463E+02  0.23285496145E+02  0.41800000000E+01 0.  1.
        -11    1    3    3    0    0  0.18533336960E+02  0.85661872910E+02 -0.48576300686E+03  0.49360625997E+03  0.00000000000E+00 0.  1.
         11    1    3    3    0    0  0.34284436583E+02 -0.15662766173E+02 -0.19445913259E+03  0.19807851747E+03  0.00000000000E+00 0. -1.
</event>
<event>
 7    1  0.4726730E-006  0.1621194E+03  0.7561462E-02  0.1186325E+00
          2   -1    0    0  501    0  0.00000000000E+00  0.00000000000E+00  0.81396949865E+03  0.81396949865E+03  0.00000000000E+00 0. -1.
         -2   -1    0    0    0  501 -0.00000000000E+00 -0.00000000000E+00 -0.42225489237E+02  0.42225489237E+02  0.00000000000E+00 0.  1.
         23    2    1    2    0    0 -0.12238075551E+03  0.24184823226E+02  0.55785301584E+03  0.57878004799E+03  0.90688486986E+02 0.  0.
          5    1    1    2  502    0  0.13727066652E+03  0.68408188195E+01  0.19288742955E+03  0.23688196547E+03  0.41800000000E+01 0.  1.
         -5    1    1    2    0  502 -0.14889911011E+02 -0.31025642046E+02  0.21003564020E+02  0.40532974426E+02  0.41800000000E+01 0.  1.
        -11    1    3    3    0    0 -0.69710258429E+02 -0.30546423837E+02  0.32746543280E+03  0.33619371472E+03  0.00000000000E+00 0. -1.
         11    1    3    3    0    0 -0.52670497078E+02  0.54731247063E+02  0.23038758304E+03  0.24258633326E+03  0.00000000000E+00 0.  1.
</event>
<event>
 7    1  0.4687179E-006  0.1029622E+03  0.7561462E-02  0.1274187E+00
          1   -1    0    0  501    0  0.00000000000E+00  0.00000000000E+00  0.29652754114E+03  0.29652754114E+03  0.00000000000E+00 0. -1.
         -1   -1    0    0    0  501 -0.00000000000E+00 -0.00000000000E+00 -0.40211395453E+02  0.40211395453E+02  0.00000000000E+00 0.  1.
         23    2    1    2    0    0 -0.16390900684E+02  0.76874878335E+01  0.12129459511E+03  0.15179059044E+03  0.89444091189E+02 0.  0.
          5    1    1    2  502    0  0.55095714859E+02 -0.40095631638E+02  0.10737688045E+03  0.12724175544E+03  0.41800000000E+01 0. -1.
         -5    1    1    2    0  502 -0.38704814176E+02  0.32408143804E+02  0.27644670124E+02  0.57706590711E+02  0.41800000000E+01 0. -1.
        -11    1    3    3    0    0 -0.69035575363E+01 -0.38874448085E+02  0.32736246017E+02  0.51288825526E+02  0.00000000000E+00 0.  1.
         11    1    3    3    0    0 -0.94873431474E+01  0.46561935919E+02  0.88558349093E+02  0.10050176491E+03  0.00000000000E+00 0. -1.
</event>
<event>
 7    1  0.4687179E-006  0.1752909E+03  0.7561462E-02  0.1172440E+00
          1   -1    0    0  501    0  0.00000000000E+00  0.00000000000E+00  0.73823626865E+02  0.73823626865E+02  0.00000000000E+00 0. -1.
         -1   -1    0    0    0  501 -0.00000000000E+00 -0.00000000000E+00 -0.64302331286E+03  0.64302331286E+03  0.00000000000E+00 0.  1.
         23    2    1    2    0    0  0.16958631514E+03  0.23107678380E+02 -0.13894900321E+03  0.23720440408E+03  0.87553530693E+02 0.  0.
          5    1    1    2  502    0 -0.15617141213E+03 -0.77859466167E+01 -0.43133833827E+03  0.45882498340E+03  0.41800000000E+01 0. -1.
         -5    1    1    2    0  502 -0.13414903011E+02 -0.15321731763E+02  0.10876554819E+01  0.20817552245E+02  0.41800000000E+01 0. -1.
        -11    1    3    3    0    0  0.31262435203E+02 -0.64595239860E+01 -0.75900578281E+02  0.82340531261E+02  0.00000000000E+00 0.  1.
         11    1    3    3    0    0  0.13832387994E+03  0.29567202366E+02 -0.63048424924E+02  0.15486387281E+03  0.00000000000E+00 0. -1.
</event>
<event>
 7    1  0.4687179E-006  0.1077263E+03  0.7561462E-02  0.1264839E+00
         -4   -1    0    0    0  501 -0.00000000000E+00  0.00000000000E+00  0.65253380325E+02  0.65253380325E+02  0.00000000000E+00 0.  1.
          4   -1    0    0  501    0  0.00000000000E+00 -0.00000000000E+00 -0.19550998252E+03  0.19550998252E+03  0.00000000000E+00 0. -1.
         23    2    1    2    0    0  0.12279898528E+02 -0.18526811332E+02 -0.82006331712E+02  0.12485595726E+03  0.91487337797E+02 0.  0.
          5    1    1    2  502    0  0.39452073883E+02 -0.34422515201E+02 -0.14819896154E+02  0.54575428615E+02  0.41800000000E+01 0. -1.
         -5    1    1    2    0  502 -0.51731972411E+02  0.52949326534E+02 -0.33430374332E+02  0.81331976970E+02  0.41800000000E+01 0. -1.
        -11    1    3    3    0    0  0.22588410244E+01 -0.52916194613E+02 -0.27619778598E+02  0.59733392544E+02  0.00000000000E+00 0.  1.
         11    1    3    3    0    0  0.10021057503E+02  0.34389383281E+02 -0.54386553114E+02  0.65122564718E+02  0.00000000000E+00 0. -1.
</event>
<event>
 7    1  0.4687179E-006  0.1066696E+03  0.7561462E-02  0.1266865E+00
         -1   -1    0    0    0  501 -0.00000000000E+00  0.00000000000E+00  0.17243390087E+03  0.17243390087E+03  0.00000000000E+00 0.  1.
          1   -1    0    0  501    0  0.00000000000E+00 -0.00000000000E+00 -0.95216984308E+02  0.95216984308E+02  0.00000000000E+00 0. -1.
         23    2    1    2    0    0 -0.33499768005E+02  0.38118414019E+02 -0.12810215526E+02  0.10539276942E+03  0.91478337771E+02 0.  0.
          5    1    1    2  502    0 -0.34684143407E+02  0.24212382916E+02  0.29334743521E+02  0.51645221152E+02  0.41800000000E+01 0.  1.
         -5    1    1    2    0  502  0.68183911412E+02 -0.62330796935E+02  0.60692388565E+02  0.11061289460E+03  0.41800000000E+01 0.  1.
        -11    1    3    3    0    0 -0.40301600410E+02  0.50271477653E+02  0.21852728857E+02  0.68036624105E+02  0.00000000000E+00 0.  1.
         11    1    3    3    0    0  0.68018324051E+01 -0.12153063634E+02 -0.34662944383E+02  0.37356145319E+02  0.00000000000E+00 0. -1.
</event>
<event>
 7    1  0.4687179E-006  0.9128977E+02  0.7561462E-02  0.1299758E+00
          1   -1    0    0  501    0  0.00000000000E+00  0.00000000000E+00  0.12879394609E+04  0.12879394609E+04  0.00000000000E+00 0. -1.
         -1   -1    0    0    0  501 -0.00000000000E+00 -0.00000000000E+00 -0.12145886991E+02  0.12145886991E+02  0.00000000000E+00 0.  1.
         23    2    1    2    0    0  0.57936645043E+02  0.20703048280E+02  0.49718883800E+03  0.50909995855E+03  0.90558026252E+02 0.  0.
          5    1    1    2  502    0 -0.38601532576E+02  0.10672960961E+02  0.72314596888E+03  0.72426621841E+03  0.41800000000E+01 0.  1.
         -5    1    1    2    0  502 -0.19335112468E+02 -0.31376009241E+02  0.55458767026E+02  0.66719170934E+02  0.41800000000E+01 0.  1.
        -11    1    3    3    0    0  0.47390893035E+02 -0.28231585533E+02  0.32997413327E+03  0.33455320622E+03  0.00000000000E+00 0. -1.
         11    1    3    3    0    0  0.10545752008E+02  0.48934633814E+02  0.16721470473E+03  0.17454675233E+03  0.00000000000E+00 0.  1.
</event>
<event>
 7    1  0.4687179E-006  0.7375228E+02  0.7561462E-02  0.1347779E+00
         -2   -1    0    0    0  501 -0.00000000000E+00  0.00000000000E+00  0.14978347583E+03  0.14978347583E+03  0.00000000000E+00 0.  1.
          2   -1    0    0  501    0  0.00000000000E+00 -0.00000000000E+00 -0.93099503295E+02  0.93099503295E+02  0.00000000000E+00 0. -1.
         23    2    1    2    0    0  0.12452331723E+02 -0.14365766100E+01 -0.29175336413E+02  0.97450958725E+02  0.92132322146E+02 0.  0.
          5    1    1    2  502    0  0.10795595411E+01 -0.32006094367E+02 -0.16895115330E+02  0.36448221458E+02  0.41800000000E+01 0. -1.
         -5    1    1    2    0  502 -0.13531891264E+02  0.33442670977E+02  0.10275442428E+03  0.10898379895E+03  0.41800000000E+01 0.  1.
        -11    1    3    3    0    0  0.24621355167E+02  0.33683070835E+02  0.10563697479E+02  0.43038960206E+02  0.00000000000E+00 0.  1.
         11    1    3    3    0    0 -0.12169023444E+02 -0.35119647445E+02 -0.39739033892E+02  0.54411998520E+02  0.00000000000E+00 0. -1.
</event>
<event>
 7    1  0.4687179E-006  0.1085373E+03  0.7561462E-02  0.1263303E+00
          3   -1    0    0  501    0  0.00000000000E+00  0.00000000000E+00  0.27855785672E+02  0.27855785672E+02  0.00000000000E+00 0. -1.
         -3   -1    0    0    0  501 -0.00000000000E+00 -0.00000000000E+00 -0.59719136115E+03  0.59719136115E+03  0.00000000000E+00 0.  1.
         23    2    1    2    0    0  0.48496538764E+02  0.86513064898E+01 -0.13842960177E+03  0.17365596937E+03  0.92557450680E+02 0.  0.
          5    1    1    2  502    0  0.37768866192E+02 -0.25647305389E+02 -0.16789115386E+03  0.17403787941E+03  0.41800000000E+01 0. -1.
         -5    1    1    2    0  502 -0.86265404955E+02  0.16995998900E+02 -0.26301481985E+03  0.27735329804E+03  0.41800000000E+01 0. -1.
        -11    1    3    3    0    0  0.33592026511E+02  0.37738356793E+02 -0.26498287105E+02  0.57050565624E+02  0.00000000000E+00 0.  1.
         11    1    3    3    0    0  0.14904512253E+02 -0.29087050303E+02 -0.11193131466E+03  0.11660540374E+03  0.00000000000E+00 0. -1.
</event>
<event>
 7    1  0.4687179E-006  0.1143245E+03  0.7561462E-02  0.1252765E+00
         -1   -1    0    0    0  501 -0.00000000000E+00  0.00000000000E+00  0.40649828505E+02  0.40649828505E+02  0.00000000000E+00 0.  1.
          1   -1    0    0  501    0  0.00000000000E+00 -0.00000000000E+00 -0.44089204811E+03  0.44089204811E+03  0.00000000000E+00 0. -1.
         23    2    1    2    0    0  0.49268433458E+02  0.58993331913E+02 -0.20584689702E+03  0.23793198206E+03  0.91274812116E+02 0.  0.
          5    1    1    2  502    0 -0.79999304160E+01 -0.92787826485E+02 -0.11934858852E+03  0.15144351294E+03  0.41800000000E+01 0. -1.
         -5    1    1    2    0  502 -0.41268503042E+02  0.33794494572E+02 -0.75046734064E+02  0.92166381617E+02  0.41800000000E+01 0. -1.
        -11    1    3    3    0    0  0.64493086983E+01  0.28831433793E+02 -0.45003469030E+01  0.29884749949E+02  0.00000000000E+00 0.  1.
         11    1    3    3    0    0  0.42819124759E+02  0.30161898120E+02 -0.20134655012E+03  0.20804723211E+03  0.00000000000E+00 0. -1.
</event>
<event>
 7    1  0.4687179E-006  0.1126401E+03  0.7561462E-02  0.1255757E+00
         -1   -1    0    0    0  501 -0.00000000000E+00  0.00000000000E+00  0.92570714313E+03  0.92570714313E+03  0.00000000000E+00 0.  1.
          1   -1    0    0  501    0  0.00000000000E+00 -0.00000000000E+00 -0.15422046755E+02  0.15422046755E+02  0.00000000000E+00 0. -1.
         23    2    1    2    0    0 -0.42263171266E+02 -0.42622679099E+01  0.29346678217E+03  0.31032284584E+03  0.91505048171E+02 0.  0.
          5    1    1    2  502    0 -0.80448119007E+01  0.53681791022E+02  0.37326594738E+03  0.37721531459E+03  0.41800000000E+01 0. -1.
         -5    1    1    2    0  502  0.50307983166E+02 -0.49419523113E+02  0.24355236683E+03  0.25359102946E+03  0.41800000000E+01 0. -1.
        -11    1    3    3    0    0  0.27646475737E+02  0.89246624440E+01  0.10239416081E+03  0.10643562086E+03  0.00000000000E+00 0.  1.
         11    1    3    3    0    0 -0.69909647003E+02 -0.13186930354E+02  0.19107262135E+03  0.20388722497E+03  0.00000000000E+00 0. -1.
</event>
<event>
 7    1  0.4687179E-006  0.1122577E+03  0.7561462E-02  0.1256445E+00
          1   -1    0    0  501    0  0.00000000000E+00  0.00000000000E+00  0.59296569090E+02  0.59296569090E+02  0.00000000000E+00 0. -1.
         -1   -1    0    0    0  501 -0.00000000000E+00 -0.00000000000E+00 -0.26203003128E+03  0.26203003128E+03  0.00000000000E+00 0.  1.
         23    2    1    2    0    0  0.38500855899E+02  0.57299143864E+02 -0.61298609728E+02  0.12028616541E+03  0.77108587348E+02 0.  0.
          5    1    1    2  502    0 -0.59866915937E+02 -0.72777107676E+02 -0.52023403313E+02  0.10772400808E+03  0.41800000000E+01 0. -1.
         -5    1    1    2    0  502  0.21366060038E+02  0.15477963812E+02 -0.89411449150E+02  0.93316426873E+02  0.41800000000E+01 0. -1.
        -11    1    3    3    0    0 -0.16845029074E+02  0.43188442511E+02 -0.28682863821E+02  0.54513330921E+02  0.00000000000E+00 0. -1.
         11    1    3    3    0    0  0.55345884974E+02  0.14110701352E+02 -0.32615745907E+02  0.65772834493E+02  0.00000000000E+00 0.  1.
</event>
<event>
 7    1  0.4687179E-006  0.1787101E+03  0.7561462E-02  0.1169057E+00
          1   -1    0    0  501    0  0.00000000000E+00  0.00000000000E+00  0.19983750769E+04  0.19983750769E+04  0.00000000000E+00 0. -1.
         -1   -1    0    0    0  501 -0.00000000000E+00 -0.00000000000E+00 -0.19625677382E+02  0.19625677382E+02  0.00000000000E+00 0.  1.
         23    2    1    2    0    0  0.44375197321E+02 -0.15894429752E+03  0.92798300583E+03  0.94702515764E+03  0.92042067819E+02 0.  0.
          5    1    1    2  502    0 -0.98928188137E+01  0.68931373348E+01  0.51024216630E+01  0.13743737236E+02  0.41800000000E+01 0.  1.
         -5    1    1    2    0  502 -0.34482378507E+02  0.15205116019E+03  0.10456639720E+04  0.10572318594E+04  0.41800000000E+01 0.  1.
        -11    1    3    3    0    0  0.72905417293E+02 -0.10806691133E+03  0.66379113126E+03  0.67647048947E+03  0.00000000000E+00 0.  1.
         11    1    3    3    0    0 -0.28530219972E+02 -0.50877386193E+02  0.26419187457E+03  0.27055466817E+03  0.00000000000E+00 0. -1.
</event>
<event>
 6    1  0.4687179E-006  0.1145086E+03  0.7561462E-02  0.1252441E+00
         -2   -1    0    0    0  501 -0.00000000000E+00  0.00000000000E+00  0.24308462684E+03  0.24308462684E+03  0.00000000000E+00 0.  1.
          2   -1    0    0  501    0  0.00000000000E+00 -0.00000000000E+00 -0.87753936329E+02  0.87753936329E+02  0.00000000000E+00 0. -1.
          5    1    1    2  502    0  0.63529513785E+02 -0.92431877727E+01  0.11627089199E+03  0.13288276173E+03  0.41800000000E+01 0.  1.
         -5    1    1    2    0  502 -0.53161772980E+02 -0.75459421482E+01  0.34274597657E+02  0.63838356760E+02  0.41800000000E+01 0.  1.
        -11    1    1    2    0    0 -0.16748729876E+02  0.62482793001E+02  0.40017805491E+02  0.76066051100E+02  0.00000000000E+00 0.  1.
         11    1    1    2    0    0  0.63809890712E+01 -0.45693663080E+02 -0.35232604626E+02  0.58051393575E+02  0.00000000000E+00 0. -1.
</event>
<event>
 7    1  0.4687179E-006  0.1825586E+03  0.7561462E-02  0.1165350E+00
          1   -1    0    0  501    0  0.00000000000E+00  0.00000000000E+00  0.19401497947E+02  0.19401497947E+02  0.00000000000E+00 0.  1.
         -1   -1    0    0    0  501 -0.00000000000E+00 -0.00000000000E+00 -0.17822173309E+04  0.17822173309E+04  0.00000000000E+00 0. -1.
         23    2    1    2    0    0  0.14116827022E+03 -0.40739324779E+02 -0.70971907291E+03  0.73098917416E+03  0.95162162565E+02 0.  0.
          5    1    1    2  502    0 -0.73717243240E+02 -0.40755771810E+02 -0.37903497767E+03  0.38830432856E+03  0.41800000000E+01 0.  1.
         -5    1    1    2    0  502 -0.67451026983E+02  0.81495096589E+02 -0.67406178242E+03  0.68232532616E+03  0.41800000000E+01 0.  1.
        -11    1    3    3    0    0  0.11485644283E+03  0.12488774358E+02 -0.48267161000E+03  0.49630621097E+03  0.00000000000E+00 0. -1.
         11    1    3    3    0    0  0.26311827393E+02 -0.53228099138E+02 -0.22704746290E+03  0.23468296318E+03  0.00000000000E+00 0.  1.
</event>
<event>
 7    1  0.4687179E-006  0.1300917E+03  0.7561462E-02  0.1227320E+00
          1   -1    0    0  501    0  0.00000000000E+00  0.00000000000E+00  0.51212545827E+03  0.51212545827E+03  0.00000000000E+00 0. -1.
         -1   -1    0    0    0  501 -0.00000000000E+00 -0.00000000000E+00 -0.42156219431E+02  0.42156219431E+02  0.00000000000E+00 0.  1.
         23    2    1    2    0    0 -0.46410931303E+02  0.63742833510E+02  0.32569094424E+03  0.34768564009E+03  0.92701617033E+02 0.  0.
          5    1    1    2  502    0  0.46207021072E+02  0.28137174904E+02  0.68752019386E+02  0.87584827325E+02  0.41800000000E+01 0.  1.
         -5    1    1    2    0  502  0.20391023117E+00 -0.91880008414E+02  0.75526275218E+02  0.11901121029E+03  0.41800000000E+01 0.  1.
        -11    1    3    3    0    0 -0.42674284142E+02  0.83535652391E+02  0.30373345864E+03  0.31788883850E+03  0.00000000000E+00 0. -1.
         11    1    3    3    0    0 -0.37366471612E+01 -0.19792818882E+02  0.21957485601E+02  0.29796801593E+02  0.00000000000E+00 0.  1.
</event>
<event>
 7    1  0.4687179E-006  0.1092372E+03  0.7561462E-02  0.1261989E+00
         -3   -1    0    0    0  501 -0.00000000000E+00  0.00000000000E+00  0.16697267508E+03  0.16697267508E+03  0.00000000000E+00 0.  1.
          3   -1    0    0  501    0  0.00000000000E+00 -0.00000000000E+00 -0.91594305974E+02  0.91594305974E+02  0.00000000000E+00 0. -1.
         23    2    1    2    0    0 -0.69466965124E+02 -0.16348802255E+02  0.96877182513E+01  0.10027619475E+03  0.69774786065E+02 0.  0.
          5    1    1    2  502    0  0.87536629117E+02 -0.18379643302E+02  0.76160738084E+02  0.11755170416E+03  0.41800000000E+01 0.  1.
         -5    1    1    2    0  502 -0.18069663993E+02  0.34728445557E+02 -0.10470087226E+02  0.40739082147E+02  0.41800000000E+01 0.  1.
        -11    1    3    3    0    0 -0.18877270458E+02  0.19820283110E+02 -0.17410383616E+02  0.32439426939E+02  0.00000000000E+00 0. -1.
         11    1    3    3    0    0 -0.50589694666E+02 -0.36169085365E+02  0.27098101867E+02  0.67836767813E+02  0.00000000000E+00 0.  1.
</event>
<event>
 7    1  0.4687179E-006  0.9808828E+02  0.7561462E-02  0.1284368E+00
          1   -1    0    0  501    0  0.00000000000E+00  0.00000000000E+00  0.41703604179E+03  0.41703604179E+03  0.00000000000E+00 0. -1.
         -1   -1    0    0    0  501 -0.00000000000E+00 -0.00000000000E+00 -0.32080702008E+02  0.32080702008E+02  0.00000000000E+00 0.  1.
         23    2    1    2    0    0 -0.41612382336E+02 -0.28781675692E+02  0.19186708661E+03  0.21355443766E+03  0.78946460972E+02 0.  0.
          5    1    1    2  502    0  0.70736354059E+02 -0.65001153632E+01  0.16969280197E+03  0.18400815940E+03  0.41800000000E+01 0.  1.
         -5    1    1    2    0  502 -0.29123971724E+02  0.35281791055E+02  0.23395451199E+02  0.51554146737E+02  0.41800000000E+01 0.  1.
        -11    1    3    3    0    0 -0.52038280913E+02 -0.39976231972E+01  0.62516113375E+02  0.81438492761E+02  0.00000000000E+00 0.  1.
         11    1    3    3    0    0  0.10425898578E+02 -0.24784052495E+02  0.12935097324E+03  0.13211594490E+03  0.00000000000E+00 0. -1.
</event>
<event>
 7    1  0.4687179E-006  0.1256439E+03  0.7561462E-02  0.1234066E+00
          1   -1    0    0  501    0  0.00000000000E+00  0.00000000000E+00  0.16150976687E+03  0.16150976687E+03  0.00000000000E+00 0. -1.
         -1   -1    0    0    0  501 -0.00000000000E+00 -0.00000000000E+00 -0.10629613460E+03  0.10629613460E+03  0.00000000000E+00 0.  1.
         23    2    1    2    0    0 -0.69250278089E+02  0.87933674837E+01  0.39996311643E+01  0.11567966217E+03  0.92156729881E+02 0.  0.
          5    1    1    2  502    0 -0.28266057384E+02 -0.28456408353E+02  0.30161857506E+02  0.50358189251E+02  0.41800000000E+01 0. -1.
         -5    1    1    2    0  502  0.97516335474E+02  0.19663040869E+02  0.21052143597E+02  0.10176805005E+03  0.41800000000E+01 0. -1.
        -11    1    3    3    0    0 -0.42968540304E+02  0.47854814449E+02 -0.13017042819E+02  0.65618763518E+02  0.00000000000E+00 0.  1.
         11    1    3    3    0    0 -0.26281737785E+02 -0.39061446966E+02  0.17016673983E+02  0.50060898649E+02  0.00000000000E+00 0. -1.
</event>
<event>
 6    1  0.4687179E-006  0.1516650E+03  0.7561462E-02  0.1198442E+00
          2   -1    0    0  501    0  0.00000000000E+00  0.00000000000E+00  0.15125217049E+04  0.15125217049E+04  0.00000000000E+00 0. -1.
         -2   -1    0    0    0  501 -0.00000000000E+00 -0.00000000000E+00 -0.59548499849E+02  0.59548499849E+02  0.00000000000E+00 0.  1.
          5    1    1    2  502    0 -0.12400799498E+02 -0.22183343085E+02  0.10126164963E+04  0.10129439873E+04  0.41800000000E+01 0. -1.
         -5    1    1    2    0  502 -0.83163365778E+02  0.11615160952E+03  0.59952444705E+02  0.15498099828E+03  0.41800000000E+01 0.  1.
        -11    1    1    2    0    0  0.65612977996E+02 -0.72665015003E+02  0.30367680083E+03  0.31906874910E+03  0.00000000000E+00 0.  1.
         11    1    1    2    0    0  0.29951187280E+02 -0.21303251428E+02  0.76727463279E+02  0.85076470085E+02  0.00000000000E+00 0. -1.
</event>
<event>
 7    1  0.4687179E-006  0.1507243E+03  0.7561462E-02  0.1199586E+00
         -1   -1    0    0    0  501 -0.00000000000E+00  0.00000000000E+00  0.15360764199E+03  0.15360764199E+03  0.00000000000E+00 0.  1.
          1   -1    0    0  501    0  0.00000000000E+00 -0.00000000000E+00 -0.20761675706E+03  0.20761675706E+03  0.00000000000E+00 0. -1.
         23    2    1    2    0    0 -0.11835951685E+03 -0.39101001057E+02 -0.92666127470E+02  0.18044653966E+03  0.91848130001E+02 0.  0.
          5    1    1    2  502    0  0.10266710344E+03 -0.15714338582E+02  0.59684450354E+02  0.11986317441E+03  0.41800000000E+01 0.  1.
         -5    1    1    2    0  502  0.15692413410E+02  0.54815339639E+02 -0.21027437954E+02  0.60914684972E+02  0.41800000000E+01 0.  1.
        -11    1    3    3    0    0 -0.11371164570E+03 -0.13729316442E+02 -0.10164384629E+03  0.15313492086E+03  0.00000000000E+00 0. -1.
         11    1    3    3    0    0 -0.46478711443E+01 -0.25371684614E+02  0.89777188227E+01  0.27311618802E+02  0.00000000000E+00 0.  1.
</event>
<event>
 7    1  0.4687179E-006  0.1072405E+03  0.7561462E-02  0.1265767E+00
          2   -1    0    0  501    0  0.00000000000E+00  0.00000000000E+00  0.16859550672E+03  0.16859550672E+03  0.00000000000E+00 0. -1.
         -2   -1    0    0    0  501 -0.00000000000E+00 -0.00000000000E+00 -0.80836007924E+02  0.80836007924E+02  0.00000000000E+00 0.  1.
         23    2    1    2    0    0  0.16833315683E+02  0.23446015880E+02  0.81465308004E+02  0.12090352653E+03  0.84545787253E+02 0.  0.
          5    1    1    2  502    0  0.13849920217E+01 -0.73116175354E+02  0.14942419772E+02  0.74757217778E+02  0.41800000000E+01 0.  1.
         -5    1    1    2    0  502 -0.18218307704E+02  0.49670159474E+02 -0.86482289806E+01  0.53770770334E+02  0.41800000000E+01 0.  1.
        -11    1    3    3    0    0 -0.28531754727E+02  0.31044918652E+02  0.48772216799E+02  0.64471521879E+02  0.00000000000E+00 0.  1.
         11    1    3    3    0    0  0.45365070410E+02 -0.75989027726E+01  0.32693091205E+02  0.56432004653E+02  0.00000000000E+00 0. -1.
</event>
<event>
 7    1  0.4687179E-006  0.2174252E+03  0.7561462E-02  0.1135817E+00
         -1   -1    0    0    0  501 -0.00000000000E+00  0.00000000000E+00  0.12333793655E+03  0.12333793655E+03  0.00000000000E+00 0.  1.
          1   -1    0    0  501    0  0.00000000000E+00 -0.00000000000E+00 -0.72153117885E+03  0.72153117885E+03  0.00000000000E+00 0. -1.
         23    2    1    2    0    0  0.11191891019E+03  0.16959016007E+03 -0.56041468602E+03  0.60330973399E+03  0.92905058864E+02 0.  0.
          5    1    1    2  502    0 -0.39791735114E+02 -0.11551963658E+03 -0.75571280712E+02  0.14372424808E+03  0.41800000000E+01 0.  1.
         -5    1    1    2    0  502 -0.72127175072E+02 -0.54070523487E+02  0.37792724439E+02  0.97835133334E+02  0.41800000000E+01 0.  1.
        -11    1    3    3    0    0  0.61191312996E+02  0.19964003123E+02 -0.19007442320E+03  0.20067691586E+03  0.00000000000E+00 0. -1.
         11    1    3    3    0    0  0.50727597190E+02  0.14962615694E+03 -0.37034026282E+03  0.40263281812E+03  0.00000000000E+00 0.  1.
</event>
<event>
 7    1  0.4687179E-006  0.1046869E+03  0.7561462E-02  0.1270738E+00
         -2   -1    0    0    0  501 -0.00000000000E+00  0.00000000000E+00  0.65809278540E+02  0.65809278540E+02  0.00000000000E+00 0.  1.
          2   -1    0    0  501    0  0.00000000000E+00 -0.00000000000E+00 -0.23135416330E+03  0.23135416330E+03  0.00000000000E+00 0. -1.
         23    2    1    2    0    0  0.49950917561E+02 -0.25746107746E+02 -0.89104071004E+02  0.14017336656E+03  0.92472055211E+02 0.  0.
          5    1    1    2  502    0  0.28167585231E+02  0.36874187774E+02 -0.60534422991E+02  0.76387219799E+02  0.41800000000E+01 0.  1.
         -5    1    1    2    0  502 -0.78118502792E+02 -0.11128080028E+02 -0.15906390760E+02  0.80602855474E+02  0.41800000000E+01 0.  1.
        -11    1    3    3    0    0  0.14630236994E+02  0.20741944055E+02 -0.76287268600E+02  0.80399125792E+02  0.00000000000E+00 0. -1.
         11    1    3    3    0    0  0.35320680567E+02 -0.46488051801E+02 -0.12816802405E+02  0.59774240772E+02  0.00000000000E+00 0.  1.
</event>
<event>
 7    1  0.4687179E-006  0.1090543E+03  0.7561462E-02  0.1262331E+00
          1   -1    0    0  501    0  0.00000000000E+00  0.00000000000E+00  0.21223076484E+02  0.21223076484E+02  0.00000000000E+00 0. -1.
         -1   -1    0    0    0  501 -0.00000000000E+00 -0.00000000000E+00 -0.85416083736E+03  0.85416083736E+03  0.00000000000E+00 0.  1.
         23    2    1    2    0    0  0.35405349544E+02 -0.53832431052E+01 -0.15560477809E+03  0.18566643437E+03  0.94745236316E+02 0.  0.
          5    1    1    2  502    0 -0.59707843104E+02  0.47173005385E+02 -0.50367728657E+03  0.50941005130E+03  0.41800000000E+01 0.  1.
         -5    1    1    2    0  502  0.24302493561E+02 -0.41789762280E+02 -0.17365569622E+03  0.18030742817E+03  0.41800000000E+01 0.  1.
        -11    1    3    3    0    0  0.19883158130E+01  0.38314547252E+02 -0.10149292097E+03  0.10850240061E+03  0.00000000000E+00 0.  1.
         11    1    3    3    0    0  0.33417033731E+02 -0.43697790357E+02 -0.54111857126E+02  0.77164033766E+02  0.00000000000E+00 0. -1.
</event>
<event>
 7    1  0.4687179E-006  0.1148482E+03  0.7561462E-02  0.1251846E+00
         -3   -1    0    0    0  501 -0.00000000000E+00  0.00000000000E+00  0.16313486820E+03  0.16313486820E+03  0.00000000000E+00 0.  1.
          3   -1    0    0  501    0  0.00000000000E+00 -0.00000000000E+00 -0.11059657492E+03  0.11059657492E+03  0.00000000000E+00 0. -1.
         23    2    1    2    0    0  0.53041962808E+02  0.64612793111E+02  0.21600079134E+02  0.12014194878E+03  0.83541974989E+02 0.  0.
          5    1    1    2  502    0  0.27830624826E+02 -0.75885047496E+01 -0.26246050270E+02  0.39223164550E+02  0.41800000000E+01 0. -1.
         -5    1    1    2    0  502 -0.80872587635E+02 -0.57024288361E+02  0.57184264421E+02  0.11436632980E+03  0.41800000000E+01 0. -1.
        -11    1    3    3    0    0 -0.58392081434E+01  0.35209547840E+02 -0.21315998393E+02  0.41571389180E+02  0.00000000000E+00 0.  1.
         11    1    3    3    0    0  0.58881170951E+02  0.29403245271E+02  0.42916077527E+02  0.78570559597E+02  0.00000000000E+00 0. -1.
</event>
<event>
 7    1  0.4687179E-006  0.1315636E+03  0.7561462E-02  0.1225154E+00
         -2   -1    0    0    0  501 -0.00000000000E+00  0.00000000000E+00  0.12315560780E+03  0.12315560780E+03  0.00000000000E+00 0. -1.
          2   -1    0    0  501    0  0.00000000000E+00 -0.00000000000E+00 -0.16575526348E+03  0.16575526348E+03  0.00000000000E+00 0.  1.
         23    2    1    2    0    0 -0.79903023413E+02 -0.38254626617E+02 -0.54206540063E+02  0.13518899068E+03  0.86543657236E+02 0.  0.
          5    1    1    2  502    0  0.11002424429E+03  0.45760926842E+02  0.20894281960E+02  0.12105139477E+03  0.41800000000E+01 0.  1.
         -5    1    1    2    0  502 -0.30121220879E+02 -0.75063002245E+01 -0.92873975815E+01  0.32670485826E+02  0.41800000000E+01 0.  1.
        -11    1    3    3    0    0 -0.82839299945E+02 -0.52467468732E+02 -0.22919808069E+02  0.10070006203E+03  0.00000000000E+00 0. -1.
         11    1    3    3    0    0  0.29362765326E+01  0.14212842114E+02 -0.31286731994E+02  0.34488928654E+02  0.00000000000E+00 0.  1.
</event>
<event>
 7    1  0.4687179E-006  0.1107941E+03  0.7561462E-02  0.1259106E+00
          3   -1    0    0  501    0  0.00000000000E+00  0.00000000000E+00  0.21047330016E+02  0.21047330016E+02  0.00000000000E+00 0. -1.
         -3   -1    0    0    0  501 -0.00000000000E+00 -0.00000000000E+00 -0.90411473424E+03  0.90411473424E+03  0.00000000000E+00 0.  1.
         23    2    1    2    0    0  0.17803557164E+02 -0.22796534793E+02 -0.21286903591E+03  0.23273565396E+03  0.89532170367E+02 0.  0.
          5    1    1    2  502    0 -0.65913410607E+02 -0.47053103061E+02 -0.22417727122E+03  0.23839356857E+03  0.41800000000E+01 0. -1.
         -5    1    1    2    0  502  0.48109853442E+02  0.69849637854E+02 -0.44602109709E+03  0.45403284172E+03  0.41800000000E+01 0.  1.
        -11    1    3    3    0    0  0.21094764651E+02 -0.36133715564E+02 -0.21482340050E+03  0.21886006465E+03  0.00000000000E+00 0.  1.
         11    1    3    3    0    0 -0.32912074867E+01  0.13337180771E+02  0.19543645980E+01  0.13875589307E+02  0.00000000000E+00 0. -1.
</event>
<event>
 7    1  0.4687179E-006  0.1108329E+03  0.7561462E-02  0.1259035E+00
          1   -1    0    0  501    0  0.00000000000E+00  0.00000000000E+00  0.22489506629E+03  0.22489506629E+03  0.00000000000E+00 0. -1.
         -1   -1    0    0    0  501 -0.00000000000E+00 -0.00000000000E+00 -0.66544985073E+02  0.66544985073E+02  0.00000000000E+00 0.  1.
         23    2    1    2    0    0  0.34372565395E+02 -0.22462924867E+02  0.11587619826E+03  0.15306238777E+03  0.91185223487E+02 0.  0.
          5    1    1    2  502    0 -0.40217540034E+02 -0.45922766077E+02  0.31251384598E+02  0.68705694159E+02  0.41800000000E+01 0.  1.
         -5    1    1    2    0  502  0.58449746394E+01  0.68385690944E+02  0.11222498354E+02  0.69671969426E+02  0.41800000000E+01 0.  1.
        -11    1    3    3    0    0 -0.13008579061E+02 -0.39327957464E+02  0.22841135593E+02  0.47303581711E+02  0.00000000000E+00 0.  1.
         11    1    3    3    0    0  0.47381144456E+02  0.16865032597E+02  0.93035062667E+02  0.10575880606E+03  0.00000000000E+00 0. -1.
</event>
<event>
 7    1  0.4687179E-006  0.1091822E+03  0.7561462E-02  0.1262092E+00
          3   -1    0    0  501    0  0.00000000000E+00  0.00000000000E+00  0.18598464372E+03  0.18598464372E+03  0.00000000000E+00 0. -1.
         -3   -1    0    0    0  501 -0.00000000000E+00 -0.00000000000E+00 -0.74214030400E+02  0.74214030400E+02  0.00000000000E+00 0.  1.
         23    2    1    2    0    0 -0.21063633012E+02  0.33264566101E+02  0.74506618174E+02  0.12386322857E+03  0.90778054875E+02 0.  0.
          5    1    1    2  502    0 -0.54741947612E+01  0.44611418750E+02  0.28747736678E+02  0.53516822171E+02  0.41800000000E+01 0.  1.
         -5    1    1    2    0  502  0.26537827774E+02 -0.77875984851E+02  0.85162584655E+01  0.82818623375E+02  0.41800000000E+01 0.  1.
        -11    1    3    3    0    0 -0.37363538268E+02 -0.14726668457E+02  0.92086335241E+01  0.41203248502E+02  0.00000000000E+00 0.  1.
         11    1    3    3    0    0  0.16299905256E+02  0.47991234558E+02  0.65297984650E+02  0.82659980070E+02  0.00000000000E+00 0. -1.
</event>
<event>
 7    1  0.4687179E-006  0.1160201E+03  0.7561462E-02  0.1249811E+00
         -3   -1    0    0    0  501 -0.00000000000E+00  0.00000000000E+00  0.17055877160E+03  0.17055877160E+03  0.00000000000E+00 0.  1.
          3   -1    0    0  501    0  0.00000000000E+00 -0.00000000000E+00 -0.96814843015E+02  0.96814843015E+02  0.00000000000E+00 0. -1.
         23    2    1    2    0    0  0.60072902154E+02  0.28510993509E+02  0.84079024408E+01  0.11521710158E+03  0.93715832973E+02 0.  0.
          5    1    1    2  502    0 -0.63573483975E+02  0.24933414870E+02  0.11102498105E+01  0.68424908450E+02  0.41800000000E+01 0. -1.
         -5    1    1    2    0  502  0.35005818209E+01 -0.53444408379E+02  0.64225776331E+02  0.83731604579E+02  0.41800000000E+01 0.  1.
        -11    1    3    3    0    0 -0.20477242072E+02  0.20466520931E+02 -0.12615579541E+02  0.31580829138E+02  0.00000000000E+00 0.  1.
         11    1    3    3    0    0  0.80550144226E+02  0.80444725772E+01  0.21023481982E+02  0.83636272445E+02  0.00000000000E+00 0. -1.
</event>
<event>
 7    1  0.4687179E-006  0.1447141E+03  0.7561462E-02  0.1207123E+00
          2   -1    0    0  501    0  0.00000000000E+00  0.00000000000E+00  0.42887703267E+03  0.42887703267E+03  0.00000000000E+00 0. -1.
         -2   -1    0    0    0  501 -0.00000000000E+00 -0.00000000000E+00 -0.57638872392E+02  0.57638872392E+02  0.00000000000E+00 0.  1.
         23    2    1    2    0    0  0.11097143051E+03  0.34944921082E+02  0.16398951720E+03  0.21793613043E+03  0.84070145107E+02 0.  0.
          5    1    1    2  502    0 -0.61291881877E+02  0.34108954637E+02  0.39903473977E+02  0.80807643239E+02  0.41800000000E+01 0. -1.
         -5    1    1    2    0  502 -0.49679548633E+02 -0.69053875719E+02  0.16734516910E+03  0.18777213139E+03  0.41800000000E+01 0. -1.
        -11    1    3    3    0    0  0.80089486588E+02 -0.86607916398E+01  0.13483503665E+03  0.15706629900E+03  0.00000000000E+00 0. -1.
         11    1    3    3    0    0  0.30881943922E+02  0.43605712722E+02  0.29154480547E+02  0.60869831430E+02  0.00000000000E+00 0.  1.
</event>
<event>
 7    1  0.4687179E-006  0.1469887E+03  0.7561462E-02  0.1204223E+00
          2   -1    0    0  501    0  0.00000000000E+00  0.00000000000E+00  0.87556078514E+03  0.87556078514E+03  0.00000000000E+00 0. -1.
         -2   -1    0    0    0  501 -0.00000000000E+00 -0.00000000000E+00 -0.37390794318E+02  0.37390794318E+02  0.00000000000E+00 0.  1.
         23    2    1    2    0    0  0.32654833275E+02 -0.14016687539E+03  0.35662760900E+03  0.39502903179E+03  0.90286174820E+02 0.  0.
          5    1    1    2  502    0  0.91954031523E+01  0.15910321690E+02  0.25832943574E+03  0.25901595230E+03  0.41800000000E+01 0. -1.
         -5    1    1    2    0  502 -0.41850236428E+02  0.12425655370E+03  0.22321294609E+03  0.25890659537E+03  0.41800000000E+01 0. -1.
        -11    1    3    3    0    0  0.29585742407E+02 -0.12277823882E+03  0.35557844162E+03  0.37734048316E+03  0.00000000000E+00 0. -1.
         11    1    3    3    0    0  0.30690908683E+01 -0.17388636570E+02  0.10491673738E+01  0.17688548632E+02  0.00000000000E+00 0.  1.
</event>
<event>
 7    1  0.4687179E-006  0.9741375E+02  0.7561462E-02  0.1285830E+00
          3   -1    0    0  501    0  0.00000000000E+00  0.00000000000E+00  0.19212948806E+03  0.19212948806E+03  0.00000000000E+00 0. -1.
         -3   -1    0    0    0  501 -0.00000000000E+00 -0.00000000000E+00 -0.11633567522E+03  0.11633567522E+03  0.00000000000E+00 0.  1.
         23    2    1    2    0    0 -0.69840776737E+02  0.22127050402E+02  0.10904718914E+03  0.15973477637E+03  0.90865663857E+02 0.  0.
          5    1    1    2  502    0  0.54036923214E+02 -0.59674666805E+02 -0.59407926290E+02  0.10013904850E+03  0.41800000000E+01 0. -1.
         -5    1    1    2    0  502  0.15803853524E+02  0.37547616403E+02  0.26154549989E+02  0.48591338414E+02  0.41800000000E+01 0. -1.
        -11    1    3    3    0    0 -0.28651570254E+02  0.90519623831E+01 -0.11115500555E+02  0.32037553801E+02  0.00000000000E+00 0.  1.
         11    1    3    3    0    0 -0.41189206483E+02  0.13075088019E+02  0.12016268969E+03  0.12769722257E+03  0.00000000000E+00 0. -1.
</event>
<event>
 7    1  0.4687179E-006  0.1713683E+03  0.7561462E-02  0.1176428E+00
         -2   -1    0    0    0  501 -0.00000000000E+00  0.00000000000E+00  0.46191207520E+02  0.46191207520E+02  0.00000000000E+00 0.  1.
          2   -1    0    0  501    0  0.00000000000E+00 -0.00000000000E+00 -0.72638201755E+03  0.72638201755E+03  0.00000000000E+00 0. -1.
         23    2    1    2    0    0 -0.14445081584E+03  0.39089231270E+01 -0.24804206585E+03  0.30002633717E+03  0.87233128404E+02 0.  0.
          5    1    1    2  502    0  0.11571113020E+03  0.48783362929E+02 -0.34022701448E+03  0.36268550554E+03  0.41800000000E+01 0.  1.
         -5    1    1    2    0  502  0.28739685638E+02 -0.52692286056E+02 -0.91921729708E+02  0.10986138235E+03  0.41800000000E+01 0.  1.
        -11    1    3    3    0    0 -0.95974354666E+02  0.31669649691E+02 -0.20813172953E+03  0.23137169296E+03  0.00000000000E+00 0. -1.
         11    1    3    3    0    0 -0.48476461176E+02 -0.27760726564E+02 -0.39910336316E+02  0.68654644215E+02  0.00000000000E+00 0.  1.
</event>
<event>
 7    1  0.4687179E-006  0.1074569E+03  0.7561462E-02  0.1265353E+00
          1   -1    0    0  501    0  0.00000000000E+00  0.00000000000E+00  0.14301438039E+03  0.14301438039E+03  0.00000000000E+00 0. -1.
         -1   -1    0    0    0  501 -0.00000000000E+00 -0.00000000000E+00 -0.16445698953E+03  0.16445698953E+03  0.00000000000E+00 0.  1.
         23    2    1    2    0    0 -0.30979951458E+02  0.35456308757E+02 -0.67369928731E+01  0.10564968003E+03  0.94337482450E+02 0.  0.
          5    1    1    2  502    0 -0.33365144669E+02 -0.42996006283E+02  0.73965622268E+02  0.91925377957E+02  0.41800000000E+01 0. -1.
         -5    1    1    2    0  502  0.64345096127E+02  0.75396975258E+01 -0.88671238531E+02  0.10989631194E+03  0.41800000000E+01 0.  1.
        -11    1    3    3    0    0 -0.15515869380E+02  0.62424018679E+02  0.17005288019E+02  0.66533300920E+02  0.00000000000E+00 0.  1.
         11    1    3    3    0    0 -0.15464082078E+02 -0.26967709922E+02 -0.23742280892E+02  0.39116379113E+02  0.00000000000E+00 0. -1.
</event>
<event>
 7    1  0.4687179E-006  0.1356337E+03  0.7561462E-02  0.1219328E+00
         -2   -1    0    0    0  501 -0.00000000000E+00  0.00000000000E+00  0.67052812240E+02  0.67052812240E+02  0.00000000000E+00 0.  1.
          2   -1    0    0  501    0  0.00000000000E+00 -0.00000000000E+00 -0.36054722054E+03  0.36054722054E+03  0.00000000000E+00 0. -1.
         23    2    1    2    0    0  0.62439647547E+02  0.67588680669E+02 -0.22097222065E+03  0.25621382675E+03  0.91377586852E+02 0.  0.
          5    1    1    2  502    0 -0.71454606467E+02 -0.93671162327E+02 -0.80025885336E+02  0.14248390141E+03  0.41800000000E+01 0. -1.
         -5    1    1    2    0  502  0.90149589199E+01  0.26082481658E+02  0.75036976809E+01  0.28902304625E+02  0.41800000000E+01 0. -1.
        -11    1    3    3    0    0  0.35407389403E+02 -0.15085428368E+02 -0.40478613076E+02  0.55854914645E+02  0.00000000000E+00 0.  1.
         11    1    3    3    0    0  0.27032258144E+02  0.82674109037E+02 -0.18049360757E+03  0.20035891210E+03  0.00000000000E+00 0. -1.
</event>
<event>
 7    1  0.4687179E-006  0.1242149E+03  0.7561462E-02  0.1236301E+00
         -1   -1    0    0    0  501 -0.00000000000E+00  0.00000000000E+00  0.30833854248E+02  0.30833854248E+02  0.00000000000E+00 0.  1.
          1   -1    0    0  501    0  0.00000000000E+00 -0.00000000000E+00 -0.56391197201E+03  0.56391197201E+03  0.00000000000E+00 0. -1.
         23    2    1    2    0    0  0.58494947339E+02  0.47398645310E+02 -0.25435511111E+03  0.28047937189E+03  0.91125545651E+02 0.  0.
          5    1    1    2  502    0 -0.35339270008E+02  0.33792099943E+02 -0.16765528769E+03  0.17468983346E+03  0.41800000000E+01 0. -1.
         -5    1    1    2    0  502 -0.23155677331E+02 -0.81190745252E+02 -0.11106771897E+03  0.13957662091E+03  0.41800000000E+01 0.  1.
        -11    1    3    3    0    0  0.66765786456E+01  0.60908808552E+02 -0.10202561142E+03  0.11901128117E+03  0.00000000000E+00 0. -1.
         11    1    3    3    0    0  0.51818368694E+02 -0.13510163242E+02 -0.15232949969E+03  0.16146809072E+03  0.00000000000E+00 0.  1.
</event>
<event>
 7    1  0.4687179E-006  0.9796233E+02  0.7561462E-02  0.1284640E+00
          1   -1    0    0  501    0  0.00000000000E+00  0.00000000000E+00  0.26909139792E+03  0.26909139792E+03  0.00000000000E+00 0. -1.
         -1   -1    0    0    0  501 -0.00000000000E+00 -0.00000000000E+00 -0.62645847130E+02  0.62645847130E+02  0.00000000000E+00 0.  1.
         23    2    1    2    0    0  0.22248661383E+02 -0.67644602055E+02  0.11340873727E+03  0.16034653221E+03  0.88196788943E+02 0.  0.
          5    1    1    2  502    0 -0.48208868194E+02  0.36501881887E+02 -0.92197861679E+01  0.61310351580E+02  0.41800000000E+01 0.  1.
         -5    1    1    2    0  502  0.25960206811E+02  0.31142720169E+02  0.10225659968E+03  0.11008036126E+03  0.41800000000E+01 0.  1.
        -11    1    3    3    0    0 -0.21639698762E+02 -0.16866215968E+02  0.81570983106E+02  0.86061437871E+02  0.00000000000E+00 0. -1.
         11    1    3    3    0    0  0.43888360145E+02 -0.50778386087E+02  0.31837754168E+02  0.74285094335E+02  0.00000000000E+00 0.  1.
</event>
<event>
 7    1  0.4687179E-006  0.8325687E+02  0.7561462E-02  0.1320055E+00
         -1   -1    0    0    0  501 -0.00000000000E+00  0.00000000000E+00  0.37021033837E+02  0.37021033837E+02  0.00000000000E+00 0.  1.
          1   -1    0    0  501    0  0.00000000000E+00 -0.00000000000E+00 -0.31446122396E+03  0.31446122396E+03  0.00000000000E+00 0. -1.
         23    2    1    2    0    0  0.10624330583E+02 -0.23852971218E+01 -0.12962109222E+03  0.15752746404E+03  0.88852171246E+02 0.  0.
          5    1    1    2  502    0 -0.31750580800E+02  0.29153913484E+02 -0.11573839547E+01  0.43322765265E+02  0.41800000000E+01 0.  1.
         -5    1    1    2    0  502  0.21126250218E+02 -0.26768616362E+02 -0.14666171395E+03  0.15063202850E+03  0.41800000000E+01 0.  1.
        -11    1    3    3    0    0  0.13403773029E+02  0.42149166698E+02 -0.74123580073E+02  0.86316386090E+02  0.00000000000E+00 0. -1.
         11    1    3    3    0    0 -0.27794424463E+01 -0.44534463820E+02 -0.55497512148E+02  0.71211077949E+02  0.00000000000E+00 0.  1.
</event>
<event>
 7    1  0.4687179E-006  0.1086686E+03  0.7561462E-02  0.1263055E+00
         -1   -1    0    0    0  501 -0.00000000000E+00  0.00000000000E+00  0.33540698734E+02  0.33540698734E+02  0.00000000000E+00 0.  1.
          1   -1    0    0  501    0  0.00000000000E+00 -0.00000000000E+00 -0.45564002390E+03  0.45564002390E+03  0.00000000000E+00 0. -1.
         23    2    1    2    0    0  0.21246718280E+02 -0.45058092753E+02 -0.24877823035E+03  0.26970649885E+03  0.91484057984E+02 0.  0.
          5    1    1    2  502    0  0.28634013141E+02 -0.17743553549E+02 -0.11584688727E+03  0.12071749703E+03  0.41800000000E+01 0.  1.
         -5    1    1    2    0  502 -0.49880731422E+02  0.62801646302E+02 -0.57474207559E+02  0.98756726758E+02  0.41800000000E+01 0.  1.
        -11    1    3    3    0    0 -0.26523800948E+02 -0.48405341101E+02 -0.15238593350E+03  0.16207424778E+03  0.00000000000E+00 0. -1.
         11    1    3    3    0    0  0.47770519228E+02  0.33472483484E+01 -0.96392296847E+02  0.10763225107E+03  0.00000000000E+00 0.  1.
</event>
<event>
 7    1  0.4687179E-006  0.1819838E+03  0.7561462E-02  0.1165897E+00
         -1   -1    0    0    0  501 -0.00000000000E+00  0.00000000000E+00  0.11310364057E+03  0.11310364057E+03  0.00000000000E+00 0.  1.
          1   -1    0    0  501    0  0.00000000000E+00 -0.00000000000E+00 -0.54597230323E+03  0.54597230323E+03  0.00000000000E+00 0. -1.
         23    2    1    2    0    0  0.65297630801E+02 -0.16905558386E+03 -0.38350741092E+03  0.43340563289E+03  0.88988411470E+02 0.  0.
          5    1    1    2  502    0 -0.21010290805E+02  0.45015359009E+02 -0.76325740393E+02  0.91164170117E+02  0.41800000000E+01 0.  1.
         -5    1    1    2    0  502 -0.44287339995E+02  0.12404022485E+03  0.26964488649E+02  0.13450614080E+03  0.41800000000E+01 0.  1.
        -11    1    3    3    0    0  0.51477583979E+02 -0.10667560591E+03 -0.14896331861E+03  0.19031473101E+03  0.00000000000E+00 0.  1.
         11    1    3    3    0    0  0.13820046822E+02 -0.62379977945E+02 -0.23454409230E+03  0.24309090188E+03  0.00000000000E+00 0. -1.
</event>
<event>
 7    1  0.4687179E-006  0.1071116E+03  0.7561462E-02  0.1266014E+00
         -1   -1    0    0    0  501 -0.00000000000E+00  0.00000000000E+00  0.95078857596E+02  0.95078857596E+02  0.00000000000E+00 0. -1.
          1   -1    0    0  501    0  0.00000000000E+00 -0.00000000000E+00 -0.12976142814E+03  0.12976142814E+03  0.00000000000E+00 0.  1.
         23    2    1    2    0    0  0.15859860204E+02  0.12060533576E+02 -0.30328650758E+02  0.98100057568E+02  0.91141662275E+02 0.  0.
          5    1    1    2  502    0  0.51841597150E+02  0.90968407356E+01 -0.15011554526E+02  0.54891919950E+02  0.41800000000E+01 0. -1.
         -5    1    1    2    0  502 -0.67701457355E+02 -0.21157374311E+02  0.10657634740E+02  0.71848308219E+02  0.41800000000E+01 0. -1.
        -11    1    3    3    0    0 -0.30232014333E+02 -0.18148437630E+02 -0.23943622339E+02  0.42622031038E+02  0.00000000000E+00 0.  1.
         11    1    3    3    0    0  0.46091874538E+02  0.30208971206E+02 -0.63850284186E+01  0.55478026530E+02  0.00000000000E+00 0. -1.
</event>
<event>
 7    1  0.4687179E-006  0.1317114E+03  0.7561462E-02  0.1224938E+00
         -4   -1    0    0    0  501 -0.00000000000E+00  0.00000000000E+00  0.23219316165E+03  0.23219316165E+03  0.00000000000E+00 0.  1.
          4   -1    0    0  501    0  0.00000000000E+00 -0.00000000000E+00 -0.96174314757E+02  0.96174314757E+02  0.00000000000E+00 0. -1.
         23    2    1    2    0    0 -0.18948717158E+02 -0.96250147550E+01 -0.57698286692E+01  0.89570817954E+02  0.86821343661E+02 0.  0.
          5    1    1    2  502    0  0.71312059875E+02  0.70593514177E+02  0.37809737496E+02  0.10731217441E+03  0.41800000000E+01 0. -1.
         -5    1    1    2    0  502 -0.52363342717E+02 -0.60968499422E+02  0.10397893806E+03  0.13148448404E+03  0.41800000000E+01 0.  1.
        -11    1    3    3    0    0 -0.86225232430E+01 -0.44920239990E+02  0.13979026390E+02  0.47828747074E+02  0.00000000000E+00 0.  1.
         11    1    3    3    0    0 -0.10326193915E+02  0.35295225235E+02 -0.19748855060E+02  0.41742070880E+02  0.00000000000E+00 0. -1.
</event>
<event>
 7    1  0.4687179E-006  0.1432780E+03  0.7561462E-02  0.1208985E+00
          2   -1    0    0  501    0  0.00000000000E+00  0.00000000000E+00  0.16675478612E+03  0.16675478612E+03  0.00000000000E+00 0. -1.
         -2   -1    0    0    0  501 -0.00000000000E+00 -0.00000000000E+00 -0.14105859390E+03  0.14105859390E+03  0.00000000000E+00 0.  1.
         23    2    1    2    0    0 -0.10229173718E+03  0.15102866475E+02  0.43689226551E+02  0.14452301479E+03  0.91029979764E+02 0.  0.
          5    1    1    2  502    0 -0.21485263895E+01 -0.42067680627E+02 -0.33832143129E+02  0.54188487963E+02  0.41800000000E+01 0. -1.
         -5    1    1    2    0  502  0.10444026357E+03  0.26964814151E+02  0.15839108801E+02  0.10910187727E+03  0.41800000000E+01 0. -1.
        -11    1    3    3    0    0 -0.15008651976E+02 -0.33263465741E+02  0.25313699548E+01  0.36580399412E+02  0.00000000000E+00 0.  1.
         11    1    3    3    0    0 -0.87283085206E+02  0.48366332217E+02  0.41157856596E+02  0.10794261538E+03  0.00000000000E+00 0. -1.
</event>
<event>
 7    1  0.4687179E-006  0.9647737E+02  0.7561462E-02  0.1287883E+00
          3   -1    0    0  501    0  0.00000000000E+00  0.00000000000E+00  0.71419016449E+02  0.71419016449E+02  0.00000000000E+00 0. -1.
         -3   -1    0    0    0  501 -0.00000000000E+00 -0.00000000000E+00 -0.20690654993E+03  0.20690654993E+03  0.00000000000E+00 0.  1.
         23    2    1    2    0    0 -0.33035444547E+02  0.42313685735E+02 -0.44643518486E+02  0.11451932562E+03  0.90773584267E+02 0.  0.
          5    1    1    2  502    0 -0.41986153419E+02  0.10366163748E+02 -0.39134680201E+02  0.58474695589E+02  0.41800000000E+01 0. -1.
         -5    1    1    2    0  502  0.75021597966E+02 -0.52679849483E+02 -0.51709334791E+02  0.10533154517E+03  0.41800000000E+01 0. -1.
        -11    1    3    3    0    0 -0.14425113684E+02  0.34799660434E+02  0.22880912545E+02  0.44075349460E+02  0.00000000000E+00 0. -1.
         11    1    3    3    0    0 -0.18610330863E+02  0.75140253007E+01 -0.67524431032E+02  0.70443976160E+02  0.00000000000E+00 0.  1.
</event>
<event>
 7    1  0.4687179E-006  0.1181059E+03  0.7561462E-02  0.1246255E+00
          1   -1    0    0  501    0  0.00000000000E+00  0.00000000000E+00  0.73991120593E+03  0.73991120593E+03  0.00000000000E+00 0. -1.
         -1   -1    0    0    0  501 -0.00000000000E+00 -0.00000000000E+00 -0.21319540775E+02  0.21319540775E+02  0.00000000000E+00 0.  1.
         23    2    1    2    0    0  0.16303172323E+02  0.45646612658E+02  0.43174031951E+03  0.44456182507E+03  0.94266145292E+02 0.  0.
          5    1    1    2  502    0 -0.62973374537E+02 -0.55949087599E+02  0.15668729776E+03  0.17794473294E+03  0.41800000000E+01 0.  1.
         -5    1    1    2    0  502  0.46670202214E+02  0.10302474941E+02  0.13016404788E+03  0.13872418868E+03  0.41800000000E+01 0.  1.
        -11    1    3    3    0    0  0.52242966078E+02  0.43341534391E+02  0.32150318553E+03  0.32859110520E+03  0.00000000000E+00 0. -1.
         11    1    3    3    0    0 -0.35939793756E+02  0.23050782673E+01  0.11023713397E+03  0.11597071987E+03  0.00000000000E+00 0.  1.
</event>
<event>
 7    1  0.4687179E-006  0.9076286E+02  0.7561462E-02  0.1301015E+00
          1   -1    0    0  501    0  0.00000000000E+00  0.00000000000E+00  0.43478803848E+02  0.43478803848E+02  0.00000000000E+00 0. -1.
         -1   -1    0    0    0  501 -0.00000000000E+00 -0.00000000000E+00 -0.39846596182E+03  0.39846596182E+03  0.00000000000E+00 0.  1.
         23    2    1    2    0    0 -0.15311452654E+02  0.64840349801E+02 -0.10039786436E+03  0.15056645719E+03  0.90287403981E+02 0.  0.
          5    1    1    2  502    0 -0.15541783287E+02 -0.90987757509E+01  0.87181216732E+01  0.20440469501E+02  0.41800000000E+01 0.  1.
         -5    1    1    2    0  502  0.30853235941E+02 -0.55741574050E+02 -0.26330741529E+03  0.27093783898E+03  0.41800000000E+01 0.  1.
        -11    1    3    3    0    0 -0.37784641811E+02  0.66680360569E+02 -0.10242728403E+03  0.12792692507E+03  0.00000000000E+00 0.  1.
         11    1    3    3    0    0  0.22473189157E+02 -0.18400107677E+01  0.20294196734E+01  0.22639532123E+02  0.00000000000E+00 0. -1.
</event>
<event>
 7    1  0.4687179E-006  0.1004359E+03  0.7561462E-02  0.1279382E+00
         -1   -1    0    0    0  501 -0.00000000000E+00  0.00000000000E+00  0.18956321619E+03  0.18956321619E+03  0.00000000000E+00 0.  1.
          1   -1    0    0  501    0  0.00000000000E+00 -0.00000000000E+00 -0.83038218624E+02  0.83038218624E+02  0.00000000000E+00 0. -1.
         23    2    1    2    0    0 -0.10683629139E+02  0.19328254168E+02 -0.19864559182E+02  0.93403172104E+02  0.88554110615E+02 0.  0.
          5    1    1    2  502    0  0.45463079716E+02 -0.55461156676E+02  0.97708755568E+02  0.12127367741E+03  0.41800000000E+01 0.  1.
         -5    1    1    2    0  502 -0.34779450578E+02  0.36132902508E+02  0.28680801180E+02  0.57924585302E+02  0.41800000000E+01 0.  1.
        -11    1    3    3    0    0 -0.23709367201E+02 -0.23838611064E+02  0.14595839489E+02  0.36653130847E+02  0.00000000000E+00 0. -1.
         11    1    3    3    0    0  0.13025738062E+02  0.43166865232E+02 -0.34460398671E+02  0.56750041256E+02  0.00000000000E+00 0.  1.
</event>
<event>
 7    1  0.4687179E-006  0.1256546E+03  0.7561462E-02  0.1234050E+00
         -2   -1    0    0    0  501 -0.00000000000E+00  0.00000000000E+00  0.29193574566E+02  0.29193574566E+02  0.00000000000E+00 0.  1.
          2   -1    0    0  501    0  0.00000000000E+00 -0.00000000000E+00 -0.54929135899E+03  0.54929135899E+03  0.00000000000E+00 0. -1.
         23    2    1    2    0    0 -0.55477720471E+02 -0.33572855381E+02 -0.23601446469E+03  0.26138023335E+03  0.91716327634E+02 0.  0.
          5    1    1    2  502    0  0.94998191357E+02  0.27429017884E+02 -0.22298180961E+03  0.24395771601E+03  0.41800000000E+01 0.  1.
         -5    1    1    2    0  502 -0.39520470886E+02  0.61438374971E+01 -0.61101510127E+02  0.73146984203E+02  0.41800000000E+01 0.  1.
        -11    1    3    3    0    0  0.15721615560E+02 -0.37662743677E+02 -0.93431663748E+02  0.10195649684E+03  0.00000000000E+00 0.  1.
         11    1    3    3    0    0 -0.71199336031E+02  0.40898882960E+01 -0.14258280094E+03  0.15942373651E+03  0.00000000000E+00 0. -1.
</event>
<event>
 7    1  0.4687179E-006  0.1617257E+03  0.7561462E-02  0.1186762E+00
          1   -1    0    0  501    0  0.00000000000E+00  0.00000000000E+00  0.50416294575E+03  0.50416294575E+03  0.00000000000E+00 0. -1.
         -1   -1    0    0    0  501 -0.00000000000E+00 -0.00000000000E+00 -0.14771084029E+03  0.14771084029E+03  0.00000000000E+00 0.  1.
         23    2    1    2    0    0  0.82058646444E+02  0.12628586153E+03  0.41244484581E+03  0.44824490878E+03  0.90172097322E+02 0.  0.
          5    1    1    2  502    0 -0.35952208670E+02 -0.49160027585E+02  0.39285975482E+02  0.72595660270E+02  0.41800000000E+01 0. -1.
         -5    1    1    2    0  502 -0.46106437773E+02 -0.77125833944E+02 -0.95278715822E+02  0.13103321699E+03  0.41800000000E+01 0. -1.
        -11    1    3    3    0    0  0.79739895337E+02  0.45850996539E+02  0.17776850018E+03  0.20015595032E+03  0.00000000000E+00 0.  1.
         11    1    3    3    0    0  0.23187511063E+01  0.80434864990E+02  0.23467634563E+03  0.24808895847E+03  0.00000000000E+00 0. -1.
</event>
<event>
 7    1  0.4687179E-006  0.7092543E+02  0.7561462E-02  0.1356974E+00
         -2   -1    0    0    0  501 -0.00000000000E+00  0.00000000000E+00  0.89063029673E+02  0.89063029673E+02  0.00000000000E+00 0.  1.
          2   -1    0    0  501    0  0.00000000000E+00 -0.00000000000E+00 -0.17121110596E+03  0.17121110596E+03  0.00000000000E+00 0. -1.
         23    2    1    2    0    0 -0.40496917646E+02  0.20155936093E+02 -0.75397211513E+02  0.12708486082E+03  0.91758161750E+02 0.  0.
          5    1    1    2  502    0  0.40676428764E+02  0.32905116902E+01  0.54070414490E+02  0.67871064875E+02  0.41800000000E+01 0. -1.
         -5    1    1    2    0  502 -0.17951111854E+00 -0.23446447783E+02 -0.60821279264E+02  0.65318209935E+02  0.41800000000E+01 0. -1.
        -11    1    3    3    0    0  0.15782174726E+02  0.12665383521E+02  0.11506720815E+02  0.23278608265E+02  0.00000000000E+00 0.  1.
         11    1    3    3    0    0 -0.56279092372E+02  0.74905525712E+01 -0.86903932328E+02  0.10380625256E+03  0.00000000000E+00 0. -1.
</event>
<event>
 7    1  0.4687179E-006  0.1573849E+03  0.7561462E-02  0.1191681E+00
          1   -1    0    0  501    0  0.00000000000E+00  0.00000000000E+00  0.74790360074E+03  0.74790360074E+03  0.00000000000E+00 0. -1.
         -1   -1    0    0    0  501 -0.00000000000E+00 -0.00000000000E+00 -0.41228398901E+02  0.41228398901E+02  0.00000000000E+00 0.  1.
         23    2    1    2    0    0 -0.71535089086E+02 -0.96229460942E+02  0.48574747853E+03  0.50836006329E+03  0.90010904479E+02 0.  0.
          5    1    1    2  502    0  0.77979713334E+02  0.12029538029E+03  0.20727679629E+03  0.25205744760E+03  0.41800000000E+01 0.  1.
         -5    1    1    2    0  502 -0.64446242480E+01 -0.24065919345E+02  0.13650927012E+02  0.28714488746E+02  0.41800000000E+01 0.  1.
        -11    1    3    3    0    0 -0.74324596766E+02 -0.30564951359E+02  0.20907134034E+03  0.22398479254E+03  0.00000000000E+00 0.  1.
         11    1    3    3    0    0  0.27895076802E+01 -0.65664509584E+02  0.27667613819E+03  0.28437527075E+03  0.00000000000E+00 0. -1.
</event>
<event>
 7    1  0.4687179E-006  0.2236372E+03  0.7561462E-02  0.1131200E+00
         -1   -1    0    0    0  501 -0.00000000000E+00  0.00000000000E+00  0.71284083239E+02  0.71284083239E+02  0.00000000000E+00 0.  1.
          1   -1    0    0  501    0  0.00000000000E+00 -0.00000000000E+00 -0.10762286768E+04  0.10762286768E+04  0.00000000000E+00 0. -1.
         23    2    1    2    0    0 -0.17017577030E+03  0.13303293957E+03 -0.76453076134E+03  0.79952778065E+03  0.89887881193E+02 0.  0.
          5    1    1    2  502    0  0.29243156360E+02  0.79223306687E+01  0.58464177492E+01  0.31138055778E+02  0.41800000000E+01 0. -1.
         -5    1    1    2    0  502  0.14093261394E+03 -0.14095527024E+03 -0.24626024993E+03  0.31684692357E+03  0.41800000000E+01 0.  1.
        -11    1    3    3    0    0 -0.13119474196E+03  0.11461346084E+03 -0.70386187292E+03  0.72509988406E+03  0.00000000000E+00 0. -1.
         11    1    3    3    0    0 -0.38981028346E+02  0.18419478737E+02 -0.60668888427E+02  0.74427896590E+02  0.00000000000E+00 0.  1.
</event>
<event>
 7    1  0.4687179E-006  0.1639972E+03  0.7561462E-02  0.1184256E+00
          1   -1    0    0  501    0  0.00000000000E+00  0.00000000000E+00  0.12415851413E+03  0.12415851413E+03  0.00000000000E+00 0. -1.
         -1   -1    0    0    0  501 -0.00000000000E+00 -0.00000000000E+00 -0.70715796470E+03  0.70715796470E+03  0.00000000000E+00 0.  1.
         23    2    1    2    0    0  0.13877011277E+03  0.38737566803E+02  0.51108315804E+02  0.16912479806E+03  0.72342201344E+02 0.  0.
          5    1    1    2  502    0  0.55250207223E+01  0.13305716184E+02 -0.22093465870E+03  0.22144336466E+03  0.41800000000E+01 0. -1.
         -5    1    1    2    0  502 -0.14429513349E+03 -0.52043282987E+02 -0.41317310768E+03  0.44074831612E+03  0.41800000000E+01 0. -1.
        -11    1    3    3    0    0  0.21841330586E+02 -0.19169459846E+02  0.19401591083E+00  0.29061134780E+02  0.00000000000E+00 0.  1.
         11    1    3    3    0    0  0.11692878218E+03  0.57907026649E+02  0.50914299893E+02  0.14006366328E+03  0.00000000000E+00 0. -1.
</event>
<event>
 7    1  0.4687179E-006  0.7965347E+02  0.7561462E-02  0.1330038E+00
         -1   -1    0    0    0  501 -0.00000000000E+00  0.00000000000E+00  0.11497028598E+03  0.11497028598E+03  0.00000000000E+00 0.  1.
          1   -1    0    0  501    0  0.00000000000E+00 -0.00000000000E+00 -0.22000280506E+03  0.22000280506E+03  0.00000000000E+00 0. -1.
         23    2    1    2    0    0  0.78536154192E+02  0.80497607626E+01 -0.13838048623E+03  0.18333797866E+03  0.90724469058E+02 0.  0.
          5    1    1    2  502    0 -0.56803748063E+02 -0.87050031042E+01 -0.43158068201E+02  0.71989819584E+02  0.41800000000E+01 0.  1.
         -5    1    1    2    0  502 -0.21732406129E+02  0.65524234162E+00  0.76506035352E+02  0.79645292792E+02  0.41800000000E+01 0.  1.
        -11    1    3    3    0    0  0.55245271350E+02  0.10122065739E+02 -0.15516667135E+02  0.58268886898E+02  0.00000000000E+00 0.  1.
         11    1    3    3    0    0  0.23290882842E+02 -0.20723049766E+01 -0.12286381909E+03  0.12506909176E+03  0.00000000000E+00 0. -1.
</event>
<event>
 7    1  0.4687179E-006  0.5486625E+02  0.7561462E-02  0.1420732E+00
          1   -1    0    0  501    0  0.00000000000E+00  0.00000000000E+00  0.68900458531E+02  0.68900458531E+02  0.00000000000E+00 0. -1.
         -1   -1    0    0    0  501 -0.00000000000E+00 -0.00000000000E+00 -0.53772134613E+03  0.53772134613E+03  0.00000000000E+00 0.  1.
         23    2    1    2    0    0 -0.11815012680E+02  0.44389679191E+01  0.26529396196E+02  0.95565290519E+02  0.90937434144E+02 0.  0.
          5    1    1    2  502    0  0.39653507988E+02  0.13317951511E+02 -0.46210719976E+03  0.46401541461E+03  0.41800000000E+01 0.  1.
         -5    1    1    2    0  502 -0.27838495309E+02 -0.17756919430E+02 -0.33243084037E+02  0.47041099530E+02  0.41800000000E+01 0.  1.
        -11    1    3    3    0    0  0.84440418847E+01  0.10302080584E+02 -0.31296526194E+02  0.34013339435E+02  0.00000000000E+00 0.  1.
         11    1    3    3    0    0 -0.20259054564E+02 -0.58631126647E+01  0.57825922390E+02  0.61551951084E+02  0.00000000000E+00 0. -1.
</event>
<event>
 7    1  0.4687179E-006  0.7380838E+02  0.7561462E-02  0.1347601E+00
         -2   -1    0    0    0  501 -0.00000000000E+00  0.00000000000E+00  0.12354699195E+03  0.12354699195E+03  0.00000000000E+00 0.  1.
          2   -1    0    0  501    0  0.00000000000E+00 -0.00000000000E+00 -0.10392234800E+03  0.10392234800E+03  0.00000000000E+00 0. -1.
         23    2    1    2    0    0  0.10703621797E+02  0.28011174286E+02 -0.47682183252E+01  0.96544359018E+02  0.91645425133E+02 0.  0.
          5    1    1    2  502    0 -0.29579244097E+02 -0.22195580735E+01 -0.45202709068E+02  0.54227441637E+02  0.41800000000E+01 0.  1.
         -5    1    1    2    0  502  0.18875622301E+02 -0.25791616212E+02  0.69595571339E+02  0.76697539296E+02  0.41800000000E+01 0.  1.
        -11    1    3    3    0    0 -0.21059032602E+02 -0.19219388915E+02 -0.23156847631E+02  0.36730196795E+02  0.00000000000E+00 0. -1.
         11    1    3    3    0    0  0.31762654399E+02  0.47230563201E+02  0.18388629305E+02  0.59814162223E+02  0.00000000000E+00 0.  1.
</event>
<event>
 7    1  0.4687179E-006  0.1309578E+03  0.7561462E-02  0.1226041E+00
         -2   -1    0    0    0  501 -0.00000000000E+00  0.00000000000E+00  0.23437846071E+02  0.23437846071E+02  0.00000000000E+00 0.  1.
          2   -1    0    0  501    0  0.00000000000E+00 -0.00000000000E+00 -0.84608276949E+03  0.84608276949E+03  0.00000000000E+00 0. -1.
         23    2    1    2    0    0 -0.35583285378E+01  0.84046114093E+02 -0.48661541533E+03  0.50123016201E+03  0.85794532902E+02 0.  0.
          5    1    1    2  502    0 -0.31558909488E+02  0.20290526184E+02 -0.57715603127E+02  0.68965451243E+02  0.41800000000E+01 0. -1.
         -5    1    1    2    0  502  0.35117238025E+02 -0.10433664028E+03 -0.27831390497E+03  0.29932500231E+03  0.41800000000E+01 0. -1.
        -11    1    3    3    0    0  0.35263713840E+02  0.24596309752E+02 -0.11248241603E+03  0.12041927538E+03  0.00000000000E+00 0. -1.
         11    1    3    3    0    0 -0.38822042378E+02  0.59449804341E+02 -0.37413299930E+03  0.38081088663E+03  0.00000000000E+00 0.  1.
</event>
<event>
 7    1  0.4687179E-006  0.1280611E+03  0.7561462E-02  0.1230361E+00
          4   -1    0    0  501    0  0.00000000000E+00  0.00000000000E+00  0.57345587736E+03  0.57345587736E+03  0.00000000000E+00 0.  1.
         -4   -1    0    0    0  501 -0.00000000000E+00 -0.00000000000E+00 -0.36920521113E+02  0.36920521113E+02  0.00000000000E+00 0. -1.
         23    2    1    2    0    0  0.56056045669E+02 -0.78233473574E+02  0.22208544201E+03  0.25854065007E+03  0.90876661177E+02 0.  0.
          5    1    1    2  502    0 -0.95904397418E+02  0.55498045664E+02  0.20455501399E+03  0.23267555236E+03  0.41800000000E+01 0.  1.
         -5    1    1    2    0  502  0.39848351749E+02  0.22735427910E+02  0.10989490025E+03  0.11916019604E+03  0.41800000000E+01 0.  1.
        -11    1    3    3    0    0  0.40627127906E+02 -0.36273773286E+02  0.20256341497E+03  0.20975768695E+03  0.00000000000E+00 0. -1.
         11    1    3    3    0    0  0.15428917764E+02 -0.41959700288E+02  0.19522027034E+02  0.48782963124E+02  0.00000000000E+00 0.  1.
</event>
<event>
 7    1  0.4687179E-006  0.1105221E+03  0.7561462E-02  0.1259606E+00
          1   -1    0    0  501    0  0.00000000000E+00  0.00000000000E+00  0.12114355442E+03  0.12114355442E+03  0.00000000000E+00 0. -1.
         -1   -1    0    0    0  501 -0.00000000000E+00 -0.00000000000E+00 -0.13497195266E+03  0.13497195266E+03  0.00000000000E+00 0.  1.
         23    2    1    2    0    0 -0.43260369396E+02 -0.44174256520E+02 -0.35037898425E+02  0.11500292548E+03  0.90416779655E+02 0.  0.
          5    1    1    2  502    0  0.72971718865E+02  0.48210348814E+02 -0.20159040722E+02  0.89849701222E+02  0.41800000000E+01 0.  1.
         -5    1    1    2    0  502 -0.29711349469E+02 -0.40360922944E+01  0.41368540900E+02  0.51262880376E+02  0.41800000000E+01 0.  1.
        -11    1    3    3    0    0 -0.53573574691E+02 -0.62416379957E+02 -0.42715445044E+02  0.92685174852E+02  0.00000000000E+00 0.  1.
         11    1    3    3    0    0  0.10313205295E+02  0.18242123437E+02  0.76775466190E+01  0.22317750626E+02  0.00000000000E+00 0. -1.
</event>
<event>
 7    1  0.4687179E-006  0.8979051E+02  0.7561462E-02  0.1303360E+00
          4   -1    0    0  501    0  0.00000000000E+00  0.00000000000E+00  0.79283667737E+02  0.79283667737E+02  0.00000000000E+00 0. -1.
         -4   -1    0    0    0  501 -0.00000000000E+00 -0.00000000000E+00 -0.20975835558E+03  0.20975835558E+03  0.00000000000E+00 0.  1.
         23    2    1    2    0    0 -0.54559239835E+02 -0.41162169829E+02 -0.69031024888E+02  0.13375556460E+03  0.91946907437E+02 0.  0.
          5    1    1    2  502    0  0.29201134383E+02 -0.97619997130E+01  0.32764355867E+02  0.45155047370E+02  0.41800000000E+01 0. -1.
         -5    1    1    2    0  502  0.25358105452E+02  0.50924169542E+02 -0.94208018820E+02  0.11013141135E+03  0.41800000000E+01 0. -1.
        -11    1    3    3    0    0 -0.36478341921E+02 -0.56838041468E+02 -0.77649248208E+01  0.67981809660E+02  0.00000000000E+00 0. -1.
         11    1    3    3    0    0 -0.18080897914E+02  0.15675871639E+02 -0.61266100067E+02  0.65773754936E+02  0.00000000000E+00 0.  1.
</event>
<event>
 7    1  0.4687179E-006  0.1939910E+03  0.7561462E-02  0.1154910E+00
         -1   -1    0    0    0  501 -0.00000000000E+00  0.00000000000E+00  0.12100637279E+04  0.12100637279E+04  0.00000000000E+00 0.  1.
          1   -1    0    0  501    0  0.00000000000E+00 -0.00000000000E+00 -0.38715889191E+02  0.38715889191E+02  0.00000000000E+00 0. -1.
         23    2    1    2    0    0 -0.45999768668E+02  0.17018041958E+03  0.37004145350E+03  0.41882908567E+03  0.86080031195E+02 0.  0.
          5    1    1    2  502    0  0.20640844288E+02  0.81432161658E+01  0.28185485964E+02  0.36114407672E+02  0.41800000000E+01 0.  1.
         -5    1    1    2    0  502  0.25358924379E+02 -0.17832363575E+03  0.77312089923E+03  0.79383612373E+03  0.41800000000E+01 0.  1.
        -11    1    3    3    0    0 -0.26465333837E+02  0.18468938707E+02  0.23172471328E+02  0.39730077014E+02  0.00000000000E+00 0. -1.
         11    1    3    3    0    0 -0.19534434831E+02  0.15171148088E+03  0.34686898217E+03  0.37909900866E+03  0.00000000000E+00 0.  1.
</event>
<event>
 7    1  0.4687179E-006  0.8088061E+02  0.7561462E-02  0.1326571E+00
          2   -1    0    0  501    0  0.00000000000E+00  0.00000000000E+00  0.13549419391E+03  0.13549419391E+03  0.00000000000E+00 0.  1.
         -2   -1    0    0    0  501 -0.00000000000E+00 -0.00000000000E+00 -0.90671913811E+02  0.90671913811E+02  0.00000000000E+00 0. -1.
         23    2    1    2    0    0 -0.13029487883E+02  0.74695115631E+01  0.17813160467E+02  0.97315463157E+02  0.94485075680E+02 0.  0.
          5    1    1    2  502    0  0.44596163556E+02  0.96052040570E+01 -0.34613637558E+02  0.57416496357E+02  0.41800000000E+01 0.  1.
         -5    1    1    2    0  502 -0.31566675673E+02 -0.17074715620E+02  0.61622757192E+02  0.71434148210E+02  0.41800000000E+01 0.  1.
        -11    1    3    3    0    0  0.32630205591E+02 -0.36271539315E+01  0.34336057578E+02  0.47506330237E+02  0.00000000000E+00 0.  1.
         11    1    3    3    0    0 -0.45659693475E+02  0.11096665495E+02 -0.16522897111E+02  0.49809132920E+02  0.00000000000E+00 0. -1.
</event>
<event>
 7    1  0.4687179E-006  0.1395601E+03  0.7561462E-02  0.1213922E+00
         -2   -1    0    0    0  501 -0.00000000000E+00  0.00000000000E+00  0.31798918001E+03  0.31798918001E+03  0.00000000000E+00 0. -1.
          2   -1    0    0  501    0  0.00000000000E+00 -0.00000000000E+00 -0.72951055575E+02  0.72951055575E+02  0.00000000000E+00 0.  1.
         23    2    1    2    0    0  0.29627078195E+02 -0.91571991248E+02  0.55202320317E+02  0.14406106575E+03  0.91886349115E+02 0.  0.
          5    1    1    2  502    0  0.40057594838E+02  0.76371015411E+02  0.10082560147E+03  0.13274191957E+03  0.41800000000E+01 0. -1.
         -5    1    1    2    0  502 -0.69684673034E+02  0.15200975836E+02  0.89010202643E+02  0.11413725026E+03  0.41800000000E+01 0. -1.
        -11    1    3    3    0    0 -0.30534912475E+01 -0.88452503655E+02  0.64990205866E+02  0.10980389825E+03  0.00000000000E+00 0.  1.
         11    1    3    3    0    0  0.32680569443E+02 -0.31194875925E+01 -0.97878855489E+01  0.34257167505E+02  0.00000000000E+00 0. -1.
</event>
<event>
 7    1  0.4687179E-006  0.1549634E+03  0.7561462E-02  0.1194503E+00
          2   -1    0    0  501    0  0.00000000000E+00  0.00000000000E+00  0.19533519153E+03  0.19533519153E+03  0.00000000000E+00 0. -1.
         -2   -1    0    0    0  501 -0.00000000000E+00 -0.00000000000E+00 -0.23423023955E+03  0.23423023955E+03  0.00000000000E+00 0.  1.
         23    2    1    2    0    0 -0.72242775348E+02 -0.41174033996E+02  0.53931106629E+02  0.13473143941E+03  0.91267063275E+02 0.  0.
          5    1    1    2  502    0 -0.64570880099E+02 -0.27099116124E+02  0.49533925253E+02  0.85876904942E+02  0.41800000000E+01 0. -1.
         -5    1    1    2    0  502  0.13681365545E+03  0.68273150120E+02 -0.14236007989E+03  0.20895708672E+03  0.41800000000E+01 0.  1.
        -11    1    3    3    0    0 -0.20200431112E+02  0.40294143137E+00  0.64226327863E+02  0.67329347017E+02  0.00000000000E+00 0.  1.
         11    1    3    3    0    0 -0.52042344236E+02 -0.41576975427E+02 -0.10295221234E+02  0.67402092397E+02  0.00000000000E+00 0. -1.
</event>
<event>
 7    1  0.4687179E-006  0.1258934E+03  0.7561462E-02  0.1233680E+00
          1   -1    0    0  501    0  0.00000000000E+00  0.00000000000E+00  0.70983902318E+02  0.70983902318E+02  0.00000000000E+00 0. -1.
         -1   -1    0    0    0  501 -0.00000000000E+00 -0.00000000000E+00 -0.23662439511E+03  0.23662439511E+03  0.00000000000E+00 0.  1.
         23    2    1    2    0    0 -0.49532405951E+02 -0.56660852215E+02 -0.80920328928E+02  0.13882411234E+03  0.84024538800E+02 0.  0.
          5    1    1    2  502    0 -0.40456420524E+02  0.31383467685E+02 -0.39850095186E+02  0.65016509379E+02  0.41800000000E+01 0.  1.
         -5    1    1    2    0  502  0.89988826474E+02  0.25277384530E+02 -0.44870068682E+02  0.10376767571E+03  0.41800000000E+01 0.  1.
        -11    1    3    3    0    0 -0.31032644721E+02  0.13827486178E+02 -0.48126317183E+02  0.58909819368E+02  0.00000000000E+00 0.  1.
         11    1    3    3    0    0 -0.18499761230E+02 -0.70488338394E+02 -0.32794011745E+02  0.79914292973E+02  0.00000000000E+00 0. -1.
</event>
<event>
 7    1  0.4687179E-006  0.1315925E+03  0.7561462E-02  0.1225112E+00
          2   -1    0    0  501    0  0.00000000000E+00  0.00000000000E+00  0.53247443491E+03  0.53247443491E+03  0.00000000000E+00 0. -1.
         -2   -1    0    0    0  501 -0.00000000000E+00 -0.00000000000E+00 -0.57816037620E+02  0.57816037620E+02  0.00000000000E+00 0.  1.
         23    2    1    2    0    0  0.57090777940E+02  0.11450215638E+03  0.29244203720E+03  0.33490706891E+03  0.10134248341E+03 0.  0.
          5    1    1    2  502    0 -0.53830185396E+02 -0.63325933335E+02  0.20537171721E+02  0.85715287521E+02  0.41800000000E+01 0. -1.
         -5    1    1    2    0  502 -0.32605925444E+01 -0.51176223041E+02  0.16167918838E+03  0.16966811610E+03  0.41800000000E+01 0. -1.
        -11    1    3    3    0    0  0.42191285926E+02  0.95216720522E+02  0.29255163366E+03  0.31053628907E+03  0.00000000000E+00 0. -1.
         11    1    3    3    0    0  0.14899492014E+02  0.19285435854E+02 -0.10959646201E+00  0.24370779834E+02  0.00000000000E+00 0.  1.
</event>
<event>
 7    1  0.4687179E-006  0.1149292E+03  0.7561462E-02  0.1251705E+00
         -3   -1    0    0    0  501 -0.00000000000E+00  0.00000000000E+00  0.33407981909E+03  0.33407981909E+03  0.00000000000E+00 0.  1.
          3   -1    0    0  501    0  0.00000000000E+00 -0.00000000000E+00 -0.44474299533E+02  0.44474299533E+02  0.00000000000E+00 0. -1.
         23    2    1    2    0    0  0.18836221817E+02 -0.50226494685E+02  0.13344368663E+03  0.17140472950E+03  0.93246231951E+02 0.  0.
          5    1    1    2  502    0  0.45088882306E+02  0.51486107862E+02  0.57385559974E+02  0.89411417078E+02  0.41800000000E+01 0.  1.
         -5    1    1    2    0  502 -0.63925104123E+02 -0.12596131764E+01  0.98776272959E+02  0.11773797205E+03  0.41800000000E+01 0.  1.
        -11    1    3    3    0    0  0.13423781811E+02  0.21468266437E+02  0.73685278113E+02  0.77914084686E+02  0.00000000000E+00 0.  1.
         11    1    3    3    0    0  0.54124400056E+01 -0.71694761122E+02  0.59758408513E+02  0.93490644811E+02  0.00000000000E+00 0. -1.
</event>
<event>
 7    1  0.4687179E-006  0.3419103E+03  0.7561462E-02  0.1065985E+00
         -2   -1    0    0    0  501 -0.00000000000E+00  0.00000000000E+00  0.91422922125E+02  0.91422922125E+02  0.00000000000E+00 0.  1.
          2   -1    0    0  501    0  0.00000000000E+00 -0.00000000000E+00 -0.13995848990E+04  0.13995848990E+04  0.00000000000E+00 0. -1.
         23    2    1    2    0    0  0.30838355507E+03  0.12269083571E+03 -0.80254400080E+03  0.87339022693E+03  0.92629137272E+02 0.  0.
          5    1    1    2  502    0 -0.24809116041E+03 -0.14282660883E+03 -0.44832045793E+03  0.53193737363E+03  0.41800000000E+01 0. -1.
         -5    1    1    2    0  502 -0.60292394655E+02  0.20135773112E+02 -0.57297518162E+02  0.85680220585E+02  0.41800000000E+01 0. -1.
        -11    1    3    3    0    0  0.11072201432E+03  0.25798432034E+02 -0.17821444973E+03  0.21138901022E+03  0.00000000000E+00 0. -1.
         11    1    3    3    0    0  0.19766154075E+03  0.96892403679E+02 -0.62432955107E+03  0.66200121671E+03  0.00000000000E+00 0.  1.
</event>
<event>
 7    1  0.4687179E-006  0.3485114E+03  0.7561462E-02  0.1063228E+00
          1   -1    0    0  501    0  0.00000000000E+00  0.00000000000E+00  0.17723705087E+04  0.17723705087E+04  0.00000000000E+00 0. -1.
         -1   -1    0    0    0  501 -0.00000000000E+00 -0.00000000000E+00 -0.20118572039E+03  0.20118572039E+03  0.00000000000E+00 0.  1.
         23    2    1    2    0    0  0.20919227858E+03 -0.27178474540E+03  0.15740232960E+04  0.16127433274E+04  0.75916706844E+02 0.  0.
          5    1    1    2  502    0 -0.10583084165E+03  0.69210732149E+02  0.32491300527E+02  0.13062713921E+03  0.41800000000E+01 0. -1.
         -5    1    1    2    0  502 -0.10336143694E+03  0.20257401325E+03 -0.35329808258E+02  0.23018576247E+03  0.41800000000E+01 0.  1.
        -11    1    3    3    0    0  0.15271804752E+03 -0.19320215289E+03  0.12711348890E+04  0.12947717096E+04  0.00000000000E+00 0. -1.
         11    1    3    3    0    0  0.56474231068E+02 -0.78582592516E+02  0.30288840703E+03  0.31797161781E+03  0.00000000000E+00 0.  1.
</event>
<event>
 7    1  0.4687179E-006  0.5426619E+02  0.7561462E-02  0.1423601E+00
         -2   -1    0    0    0  501 -0.00000000000E+00  0.00000000000E+00  0.65464294482E+02  0.65464294482E+02  0.00000000000E+00 0.  1.
          2   -1    0    0  501    0  0.00000000000E+00 -0.00000000000E+00 -0.29067170810E+03  0.29067170810E+03  0.00000000000E+00 0. -1.
         23    2    1    2    0    0 -0.13810375808E+02  0.24855125493E+02 -0.20068983162E+03  0.22149316525E+03  0.89298992124E+02 0.  0.
          5    1    1    2  502    0  0.10592223657E+02 -0.13038939214E+02 -0.77855889569E+02  0.79757263484E+02  0.41800000000E+01 0. -1.
         -5    1    1    2    0  502  0.32181521517E+01 -0.11816186279E+02  0.53338307573E+02  0.54885573844E+02  0.41800000000E+01 0.  1.
        -11    1    3    3    0    0  0.29381845517E+02  0.20891941029E+01 -0.23447510460E+02  0.37648948521E+02  0.00000000000E+00 0. -1.
         11    1    3    3    0    0 -0.43192221325E+02  0.22765931391E+02 -0.17724232116E+03  0.18384421673E+03  0.00000000000E+00 0.  1.
</event>
<event>
 7    1  0.4687179E-006  0.1194265E+03  0.7561462E-02  0.1244046E+00
          1   -1    0    0  501    0  0.00000000000E+00  0.00000000000E+00  0.90414481100E+03  0.90414481100E+03  0.00000000000E+00 0. -1.
         -1   -1    0    0    0  501 -0.00000000000E+00 -0.00000000000E+00 -0.25347746802E+02  0.25347746802E+02  0.00000000000E+00 0.  1.
         23    2    1    2    0    0 -0.20798913897E+02  0.92649194426E+02  0.52650601732E+03  0.54378137351E+03  0.97329994643E+02 0.  0.
          5    1    1    2  502    0  0.34888958851E+02 -0.40988871095E+02  0.35996444503E+02  0.64888700251E+02  0.41800000000E+01 0.  1.
         -5    1    1    2    0  502 -0.14090044955E+02 -0.51660323331E+02  0.31629460238E+03  0.32082248404E+03  0.41800000000E+01 0.  1.
        -11    1    3    3    0    0  0.35147545066E+02  0.23836350663E+02  0.10945235866E+03  0.11740247166E+03  0.00000000000E+00 0.  1.
         11    1    3    3    0    0 -0.55946458963E+02  0.68812843763E+02  0.41705365866E+03  0.42637890185E+03  0.00000000000E+00 0. -1.
</event>
<event>
 7    1  0.4687179E-006  0.1039435E+03  0.7561462E-02  0.1272215E+00
         -3   -1    0    0    0  501 -0.00000000000E+00  0.00000000000E+00  0.19683396026E+03  0.19683396026E+03  0.00000000000E+00 0.  1.
          3   -1    0    0  501    0  0.00000000000E+00 -0.00000000000E+00 -0.74759508160E+02  0.74759508160E+02  0.00000000000E+00 0. -1.
         23    2    1    2    0    0 -0.51452248945E+01 -0.21236921598E+02 -0.35731755141E+01  0.92953761833E+02  0.90278203779E+02 0.  0.
          5    1    1    2  502    0 -0.56924939143E+02  0.23926356323E+02  0.43906596333E+02  0.75882678029E+02  0.41800000000E+01 0.  1.
         -5    1    1    2    0  502  0.62070164038E+02 -0.26894347244E+01  0.81741031278E+02  0.10275702855E+03  0.41800000000E+01 0.  1.
        -11    1    3    3    0    0  0.14864299216E+02 -0.48035873093E+02  0.17710429239E+02  0.53310897562E+02  0.00000000000E+00 0.  1.
         11    1    3    3    0    0 -0.20009524110E+02  0.26798951495E+02 -0.21283604753E+02  0.39642864271E+02  0.00000000000E+00 0. -1.
</event>
<event>
 7    1  0.4687179E-006  0.1983258E+03  0.7561462E-02  0.1151159E+00
         -1   -1    0    0    0  501 -0.00000000000E+00  0.00000000000E+00  0.81314161323E+02  0.81314161323E+02  0.00000000000E+00 0.  1.
          1   -1    0    0  501    0  0.00000000000E+00 -0.00000000000E+00 -0.56759435394E+03  0.56759435394E+03  0.00000000000E+00 0. -1.
         23    2    1    2    0    0 -0.10493119684E+03  0.14552747537E+03 -0.30086502449E+03  0.36217707530E+03  0.91998199752E+02 0.  0.
          5    1    1    2  502    0  0.41784635426E+02 -0.11941001674E+03 -0.17721736677E+03  0.21778010777E+03  0.41800000000E+01 0.  1.
         -5    1    1    2    0  502  0.63146561410E+02 -0.26117458629E+02 -0.81978013566E+01  0.68951332186E+02  0.41800000000E+01 0.  1.
        -11    1    3    3    0    0 -0.20020157728E+01  0.79060729345E+02 -0.11593842604E+03  0.14034359845E+03  0.00000000000E+00 0.  1.
         11    1    3    3    0    0 -0.10292918106E+03  0.66466746026E+02 -0.18492659845E+03  0.22183347686E+03  0.00000000000E+00 0. -1.
</event>
<event>
 7    1  0.4687179E-006  0.1605982E+03  0.7561462E-02  0.1188023E+00
          2   -1    0    0  501    0  0.00000000000E+00  0.00000000000E+00  0.20038279015E+04  0.20038279015E+04  0.00000000000E+00 0.  1.
         -2   -1    0    0    0  501 -0.00000000000E+00 -0.00000000000E+00 -0.16627745393E+02  0.16627745393E+02  0.00000000000E+00 0. -1.
         23    2    1    2    0    0  0.64910031777E+02  0.11761670013E+03  0.61346351448E+03  0.63450956689E+03  0.90652669588E+02 0.  0.
          5    1    1    2  502    0 -0.95387667647E+02 -0.82142597963E+02  0.75530992194E+03  0.76573935783E+03  0.41800000000E+01 0.  1.
         -5    1    1    2    0  502  0.30477635871E+02 -0.35474102163E+02  0.61842671970E+03  0.62020672220E+03  0.41800000000E+01 0.  1.
        -11    1    3    3    0    0  0.63163936189E+01  0.76379493188E+02  0.18744208737E+03  0.20250496271E+03  0.00000000000E+00 0. -1.
         11    1    3    3    0    0  0.58593638158E+02  0.41237206938E+02  0.42602142711E+03  0.43200460418E+03  0.00000000000E+00 0.  1.
</event>
<event>
 7    1  0.4687179E-006  0.1786241E+03  0.7561462E-02  0.1169141E+00
          1   -1    0    0  501    0  0.00000000000E+00  0.00000000000E+00  0.11034342621E+03  0.11034342621E+03  0.00000000000E+00 0. -1.
         -1   -1    0    0    0  501 -0.00000000000E+00 -0.00000000000E+00 -0.39782446151E+03  0.39782446151E+03  0.00000000000E+00 0.  1.
         23    2    1    2    0    0  0.18199754609E+02  0.17323453082E+03 -0.92269182276E+02  0.21816618874E+03  0.93495722780E+02 0.  0.
          5    1    1    2  502    0  0.91913720779E+01 -0.10861330160E+03 -0.34215931613E+02  0.11432205816E+03  0.41800000000E+01 0.  1.
         -5    1    1    2    0  502 -0.27391126687E+02 -0.64621229215E+02 -0.16099592142E+03  0.17567964082E+03  0.41800000000E+01 0.  1.
        -11    1    3    3    0    0 -0.97103940320E+01  0.78402137249E+02  0.54195818760E+01  0.79186859675E+02  0.00000000000E+00 0. -1.
         11    1    3    3    0    0  0.27910148641E+02  0.94832393568E+02 -0.97688764152E+02  0.13897932907E+03  0.00000000000E+00 0.  1.
</event>
<event>
 7    1  0.4687179E-006  0.2109281E+03  0.7561462E-02  0.1140833E+00
         -1   -1    0    0    0  501 -0.00000000000E+00  0.00000000000E+00  0.20062125335E+03  0.20062125335E+03  0.00000000000E+00 0.  1.
          1   -1    0    0  501    0  0.00000000000E+00 -0.00000000000E+00 -0.30030122468E+03  0.30030122468E+03  0.00000000000E+00 0. -1.
         23    2    1    2    0    0 -0.18849063991E+03 -0.87208227749E+02 -0.12134144654E+03  0.25750690460E+03  0.91935101833E+02 0.  0.
          5    1    1    2  502    0  0.10498942475E+03  0.73846129709E+02  0.69646508495E+02  0.14609633372E+03  0.41800000000E+01 0.  1.
         -5    1    1    2    0  502  0.83501215162E+02  0.13362098040E+02 -0.47985033284E+02  0.97319239706E+02  0.41800000000E+01 0.  1.
        -11    1    3    3    0    0 -0.82408510971E+02 -0.49748624212E+02 -0.60955563765E+01  0.96453326013E+02  0.00000000000E+00 0.  1.
         11    1    3    3    0    0 -0.10608212894E+03 -0.37459603537E+02 -0.11524589016E+03  0.16105357859E+03  0.00000000000E+00 0. -1.
</event>
<event>
 7    1  0.4687179E-006  0.1339860E+03  0.7561462E-02  0.1221658E+00
         -1   -1    0    0    0  501 -0.00000000000E+00  0.00000000000E+00  0.72591764095E+02  0.72591764095E+02  0.00000000000E+00 0.  1.
          1   -1    0    0  501    0  0.00000000000E+00 -0.00000000000E+00 -0.27925908579E+03  0.27925908579E+03  0.00000000000E+00 0. -1.
         23    2    1    2    0    0 -0.78469308905E+02  0.33971021418E+02 -0.11331858521E+03  0.17388275749E+03  0.10041239397E+03 0.  0.
          5    1    1    2  502    0 -0.25328600517E+02 -0.33957223245E+02 -0.49293873273E+02  0.65130556246E+02  0.41800000000E+01 0. -1.
         -5    1    1    2    0  502  0.10379790942E+03 -0.13798172804E-01 -0.44054863208E+02  0.11283753614E+03  0.41800000000E+01 0. -1.
        -11    1    3    3    0    0 -0.83565808652E+02 -0.35640206783E+01 -0.43087414535E+02  0.94087575750E+02  0.00000000000E+00 0.  1.
         11    1    3    3    0    0  0.50964997471E+01  0.37535042097E+02 -0.70231170675E+02  0.79795181742E+02  0.00000000000E+00 0. -1.
</event>
<event>
 7    1  0.4687179E-006  0.8475382E+02  0.7561462E-02  0.1316078E+00
         -1   -1    0    0    0  501 -0.00000000000E+00  0.00000000000E+00  0.53464236021E+02  0.53464236021E+02  0.00000000000E+00 0.  1.
          1   -1    0    0  501    0  0.00000000000E+00 -0.00000000000E+00 -0.28498446988E+03  0.28498446988E+03  0.00000000000E+00 0. -1.
         23    2    1    2    0    0 -0.36277521121E+02 -0.39444948776E+02 -0.10186240554E+03  0.15048352031E+03  0.96940072726E+02 0.  0.
          5    1    1    2  502    0 -0.11763562062E+02 -0.87724480755E+01  0.19026217126E+02  0.24388656703E+02  0.41800000000E+01 0.  1.
         -5    1    1    2    0  502  0.48041083183E+02  0.48217396852E+02 -0.14868404545E+03  0.16357652889E+03  0.41800000000E+01 0.  1.
        -11    1    3    3    0    0 -0.24078903318E+02  0.16244644352E+02 -0.86780262167E+02  0.91512272165E+02  0.00000000000E+00 0. -1.
         11    1    3    3    0    0 -0.12198617802E+02 -0.55689593128E+02 -0.15082143372E+02  0.58971248145E+02  0.00000000000E+00 0.  1.
</event>
<event>
 7    1  0.4687179E-006  0.1022407E+03  0.7561462E-02  0.1275653E+00
         -1   -1    0    0    0  501 -0.00000000000E+00  0.00000000000E+00  0.18962012024E+03  0.18962012024E+03  0.00000000000E+00 0.  1.
          1   -1    0    0  501    0  0.00000000000E+00 -0.00000000000E+00 -0.10587368355E+03  0.10587368355E+03  0.00000000000E+00 0. -1.
         23    2    1    2    0    0  0.74519181633E+02  0.35855718684E+02 -0.18592055470E+01  0.12282475748E+03  0.90794952570E+02 0.  0.
          5    1    1    2  502    0 -0.62948587232E+02 -0.41054036613E+02  0.11667712595E+03  0.13884877629E+03  0.41800000000E+01 0.  1.
         -5    1    1    2    0  502 -0.11570594401E+02  0.51983179282E+01 -0.31071483713E+02  0.33820270020E+02  0.41800000000E+01 0.  1.
        -11    1    3    3    0    0  0.91115503133E+02  0.38744190424E+02  0.13624752460E+02  0.99943889671E+02  0.00000000000E+00 0. -1.
         11    1    3    3    0    0 -0.16596321500E+02 -0.28884717401E+01 -0.15483958007E+02  0.22880867813E+02  0.00000000000E+00 0.  1.
</event>
<event>
 7    1  0.4687179E-006  0.1031755E+03  0.7561462E-02  0.1273757E+00
         -1   -1    0    0    0  501 -0.00000000000E+00  0.00000000000E+00  0.14781315902E+03  0.14781315902E+03  0.00000000000E+00 0.  1.
          1   -1    0    0  501    0  0.00000000000E+00 -0.00000000000E+00 -0.15766888351E+03  0.15766888351E+03  0.00000000000E+00 0. -1.
         23    2    1    2    0    0 -0.78102234896E+02  0.36530086315E+02 -0.72358293316E+02  0.14119864966E+03  0.85246288795E+02 0.  0.
          5    1    1    2  502    0  0.92033383010E+02 -0.14017903296E+02 -0.32841871162E+01  0.93246466347E+02  0.41800000000E+01 0.  1.
         -5    1    1    2    0  502 -0.13931148114E+02 -0.22512183019E+02  0.65786755937E+02  0.71036926515E+02  0.41800000000E+01 0.  1.
        -11    1    3    3    0    0 -0.36235880157E+02  0.14273969395E+02  0.15054710920E+02  0.41754395385E+02  0.00000000000E+00 0.  1.
         11    1    3    3    0    0 -0.41866354739E+02  0.22256116920E+02 -0.87413004236E+02  0.99444254279E+02  0.00000000000E+00 0. -1.
</event>
<event>
 7    1  0.4687179E-006  0.1065896E+03  0.7561462E-02  0.1267019E+00
         -3   -1    0    0    0  501 -0.00000000000E+00  0.00000000000E+00  0.91303090198E+02  0.91303090198E+02  0.00000000000E+00 0.  1.
          3   -1    0    0  501    0  0.00000000000E+00 -0.00000000000E+00 -0.21394764727E+03  0.21394764727E+03  0.00000000000E+00 0. -1.
         23    2    1    2    0    0  0.41908327228E+01  0.36982415282E+02 -0.13281354723E+03  0.16872856148E+03  0.97183470880E+02 0.  0.
          5    1    1    2  502    0 -0.40946619528E+02 -0.55913053780E+02 -0.32764618568E+02  0.76771660551E+02  0.41800000000E+01 0. -1.
         -5    1    1    2    0  502  0.36755786805E+02  0.18930638499E+02  0.42933608722E+02  0.59750515441E+02  0.41800000000E+01 0.  1.
        -11    1    3    3    0    0 -0.44951559057E+02  0.25680480659E+02 -0.83175749186E+02  0.97971092682E+02  0.00000000000E+00 0. -1.
         11    1    3    3    0    0  0.49142391780E+02  0.11301934622E+02 -0.49637798041E+02  0.70757468796E+02  0.00000000000E+00 0.  1.
</event>
<event>
 7    1  0.4687179E-006  0.1401415E+03  0.7561462E-02  0.1213139E+00
          2   -1    0    0  501    0  0.00000000000E+00  0.00000000000E+00  0.14029207649E+03  0.14029207649E+03  0.00000000000E+00 0. -1.
         -2   -1    0    0    0  501 -0.00000000000E+00 -0.00000000000E+00 -0.20925093859E+03  0.20925093859E+03  0.00000000000E+00 0.  1.
         23    2    1    2    0    0  0.57088658821E+02  0.10233028499E+03  0.30370912351E+02  0.15144392858E+03  0.91006972226E+02 0.  0.
          5    1    1    2  502    0 -0.21314610049E+02 -0.96857808120E+02 -0.77809024098E+01  0.99567878544E+02  0.41800000000E+01 0. -1.
         -5    1    1    2    0  502 -0.35774048771E+02 -0.54724768672E+01 -0.91548872047E+02  0.98531207958E+02  0.41800000000E+01 0. -1.
        -11    1    3    3    0    0  0.39640737667E+02 -0.11405814792E+01  0.23923502895E+02  0.46314393008E+02  0.00000000000E+00 0.  1.
         11    1    3    3    0    0  0.17447921154E+02  0.10347086647E+03  0.64474094555E+01  0.10512953557E+03  0.00000000000E+00 0. -1.
</event>
<event>
 7    1  0.4687179E-006  0.7896237E+02  0.7561462E-02  0.1332022E+00
          1   -1    0    0  501    0  0.00000000000E+00  0.00000000000E+00  0.11203808828E+03  0.11203808828E+03  0.00000000000E+00 0. -1.
         -1   -1    0    0    0  501 -0.00000000000E+00 -0.00000000000E+00 -0.44663058124E+03  0.44663058124E+03  0.00000000000E+00 0.  1.
         23    2    1    2    0    0  0.27737871663E+02  0.11317237322E+02  0.82813145917E+02  0.12317262595E+03  0.86116254335E+02 0.  0.
          5    1    1    2  502    0  0.31825560590E+02  0.18134360557E+00 -0.32007700451E+02  0.45330613062E+02  0.41800000000E+01 0.  1.
         -5    1    1    2    0  502 -0.59563432253E+02 -0.11498580928E+02 -0.38539793842E+03  0.39016543051E+03  0.41800000000E+01 0.  1.
        -11    1    3    3    0    0  0.42269319172E+02 -0.56876931471E+01  0.90069313437E+02  0.99657044004E+02  0.00000000000E+00 0. -1.
         11    1    3    3    0    0 -0.14531447510E+02  0.17004930469E+02 -0.72561675199E+01  0.23515581942E+02  0.00000000000E+00 0.  1.
</event>
<event>
 7    1  0.4687179E-006  0.1332195E+03  0.7561462E-02  0.1222755E+00
         -1   -1    0    0    0  501 -0.00000000000E+00  0.00000000000E+00  0.47947181706E+02  0.47947181706E+02  0.00000000000E+00 0.  1.
          1   -1    0    0  501    0  0.00000000000E+00 -0.00000000000E+00 -0.56674091339E+03  0.56674091339E+03  0.00000000000E+00 0. -1.
         23    2    1    2    0    0 -0.69508636843E+02 -0.10129140396E+03 -0.27080178098E+03  0.31097994842E+03  0.91013870511E+02 0.  0.
          5    1    1    2  502    0  0.13704391792E+02  0.26775686748E+02  0.78975266808E+01  0.31378194386E+02  0.41800000000E+01 0. -1.
         -5    1    1    2    0  502  0.55804245052E+02  0.74515717214E+02 -0.25588947739E+03  0.27232995229E+03  0.41800000000E+01 0. -1.
        -11    1    3    3    0    0 -0.10854312712E+02 -0.79613340660E+02 -0.95196415614E+02  0.12457310168E+03  0.00000000000E+00 0.  1.
         11    1    3    3    0    0 -0.58654324131E+02 -0.21678063301E+02 -0.17560536537E+03  0.18640684674E+03  0.00000000000E+00 0. -1.
</event>
<event>
 7    1  0.4687179E-006  0.1599179E+03  0.7561462E-02  0.1188789E+00
         -1   -1    0    0    0  501 -0.00000000000E+00  0.00000000000E+00  0.16549550536E+03  0.16549550536E+03  0.00000000000E+00 0.  1.
          1   -1    0    0  501    0  0.00000000000E+00 -0.00000000000E+00 -0.17692324550E+03  0.17692324550E+03  0.00000000000E+00 0. -1.
         23    2    1    2    0    0 -0.10979735768E+03  0.44828926783E+02 -0.62935297115E+02  0.16251364631E+03  0.91568232391E+02 0.  0.
          5    1    1    2  502    0  0.12214208148E+03 -0.72109150678E+02  0.46024701041E+02  0.14917829328E+03  0.41800000000E+01 0. -1.
         -5    1    1    2    0  502 -0.12344723802E+02  0.27280223895E+02  0.54828559324E+01  0.30726811268E+02  0.41800000000E+01 0. -1.
        -11    1    3    3    0    0 -0.75308598730E+02  0.71698549119E+02 -0.56447402182E+02  0.11831473366E+03  0.00000000000E+00 0. -1.
         11    1    3    3    0    0 -0.34488758952E+02 -0.26869622336E+02 -0.64878949328E+01  0.44198912647E+02  0.00000000000E+00 0.  1.
</event>
<event>
 7    1  0.4687179E-006  0.8962316E+02  0.7561462E-02  0.1303767E+00
          2   -1    0    0  501    0  0.00000000000E+00  0.00000000000E+00  0.29077450278E+02  0.29077450278E+02  0.00000000000E+00 0. -1.
         -2   -1    0    0    0  501 -0.00000000000E+00 -0.00000000000E+00 -0.41063241741E+03  0.41063241741E+03  0.00000000000E+00 0.  1.
         23    2    1    2    0    0  0.14902351035E+02 -0.83316164161E+01 -0.16914312466E+03  0.19261155307E+03  0.90544562812E+02 0.  0.
          5    1    1    2  502    0  0.34589700465E+02 -0.65170203362E+01 -0.81630868987E+01  0.36373442510E+02  0.41800000000E+01 0.  1.
         -5    1    1    2    0  502 -0.49492051500E+02  0.14848636752E+02 -0.20424875557E+03  0.21072487211E+03  0.41800000000E+01 0.  1.
        -11    1    3    3    0    0  0.52800205552E+02  0.14516341260E+01 -0.91156829824E+02  0.10535433817E+03  0.00000000000E+00 0. -1.
         11    1    3    3    0    0 -0.37897854518E+02 -0.97832505422E+01 -0.77986294841E+02  0.87257214895E+02  0.00000000000E+00 0.  1.
</event>
<event>
 7    1  0.4687179E-006  0.2082602E+03  0.7561462E-02  0.1142951E+00
         -1   -1    0    0    0  501 -0.00000000000E+00  0.00000000000E+00  0.32613022185E+03  0.32613022185E+03  0.00000000000E+00 0.  1.
          1   -1    0    0  501    0  0.00000000000E+00 -0.00000000000E+00 -0.14373970724E+03  0.14373970724E+03  0.00000000000E+00 0. -1.
         23    2    1    2    0    0 -0.11583994757E+03 -0.98960492947E+02  0.51987262035E+02  0.18482449010E+03  0.90803877181E+02 0.  0.
          5    1    1    2  502    0 -0.30044497911E+02  0.87689617359E+02  0.60647855967E+01  0.92985992878E+02  0.41800000000E+01 0. -1.
         -5    1    1    2    0  502  0.14588444548E+03  0.11270875588E+02  0.12433846698E+03  0.19205944611E+03  0.41800000000E+01 0.  1.
        -11    1    3    3    0    0 -0.11351563025E+03 -0.11474014718E+03  0.47840624612E+02  0.16834436447E+03  0.00000000000E+00 0. -1.
         11    1    3    3    0    0 -0.23243173155E+01  0.15779654236E+02  0.41466374233E+01  0.16480125628E+02  0.00000000000E+00 0.  1.
</event>
<event>
 7    1  0.4687179E-006  0.1644898E+03  0.7561462E-02  0.1183719E+00
          2   -1    0    0  501    0  0.00000000000E+00  0.00000000000E+00  0.17304117196E+04  0.17304117196E+04  0.00000000000E+00 0. -1.
         -2   -1    0    0    0  501 -0.00000000000E+00 -0.00000000000E+00 -0.20360248395E+02  0.20360248395E+02  0.00000000000E+00 0.  1.
         23    2    1    2    0    0 -0.57796340060E+02 -0.13858238054E+03  0.92676639930E+03  0.94347494724E+03  0.93292679624E+02 0.  0.
          5    1    1    2  502    0  0.32330875347E+02  0.10740063957E+03  0.26974530272E+03  0.29216465156E+03  0.41800000000E+01 0. -1.
         -5    1    1    2    0  502  0.25465464713E+02  0.31181740966E+02  0.51353976919E+03  0.51513236920E+03  0.41800000000E+01 0. -1.
        -11    1    3    3    0    0  0.36766580238E+01 -0.10716630355E+03  0.59814379498E+03  0.60767930185E+03  0.00000000000E+00 0.  1.
         11    1    3    3    0    0 -0.61472998084E+02 -0.31416076992E+02  0.32862260433E+03  0.33579564539E+03  0.00000000000E+00 0. -1.
</event>
<event>
 7    1  0.4687179E-006  0.9961804E+02  0.7561462E-02  0.1281101E+00
         -1   -1    0    0    0  501 -0.00000000000E+00  0.00000000000E+00  0.78714830079E+02  0.78714830079E+02  0.00000000000E+00 0. -1.
          1   -1    0    0  501    0  0.00000000000E+00 -0.00000000000E+00 -0.18663721629E+03  0.18663721629E+03  0.00000000000E+00 0.  1.
         23    2    1    2    0    0 -0.16318007271E+02  0.44604972936E+02 -0.57361746350E+02  0.12231457723E+03  0.97028886864E+02 0.  0.
          5    1    1    2  502    0 -0.26299901288E+02  0.27309259465E+02 -0.45233949850E+02  0.59169781809E+02  0.41800000000E+01 0. -1.
         -5    1    1    2    0  502  0.42617908560E+02 -0.71914232401E+02 -0.53266900090E+01  0.83867687331E+02  0.41800000000E+01 0. -1.
        -11    1    3    3    0    0 -0.35852824878E+02  0.92913589716E+01  0.14598481743E+02  0.39810426681E+02  0.00000000000E+00 0. -1.
         11    1    3    3    0    0  0.19534817607E+02  0.35313613964E+02 -0.71960228093E+02  0.82504150547E+02  0.00000000000E+00 0.  1.
</event>
<event>
 7    1  0.4687179E-006  0.1796820E+03  0.7561462E-02  0.1168111E+00
         -2   -1    0    0    0  501 -0.00000000000E+00  0.00000000000E+00  0.35661235298E+02  0.35661235298E+02  0.00000000000E+00 0. -1.
          2   -1    0    0  501    0  0.00000000000E+00 -0.00000000000E+00 -0.99489484598E+03  0.99489484598E+03  0.00000000000E+00 0.  1.
         23    2    1    2    0    0  0.14255087732E+03  0.19692420596E+02 -0.60164079109E+03  0.62530449225E+03  0.91244300991E+02 0.  0.
          5    1    1    2  502    0 -0.33178179533E+01 -0.46765700329E+02 -0.11409545772E+03  0.12342319278E+03  0.41800000000E+01 0. -1.
         -5    1    1    2    0  502 -0.13923305937E+03  0.27073279733E+02 -0.24349736187E+03  0.28182839625E+03  0.41800000000E+01 0. -1.
        -11    1    3    3    0    0  0.78002007642E+02 -0.35277923561E+02 -0.30102392693E+03  0.31296046024E+03  0.00000000000E+00 0.  1.
         11    1    3    3    0    0  0.64548869680E+02  0.54970344157E+02 -0.30061686416E+03  0.31234403201E+03  0.00000000000E+00 0. -1.
</event>
<event>
 7    1  0.4687179E-006  0.1373376E+03  0.7561462E-02  0.1216957E+00
         -1   -1    0    0    0  501 -0.00000000000E+00  0.00000000000E+00  0.32637428195E+03  0.32637428195E+03  0.00000000000E+00 0.  1.
          1   -1    0    0  501    0  0.00000000000E+00 -0.00000000000E+00 -0.91602865900E+02  0.91602865900E+02  0.00000000000E+00 0. -1.
         23    2    1    2    0    0  0.37148337962E+02 -0.10276547363E+03  0.25837418885E+02  0.15106618442E+03  0.10105779672E+03 0.  0.
          5    1    1    2  502    0 -0.51940200787E+02  0.96319811147E+02  0.22078978650E+03  0.24645667510E+03  0.41800000000E+01 0.  1.
         -5    1    1    2    0  502  0.14791862825E+02  0.64456624820E+01 -0.11855789331E+02  0.20454288336E+02  0.41800000000E+01 0.  1.
        -11    1    3    3    0    0  0.14258373554E+02 -0.11936933458E+03  0.24919231961E+02  0.12277339848E+03  0.00000000000E+00 0.  1.
         11    1    3    3    0    0  0.22889964408E+02  0.16603860946E+02  0.91818692406E+00  0.28292785938E+02  0.00000000000E+00 0. -1.
</event>
<event>
 7    1  0.4687179E-006  0.2066224E+03  0.7561462E-02  0.1144269E+00
          3   -1    0    0  501    0  0.00000000000E+00  0.00000000000E+00  0.28018984683E+03  0.28018984683E+03  0.00000000000E+00 0. -1.
         -3   -1    0    0    0  501 -0.00000000000E+00 -0.00000000000E+00 -0.19458467760E+03  0.19458467760E+03  0.00000000000E+00 0.  1.
         23    2    1    2    0    0  0.19890820470E+03  0.35433500111E+02  0.84491702759E+02  0.23714292679E+03  0.90983037219E+02 0.  0.
          5    1    1    2  502    0 -0.47306366373E+02 -0.62947235017E+01 -0.55347611536E+02  0.73200726405E+02  0.41800000000E+01 0. -1.
         -5    1    1    2    0  502 -0.15160183833E+03 -0.29138776609E+02  0.56461078001E+02  0.16443087124E+03  0.41800000000E+01 0. -1.
        -11    1    3    3    0    0  0.17675362494E+03  0.98004779601E+01  0.95976717982E+02  0.20136887469E+03  0.00000000000E+00 0. -1.
         11    1    3    3    0    0  0.22154579762E+02  0.25633022151E+02 -0.11485015222E+02  0.35774052100E+02  0.00000000000E+00 0.  1.
</event>
<event>
 7    1  0.4687179E-006  0.1137830E+03  0.7561462E-02  0.1253720E+00
          4   -1    0    0  501    0  0.00000000000E+00  0.00000000000E+00  0.55924241583E+03  0.55924241583E+03  0.00000000000E+00 0. -1.
         -4   -1    0    0    0  501 -0.00000000000E+00 -0.00000000000E+00 -0.24263141477E+02  0.24263141477E+02  0.00000000000E+00 0.  1.
         23    2    1    2    0    0  0.55757522280E+01 -0.42656221721E+02  0.21664981988E+03  0.23878420790E+03  0.90719960467E+02 0.  0.
          5    1    1    2  502    0  0.23010155831E+02  0.80817118376E+02  0.19177077597E+03  0.20941436629E+03  0.41800000000E+01 0.  1.
         -5    1    1    2    0  502 -0.28585908059E+02 -0.38160896655E+02  0.12655867851E+03  0.13530698311E+03  0.41800000000E+01 0.  1.
        -11    1    3    3    0    0  0.73441413136E+01  0.25935626750E+02  0.32245139096E+02  0.42027873392E+02  0.00000000000E+00 0.  1.
         11    1    3    3    0    0 -0.17683890856E+01 -0.68591848471E+02  0.18440468078E+03  0.19675633451E+03  0.00000000000E+00 0. -1.
</event>
<event>
 7    1  0.4687179E-006  0.1000363E+03  0.7561462E-02  0.1280220E+00
          1   -1    0    0  501    0  0.00000000000E+00  0.00000000000E+00  0.49650110395E+03  0.49650110395E+03  0.00000000000E+00 0. -1.
         -1   -1    0    0    0  501 -0.00000000000E+00 -0.00000000000E+00 -0.25416092480E+02  0.25416092480E+02  0.00000000000E+00 0.  1.
         23    2    1    2    0    0 -0.18058693027E+02 -0.23278351302E+02  0.22872029384E+03  0.24758688838E+03  0.90101589615E+02 0.  0.
          5    1    1    2  502    0 -0.13736978115E+01 -0.41995928237E+02  0.31444211826E+02  0.52647468045E+02  0.41800000000E+01 0. -1.
         -5    1    1    2    0  502  0.19432390838E+02  0.65274279539E+02  0.21092050580E+03  0.22168284000E+03  0.41800000000E+01 0. -1.
        -11    1    3    3    0    0 -0.47276191518E+02  0.67039481322E+01  0.80777253453E+02  0.93834673125E+02  0.00000000000E+00 0.  1.
         11    1    3    3    0    0  0.29217498491E+02 -0.29982299434E+02  0.14794304039E+03  0.15375221526E+03  0.00000000000E+00 0. -1.
</event>
<event>
 7    1  0.4687179E-006  0.1115264E+03  0.7561462E-02  0.1257769E+00
         -4   -1    0    0    0  501 -0.00000000000E+00  0.00000000000E+00  0.12969893038E+03  0.12969893038E+03  0.00000000000E+00 0.  1.
          4   -1    0    0  501    0  0.00000000000E+00 -0.00000000000E+00 -0.16639354037E+03  0.16639354037E+03  0.00000000000E+00 0. -1.
         23    2    1    2    0    0  0.61674120297E+02  0.24824690185E+02 -0.89561574937E+02  0.14475042396E+03  0.92257504703E+02 0.  0.
          5    1    1    2  502    0  0.29982973052E+02 -0.25567577292E+02 -0.90556227484E+01  0.40646726621E+02  0.41800000000E+01 0.  1.
         -5    1    1    2    0  502 -0.91657093349E+02  0.74288710703E+00  0.61922587692E+02  0.11069532018E+03  0.41800000000E+01 0.  1.
        -11    1    3    3    0    0  0.73978087058E+02  0.27773703526E+02 -0.10062480841E+03  0.12794330010E+03  0.00000000000E+00 0. -1.
         11    1    3    3    0    0 -0.12303966761E+02 -0.29490133405E+01  0.11063233471E+02  0.16807123863E+02  0.00000000000E+00 0.  1.
</event>
<event>
 7    1  0.4687179E-006  0.8882283E+02  0.7561462E-02  0.1305728E+00
          2   -1    0    0  501    0  0.00000000000E+00  0.00000000000E+00  0.24966510427E+03  0.24966510427E+03  0.00000000000E+00 0. -1.
         -2   -1    0    0    0  501 -0.00000000000E+00 -0.00000000000E+00 -0.82919252310E+02  0.82919252310E+02  0.00000000000E+00 0.  1.
         23    2    1    2    0    0  0.82617504477E+02  0.96154331147E+01  0.14432493538E+03  0.18860686297E+03  0.88457634989E+02 0.  0.
          5    1    1    2  502    0 -0.21338433546E+02 -0.12452468496E+02  0.64683104333E+02  0.69366916495E+02  0.41800000000E+01 0. -1.
         -5    1    1    2    0  502 -0.61279070931E+02  0.28370353810E+01 -0.42262187752E+02  0.74610577115E+02  0.41800000000E+01 0.  1.
        -11    1    3    3    0    0  0.50864255003E+02 -0.12534572430E+02  0.16310908934E+02  0.54866507938E+02  0.00000000000E+00 0. -1.
         11    1    3    3    0    0  0.31753249474E+02  0.22150005545E+02  0.12801402645E+03  0.13374035503E+03  0.00000000000E+00 0.  1.
</event>
<event>
 7    1  0.4687179E-006  0.9537845E+02  0.7561462E-02  0.1290326E+00
          4   -1    0    0  501    0  0.00000000000E+00  0.00000000000E+00  0.10523706520E+03  0.10523706520E+03  0.00000000000E+00 0. -1.
         -4   -1    0    0    0  501 -0.00000000000E+00 -0.00000000000E+00 -0.15577318845E+03  0.15577318845E+03  0.00000000000E+00 0.  1.
         23    2    1    2    0    0 -0.34883168896E+02 -0.53711753783E+02 -0.43774467365E+00  0.11181480622E+03  0.91654630564E+02 0.  0.
          5    1    1    2  502    0  0.33699537330E+01  0.82647473401E+02  0.47299840555E+00  0.82823049782E+02  0.41800000000E+01 0.  1.
         -5    1    1    2    0  502  0.31513215163E+02 -0.28935719618E+02 -0.50571376983E+02  0.66372397649E+02  0.41800000000E+01 0.  1.
        -11    1    3    3    0    0 -0.49566933416E+01 -0.16318279829E+02 -0.43927201547E+02  0.47121694592E+02  0.00000000000E+00 0.  1.
         11    1    3    3    0    0 -0.29926475554E+02 -0.37393473954E+02  0.43489456874E+02  0.64693111632E+02  0.00000000000E+00 0. -1.
</event>
<event>
 7    1  0.4687179E-006  0.1470022E+03  0.7561462E-02  0.1204206E+00
         -1   -1    0    0    0  501 -0.00000000000E+00  0.00000000000E+00  0.16975465743E+03  0.16975465743E+03  0.00000000000E+00 0.  1.
          1   -1    0    0  501    0  0.00000000000E+00 -0.00000000000E+00 -0.17620415403E+03  0.17620415403E+03  0.00000000000E+00 0. -1.
         23    2    1    2    0    0 -0.31380023236E+02 -0.96568338685E+02 -0.91754022642E+02  0.16365581333E+03  0.89745610880E+02 0.  0.
          5    1    1    2  502    0  0.72209877790E+02  0.92242099129E+02  0.47982990096E+02  0.12665982410E+03  0.41800000000E+01 0. -1.
         -5    1    1    2    0  502 -0.40829854554E+02  0.43262395565E+01  0.37321535944E+02  0.55643174037E+02  0.41800000000E+01 0. -1.
        -11    1    3    3    0    0  0.17346571565E+02 -0.83197686731E+02 -0.57267193205E+02  0.10248068130E+03  0.00000000000E+00 0.  1.
         11    1    3    3    0    0 -0.48726594801E+02 -0.13370651954E+02 -0.34486829436E+02  0.61175132032E+02  0.00000000000E+00 0. -1.
</event>
<event>
 7    1  0.4687179E-006  0.1071704E+03  0.7561462E-02  0.1265901E+00
          2   -1    0    0  501    0  0.00000000000E+00  0.00000000000E+00  0.65640786737E+03  0.65640786737E+03  0.00000000000E+00 0.  1.
         -2   -1    0    0    0  501 -0.00000000000E+00 -0.00000000000E+00 -0.19052973799E+02  0.19052973799E+02  0.00000000000E+00 0. -1.
         23    2    1    2    0    0  0.28575926667E+02 -0.57277473042E+01  0.25023919443E+03  0.26759369257E+03  0.90207201488E+02 0.  0.
          5    1    1    2  502    0  0.39735100196E+02 -0.30907941452E+02  0.16639519977E+03  0.17389368574E+03  0.41800000000E+01 0.  1.
         -5    1    1    2    0  502 -0.68311026863E+02  0.36635688756E+02  0.22072049937E+03  0.23397346286E+03  0.41800000000E+01 0.  1.
        -11    1    3    3    0    0  0.15043718387E+02 -0.43525609075E+02  0.76633193213E+02  0.89406031174E+02  0.00000000000E+00 0. -1.
         11    1    3    3    0    0  0.13532208280E+02  0.37797861771E+02  0.17360600122E+03  0.17818766140E+03  0.00000000000E+00 0.  1.
</event>
<event>
 7    1  0.4687179E-006  0.9738286E+02  0.7561462E-02  0.1285898E+00
          2   -1    0    0  501    0  0.00000000000E+00  0.00000000000E+00  0.14164510198E+03  0.14164510198E+03  0.00000000000E+00 0.  1.
         -2   -1    0    0    0  501 -0.00000000000E+00 -0.00000000000E+00 -0.85879093735E+02  0.85879093735E+02  0.00000000000E+00 0. -1.
         23    2    1    2    0    0  0.40378737583E+01 -0.18631135838E+02  0.41177132091E+02  0.10016456533E+03  0.89297034069E+02 0.  0.
          5    1    1    2  502    0  0.38373551741E+02  0.56042053093E+02  0.18493480447E+02  0.70517532622E+02  0.41800000000E+01 0. -1.
         -5    1    1    2    0  502 -0.42411425500E+02 -0.37410917255E+02 -0.39046042964E+01  0.56842097758E+02  0.41800000000E+01 0. -1.
        -11    1    3    3    0    0 -0.31148902568E+02 -0.15185858400E+02 -0.11683750878E+02  0.36570130723E+02  0.00000000000E+00 0. -1.
         11    1    3    3    0    0  0.35186776326E+02 -0.34452774378E+01  0.52860882969E+02  0.63594434608E+02  0.00000000000E+00 0.  1.
</event>
<event>
 7    1  0.4687179E-006  0.1337944E+03  0.7561462E-02  0.1221932E+00
         -2   -1    0    0    0  501 -0.00000000000E+00  0.00000000000E+00  0.56337101745E+02  0.56337101745E+02  0.00000000000E+00 0.  1.
          2   -1    0    0  501    0  0.00000000000E+00 -0.00000000000E+00 -0.36279584164E+03  0.36279584164E+03  0.00000000000E+00 0. -1.
         23    2    1    2    0    0  0.87403693281E+02 -0.29858242044E+01 -0.18472930657E+03  0.22391625387E+03  0.91461747722E+02 0.  0.
          5    1    1    2  502    0 -0.15325220229E+02 -0.54367083748E+02 -0.67993426608E+02  0.88494184172E+02  0.41800000000E+01 0.  1.
         -5    1    1    2    0  502 -0.72078473053E+02  0.57352907952E+02 -0.53736006713E+02  0.10672250534E+03  0.41800000000E+01 0.  1.
        -11    1    3    3    0    0 -0.97036434902E+01 -0.18030288726E+02 -0.85574134550E+01  0.22191920457E+02  0.00000000000E+00 0.  1.
         11    1    3    3    0    0  0.97107336772E+02  0.15044464522E+02 -0.17617189311E+03  0.20172433341E+03  0.00000000000E+00 0. -1.
</event>
<event>
 7    1  0.4687179E-006  0.1437197E+03  0.7561462E-02  0.1208410E+00
          4   -1    0    0  501    0  0.00000000000E+00  0.00000000000E+00  0.30471335848E+02  0.30471335848E+02  0.00000000000E+00 0. -1.
         -4   -1    0    0    0  501 -0.00000000000E+00 -0.00000000000E+00 -0.99233648468E+03  0.99233648468E+03  0.00000000000E+00 0.  1.
         23    2    1    2    0    0 -0.27813605616E+02 -0.10203499467E+03 -0.20484132848E+03  0.24826427753E+03  0.92143609936E+02 0.  0.
          5    1    1    2  502    0  0.50979703742E+02  0.11081212660E+03 -0.44265005407E+03  0.45916750796E+03  0.41800000000E+01 0. -1.
         -5    1    1    2    0  502 -0.23166098126E+02 -0.87771319234E+01 -0.31437376629E+03  0.31537603504E+03  0.41800000000E+01 0. -1.
        -11    1    3    3    0    0 -0.61796463349E+02 -0.72317142174E+02 -0.13871146090E+03  0.16819465306E+03  0.00000000000E+00 0.  1.
         11    1    3    3    0    0  0.33982857733E+02 -0.29717852500E+02 -0.66129867577E+02  0.80069624469E+02  0.00000000000E+00 0. -1.
</event>
<event>
 7    1  0.4687179E-006  0.1048555E+03  0.7561462E-02  0.1270405E+00
         -2   -1    0    0    0  501 -0.00000000000E+00  0.00000000000E+00  0.88678790342E+02  0.88678790342E+02  0.00000000000E+00 0.  1.
          2   -1    0    0  501    0  0.00000000000E+00 -0.00000000000E+00 -0.60395060997E+03  0.60395060997E+03  0.00000000000E+00 0. -1.
         23    2    1    2    0    0  0.47487388780E+02 -0.69775468955E+02 -0.53480338739E+03  0.54946363398E+03  0.93658708884E+02 0.  0.
          5    1    1    2  502    0 -0.22264372135E+02  0.36594087167E+02 -0.47515145968E+02  0.64109211339E+02  0.41800000000E+01 0. -1.
         -5    1    1    2    0  502 -0.25223016645E+02  0.33181381788E+02  0.67046713724E+02  0.79056554992E+02  0.41800000000E+01 0.  1.
        -11    1    3    3    0    0 -0.43922392230E+01  0.20336057273E+02 -0.12231340390E+03  0.12407020498E+03  0.00000000000E+00 0.  1.
         11    1    3    3    0    0  0.51879628004E+02 -0.90111526229E+02 -0.41248998348E+03  0.42539342900E+03  0.00000000000E+00 0. -1.
</event>
<event>
 7    1  0.4687179E-006  0.1741912E+03  0.7561462E-02  0.1173546E+00
          1   -1    0    0  501    0  0.00000000000E+00  0.00000000000E+00  0.18057288815E+03  0.18057288815E+03  0.00000000000E+00 0. -1.
         -1   -1    0    0    0  501 -0.00000000000E+00 -0.00000000000E+00 -0.20059845465E+03  0.20059845465E+03  0.00000000000E+00 0.  1.
         23    2    1    2    0    0  0.32189540024E+02 -0.15141934179E+03 -0.29215809876E+02  0.18193303509E+03  0.91005945719E+02 0.  0.
          5    1    1    2  502    0 -0.61904635952E+02  0.42997377938E+02 -0.28359289285E+02  0.80639197359E+02  0.41800000000E+01 0.  1.
         -5    1    1    2    0  502  0.29715095928E+02  0.10842196385E+03  0.37549532661E+02  0.11859911035E+03  0.41800000000E+01 0.  1.
        -11    1    3    3    0    0  0.12122818970E+02 -0.13171908393E+03 -0.55494160763E+02  0.14344504763E+03  0.00000000000E+00 0.  1.
         11    1    3    3    0    0  0.20066721054E+02 -0.19700257866E+02  0.26278350887E+02  0.38487987466E+02  0.00000000000E+00 0. -1.
</event>
<event>
 7    1  0.4687179E-006  0.1196559E+03  0.7561462E-02  0.1243666E+00
         -3   -1    0    0    0  501 -0.00000000000E+00  0.00000000000E+00  0.23409241307E+03  0.23409241307E+03  0.00000000000E+00 0. -1.
          3   -1    0    0  501    0  0.00000000000E+00 -0.00000000000E+00 -0.81897430686E+02  0.81897430686E+02  0.00000000000E+00 0.  1.
         23    2    1    2    0    0  0.94770338304E+01  0.56476037552E+02 -0.51783588145E+01  0.10696314185E+03  0.90193909590E+02 0.  0.
          5    1    1    2  502    0  0.56590802278E+02 -0.39775251948E+02  0.79162532886E+02  0.10520821538E+03  0.41800000000E+01 0. -1.
         -5    1    1    2    0  502 -0.66067836108E+02 -0.16700785603E+02  0.78210808308E+02  0.10381848652E+03  0.41800000000E+01 0. -1.
        -11    1    3    3    0    0 -0.28481265469E+02  0.57065182464E+02  0.12653301644E+02  0.65020947201E+02  0.00000000000E+00 0. -1.
         11    1    3    3    0    0  0.37958299300E+02 -0.58914491248E+00 -0.17831660459E+02  0.41942194651E+02  0.00000000000E+00 0.  1.
</event>
<event>
 7    1  0.4687179E-006  0.1083600E+03  0.7561462E-02  0.1263637E+00
          4   -1    0    0  501    0  0.00000000000E+00  0.00000000000E+00  0.42799773089E+02  0.42799773089E+02  0.00000000000E+00 0. -1.
         -4   -1    0    0    0  501 -0.00000000000E+00 -0.00000000000E+00 -0.41560157158E+03  0.41560157158E+03  0.00000000000E+00 0.  1.
         23    2    1    2    0    0  0.41840533392E+02  0.26200814879E+02 -0.69134684843E+02  0.12629190968E+03  0.93450141083E+02 0.  0.
          5    1    1    2  502    0  0.30627287607E+02  0.14978718185E+02 -0.17780589765E+03  0.18109335267E+03  0.41800000000E+01 0. -1.
         -5    1    1    2    0  502 -0.72467820999E+02 -0.41179533063E+02 -0.12586121600E+03  0.15101608231E+03  0.41800000000E+01 0. -1.
        -11    1    3    3    0    0  0.39862838931E+02  0.56171915497E+02 -0.67142504399E+02  0.96189635176E+02  0.00000000000E+00 0.  1.
         11    1    3    3    0    0  0.19776944606E+01 -0.29971100618E+02 -0.19921804440E+01  0.30102274508E+02  0.00000000000E+00 0. -1.
</event>
<event>
 7    1  0.4687179E-006  0.9381159E+02  0.7561462E-02  0.1293875E+00
          3   -1    0    0  501    0  0.00000000000E+00  0.00000000000E+00  0.20237441608E+02  0.20237441608E+02  0.00000000000E+00 0. -1.
         -3   -1    0    0    0  501 -0.00000000000E+00 -0.00000000000E+00 -0.66913711920E+03  0.66913711920E+03  0.00000000000E+00 0.  1.
         23    2    1    2    0    0 -0.75438670466E+01 -0.14155684100E+01 -0.16162530906E+03  0.18624141374E+03  0.92218273132E+02 0.  0.
          5    1    1    2  502    0  0.17231188585E+02 -0.53363047396E+02 -0.13159648950E+03  0.14310708276E+03  0.41800000000E+01 0. -1.
         -5    1    1    2    0  502 -0.96873215382E+01  0.54778615806E+02 -0.35567787903E+03  0.36002606431E+03  0.41800000000E+01 0. -1.
        -11    1    3    3    0    0  0.15528829708E+02  0.31668640519E+02 -0.13081127517E+03  0.13548297700E+03  0.00000000000E+00 0.  1.
         11    1    3    3    0    0 -0.23072696754E+02 -0.33084208929E+02 -0.30814033887E+02  0.50758436741E+02  0.00000000000E+00 0. -1.
</event>
<event>
 7    1  0.4687179E-006  0.1396218E+03  0.7561462E-02  0.1213839E+00
         -1   -1    0    0    0  501 -0.00000000000E+00  0.00000000000E+00  0.77815334914E+03  0.77815334914E+03  0.00000000000E+00 0.  1.
          1   -1    0    0  501    0  0.00000000000E+00 -0.00000000000E+00 -0.31009381042E+02  0.31009381042E+02  0.00000000000E+00 0. -1.
         23    2    1    2    0    0  0.10626052012E+03  0.25841953322E+02  0.29498594526E+03  0.32744138882E+03  0.90785739665E+02 0.  0.
          5    1    1    2  502    0  0.79347858151E+01  0.14142036220E+02  0.21308947012E+03  0.21374646825E+03  0.41800000000E+01 0. -1.
         -5    1    1    2    0  502 -0.11419530593E+03 -0.39983989542E+02  0.23906855272E+03  0.26797487311E+03  0.41800000000E+01 0. -1.
        -11    1    3    3    0    0 -0.15606600884E+02  0.10010734588E+02  0.28732814686E+02  0.34195839483E+02  0.00000000000E+00 0. -1.
         11    1    3    3    0    0  0.12186712100E+03  0.15831218734E+02  0.26625313057E+03  0.29324554934E+03  0.00000000000E+00 0.  1.
</event>
<event>
 7    1  0.4687179E-006  0.1875046E+03  0.7561462E-02  0.1160731E+00
          2   -1    0    0  501    0  0.00000000000E+00  0.00000000000E+00  0.35456787818E+03  0.35456787818E+03  0.00000000000E+00 0. -1.
         -2   -1    0    0    0  501 -0.00000000000E+00 -0.00000000000E+00 -0.10405030051E+03  0.10405030051E+03  0.00000000000E+00 0.  1.
         23    2    1    2    0    0  0.55071408984E+02 -0.14378757168E+03  0.16551681237E+03  0.24279261451E+03  0.88570382331E+02 0.  0.
          5    1    1    2  502    0  0.37030899302E+01 -0.21359693560E+02  0.16558930421E+02  0.27597462940E+02  0.41800000000E+01 0.  1.
         -5    1    1    2    0  502 -0.58774498914E+02  0.16514726524E+03  0.68441834878E+02  0.18822810125E+03  0.41800000000E+01 0.  1.
        -11    1    3    3    0    0  0.77691773365E+02 -0.87999144124E+02  0.10688210659E+03  0.15875656120E+03  0.00000000000E+00 0.  1.
         11    1    3    3    0    0 -0.22620364381E+02 -0.55788427554E+02  0.58634705777E+02  0.84036053306E+02  0.00000000000E+00 0. -1.
</event>
<event>
 7    1  0.4687179E-006  0.9470125E+02  0.7561462E-02  0.1291850E+00
          4   -1    0    0  501    0  0.00000000000E+00  0.00000000000E+00  0.21433655032E+02  0.21433655032E+02  0.00000000000E+00 0.  1.
         -4   -1    0    0    0  501 -0.00000000000E+00 -0.00000000000E+00 -0.87275156931E+03  0.87275156931E+03  0.00000000000E+00 0. -1.
         23    2    1    2    0    0  0.28380471576E+02  0.63433416714E+02 -0.23697574484E+03  0.26339747358E+03  0.91604999439E+02 0.  0.
          5    1    1    2  502    0  0.49302540728E+01 -0.17117848795E+02 -0.52784976102E+01  0.19043715226E+02  0.41800000000E+01 0. -1.
         -5    1    1    2    0  502 -0.33310725649E+02 -0.46315567919E+02 -0.60906367183E+03  0.61174403554E+03  0.41800000000E+01 0. -1.
        -11    1    3    3    0    0 -0.21080910362E+02  0.60821677623E+02 -0.15149312070E+03  0.16460208647E+03  0.00000000000E+00 0. -1.
         11    1    3    3    0    0  0.49461381938E+02  0.26117390917E+01 -0.85482624140E+02  0.98795387109E+02  0.00000000000E+00 0.  1.
</event>
<event>
 7    1  0.4687179E-006  0.9915414E+02  0.7561462E-02  0.1282085E+00
          2   -1    0    0  501    0  0.00000000000E+00  0.00000000000E+00  0.16046302173E+03  0.16046302173E+03  0.00000000000E+00 0. -1.
         -2   -1    0    0    0  501 -0.00000000000E+00 -0.00000000000E+00 -0.76839391516E+02  0.76839391516E+02  0.00000000000E+00 0.  1.
         23    2    1    2    0    0  0.20589445175E+02 -0.21267013756E+01  0.22630970989E+02  0.96603628787E+02  0.91605961244E+02 0.  0.
          5    1    1    2  502    0  0.31345230845E+02  0.33675287625E+02 -0.98887320095E+01  0.47242014289E+02  0.41800000000E+01 0. -1.
         -5    1    1    2    0  502 -0.51934676020E+02 -0.31548586249E+02  0.70881391236E+02  0.93456770173E+02  0.41800000000E+01 0. -1.
        -11    1    3    3    0    0 -0.79107208430E+01 -0.41695255452E+02  0.22073727387E+02  0.47836422026E+02  0.00000000000E+00 0. -1.
         11    1    3    3    0    0  0.28500166018E+02  0.39568554077E+02  0.55724360201E+00  0.48767206760E+02  0.00000000000E+00 0.  1.
</event>
<event>
 7    1  0.4687179E-006  0.1286011E+03  0.7561462E-02  0.1229546E+00
         -1   -1    0    0    0  501 -0.00000000000E+00  0.00000000000E+00  0.56756692247E+02  0.56756692247E+02  0.00000000000E+00 0.  1.
          1   -1    0    0  501    0  0.00000000000E+00 -0.00000000000E+00 -0.41095134989E+03  0.41095134989E+03  0.00000000000E+00 0. -1.
         23    2    1    2    0    0 -0.54557143708E+02  0.65361644849E+02 -0.26144699776E+03  0.29022969022E+03  0.92898406344E+02 0.  0.
          5    1    1    2  502    0  0.87466841146E+02 -0.30381944428E+02 -0.89996256415E+02  0.12919098040E+03  0.41800000000E+01 0.  1.
         -5    1    1    2    0  502 -0.32909697438E+02 -0.34979700422E+02 -0.27514034680E+01  0.48287371518E+02  0.41800000000E+01 0.  1.
        -11    1    3    3    0    0 -0.30843615486E+02 -0.13710991797E+02 -0.32510231565E+02  0.46864006110E+02  0.00000000000E+00 0.  1.
         11    1    3    3    0    0 -0.23713528222E+02  0.79072636647E+02 -0.22893676619E+03  0.24336568411E+03  0.00000000000E+00 0. -1.
</event>
<event>
 7    1  0.4687179E-006  0.8888890E+02  0.7561462E-02  0.1305565E+00
          1   -1    0    0  501    0  0.00000000000E+00  0.00000000000E+00  0.11545365806E+03  0.11545365806E+03  0.00000000000E+00 0. -1.
         -1   -1    0    0    0  501 -0.00000000000E+00 -0.00000000000E+00 -0.17542310023E+03  0.17542310023E+03  0.00000000000E+00 0.  1.
         23    2    1    2    0    0  0.29802345784E+02  0.20555816840E+02  0.58814778101E+02  0.11461469966E+03  0.91469283555E+02 0.  0.
          5    1    1    2  502    0  0.23740332682E+01  0.41726070632E+02 -0.46577466373E+01  0.42259531565E+02  0.41800000000E+01 0.  1.
         -5    1    1    2    0  502 -0.32176379052E+02 -0.62281887472E+02 -0.11412647363E+03  0.13400252706E+03  0.41800000000E+01 0.  1.
        -11    1    3    3    0    0  0.32936238236E+02 -0.10319333620E+02 -0.12604293194E+02  0.36744423283E+02  0.00000000000E+00 0.  1.
         11    1    3    3    0    0 -0.31338924520E+01  0.30875150461E+02  0.71419071295E+02  0.77870276374E+02  0.00000000000E+00 0. -1.
</event>
<event>
 7    1  0.4687179E-006  0.1103515E+03  0.7561462E-02  0.1259920E+00
          4   -1    0    0  501    0  0.00000000000E+00  0.00000000000E+00  0.58410402922E+03  0.58410402922E+03  0.00000000000E+00 0.  1.
         -4   -1    0    0    0  501 -0.00000000000E+00 -0.00000000000E+00 -0.22921827387E+02  0.22921827387E+02  0.00000000000E+00 0. -1.
         23    2    1    2    0    0 -0.10810739671E+02  0.23191404317E+02  0.30716584754E+03  0.32271945288E+03  0.95615239614E+02 0.  0.
          5    1    1    2  502    0 -0.33922782700E+02  0.38371922849E+02  0.97012184079E+02  0.10978158274E+03  0.41800000000E+01 0.  1.
         -5    1    1    2    0  502  0.44733522371E+02 -0.61563327166E+02  0.15700417022E+03  0.17452482099E+03  0.41800000000E+01 0.  1.
        -11    1    3    3    0    0 -0.26684847987E+02  0.52995064888E+02  0.24381673248E+03  0.25093257471E+03  0.00000000000E+00 0.  1.
         11    1    3    3    0    0  0.15874108316E+02 -0.29803660571E+02  0.63349115054E+02  0.71786878163E+02  0.00000000000E+00 0. -1.
</event>
<event>
 7    1  0.4687179E-006  0.1021130E+03  0.7561462E-02  0.1275914E+00
          2   -1    0    0  501    0  0.00000000000E+00  0.00000000000E+00  0.31588339312E+03  0.31588339312E+03  0.00000000000E+00 0. -1.
         -2   -1    0    0    0  501 -0.00000000000E+00 -0.00000000000E+00 -0.58151917125E+02  0.58151917125E+02  0.00000000000E+00 0.  1.
         23    2    1    2    0    0  0.75197157364E+01  0.75683942236E+02  0.15224003155E+03  0.19358755582E+03  0.92274098874E+02 0.  0.
          5    1    1    2  502    0  0.65320527036E+01  0.23115838280E+02 -0.11213218031E+02  0.26836884143E+02  0.41800000000E+01 0. -1.
         -5    1    1    2    0  502 -0.14051768440E+02 -0.98799780516E+02  0.11670466247E+03  0.15361087028E+03  0.41800000000E+01 0. -1.
        -11    1    3    3    0    0  0.16528795500E+02  0.54253491122E+02  0.21273752122E+02  0.60574044846E+02  0.00000000000E+00 0.  1.
         11    1    3    3    0    0 -0.90090797640E+01  0.21430451114E+02  0.13096627943E+03  0.13301351097E+03  0.00000000000E+00 0. -1.
</event>
<event>
 7    1  0.4687179E-006  0.1902757E+03  0.7561462E-02  0.1158213E+00
         -1   -1    0    0    0  501 -0.00000000000E+00  0.00000000000E+00  0.58221501553E+02  0.58221501553E+02  0.00000000000E+00 0.  1.
          1   -1    0    0  501    0  0.00000000000E+00 -0.00000000000E+00 -0.80863399939E+03  0.80863399939E+03  0.00000000000E+00 0. -1.
         23    2    1    2    0    0 -0.14889402008E+03 -0.88458863664E+02 -0.51583606716E+03  0.54956932656E+03  0.77105101879E+02 0.  0.
          5    1    1    2  502    0  0.11185289420E+03  0.10853592908E+03 -0.22522763412E+03  0.27392713888E+03  0.41800000000E+01 0.  1.
         -5    1    1    2    0  502  0.37041125885E+02 -0.20077065416E+02 -0.93487965512E+01  0.43359035500E+02  0.41800000000E+01 0.  1.
        -11    1    3    3    0    0 -0.10280022100E+03 -0.28511909361E+02 -0.22417078157E+03  0.24826065682E+03  0.00000000000E+00 0.  1.
         11    1    3    3    0    0 -0.46093799080E+02 -0.59946954302E+02 -0.29166528559E+03  0.30130866975E+03  0.00000000000E+00 0. -1.
</event>
<event>
 7    1  0.4687179E-006  0.1036907E+03  0.7561462E-02  0.1272721E+00
          4   -1    0    0  501    0  0.00000000000E+00  0.00000000000E+00  0.27255606745E+02  0.27255606745E+02  0.00000000000E+00 0. -1.
         -4   -1    0    0    0  501 -0.00000000000E+00 -0.00000000000E+00 -0.55564333076E+03  0.55564333076E+03  0.00000000000E+00 0.  1.
         23    2    1    2    0    0  0.33012697027E+02 -0.44683129077E+02 -0.20022714079E+03  0.22733649556E+03  0.92220139433E+02 0.  0.
          5    1    1    2  502    0 -0.20782654827E+02 -0.22838333854E+02 -0.24804230352E+03  0.24999192981E+03  0.41800000000E+01 0. -1.
         -5    1    1    2    0  502 -0.12230042200E+02  0.67521462931E+02 -0.80118279703E+02  0.10557051213E+03  0.41800000000E+01 0. -1.
        -11    1    3    3    0    0  0.64979218766E+02 -0.23373413378E+02 -0.13498922679E+03  0.15162686660E+03  0.00000000000E+00 0. -1.
         11    1    3    3    0    0 -0.31966521739E+02 -0.21309715700E+02 -0.65237913994E+02  0.75709628962E+02  0.00000000000E+00 0.  1.
</event>
<event>
 7    1  0.4687179E-006  0.9472771E+02  0.7561462E-02  0.1291791E+00
         -3   -1    0    0    0  501 -0.00000000000E+00  0.00000000000E+00  0.55376864368E+02  0.55376864368E+02  0.00000000000E+00 0.  1.
          3   -1    0    0  501    0  0.00000000000E+00 -0.00000000000E+00 -0.23585024702E+03  0.23585024702E+03  0.00000000000E+00 0. -1.
         23    2    1    2    0    0  0.15551954079E+02  0.43249982014E+02 -0.11566538521E+03  0.15430630361E+03  0.91211456402E+02 0.  0.
          5    1    1    2  502    0 -0.50205410190E+02 -0.16914364331E+02 -0.75099741293E+02  0.92000665625E+02  0.41800000000E+01 0. -1.
         -5    1    1    2    0  502  0.34653456110E+02 -0.26335617682E+02  0.10291743853E+02  0.44920142148E+02  0.41800000000E+01 0.  1.
        -11    1    3    3    0    0  0.26535186764E+02  0.63904258797E+02 -0.52226699322E+02  0.86691975126E+02  0.00000000000E+00 0. -1.
         11    1    3    3    0    0 -0.10983232685E+02 -0.20654276784E+02 -0.63438685886E+02  0.67614328486E+02  0.00000000000E+00 0.  1.
</event>
<event>
 7    1  0.4687179E-006  0.1006661E+03  0.7561462E-02  0.1278901E+00
         -1   -1    0    0    0  501 -0.00000000000E+00  0.00000000000E+00  0.45768794860E+02  0.45768794860E+02  0.00000000000E+00 0.  1.
          1   -1    0    0  501    0  0.00000000000E+00 -0.00000000000E+00 -0.35669180253E+03  0.35669180253E+03  0.00000000000E+00 0. -1.
         23    2    1    2    0    0 -0.41540503999E+02  0.21333378619E+02 -0.21577196118E+03  0.23850782553E+03  0.90264705696E+02 0.  0.
          5    1    1    2  502    0 -0.17286574447E+02 -0.35297187683E+02 -0.95489129000E+02  0.10334584303E+03  0.41800000000E+01 0.  1.
         -5    1    1    2    0  502  0.58827078446E+02  0.13963809065E+02  0.33808250567E+00  0.60606928827E+02  0.41800000000E+01 0.  1.
        -11    1    3    3    0    0 -0.41739920518E+01 -0.34097651468E+02 -0.63182590871E+02  0.71917395910E+02  0.00000000000E+00 0. -1.
         11    1    3    3    0    0 -0.37366511947E+02  0.55431030087E+02 -0.15258937030E+03  0.16659042962E+03  0.00000000000E+00 0.  1.
</event>
<event>
 7    1  0.4687179E-006  0.1108008E+03  0.7561462E-02  0.1259094E+00
          1   -1    0    0  501    0  0.00000000000E+00  0.00000000000E+00  0.57858478035E+03  0.57858478035E+03  0.00000000000E+00 0. -1.
         -1   -1    0    0    0  501 -0.00000000000E+00 -0.00000000000E+00 -0.22943498353E+02  0.22943498353E+02  0.00000000000E+00 0.  1.
         23    2    1    2    0    0 -0.11654257847E+02 -0.64015233242E+00  0.32254864442E+03  0.33673314869E+03  0.95996634797E+02 0.  0.
          5    1    1    2  502    0 -0.53814213843E+02  0.18324015674E+02  0.92645688883E+02  0.10877699771E+03  0.41800000000E+01 0.  1.
         -5    1    1    2    0  502  0.65468471690E+02 -0.17683863342E+02  0.14044694869E+03  0.15601813230E+03  0.41800000000E+01 0.  1.
        -11    1    3    3    0    0 -0.44051114662E+02 -0.29706392744E+02  0.18252329376E+03  0.19009924575E+03  0.00000000000E+00 0.  1.
         11    1    3    3    0    0  0.32396856816E+02  0.29066240412E+02  0.14002535066E+03  0.14663390294E+03  0.00000000000E+00 0. -1.
</event>
<event>
 7    1  0.4687179E-006  0.1110569E+03  0.7561462E-02  0.1258625E+00
         -1   -1    0    0    0  501 -0.00000000000E+00  0.00000000000E+00  0.54680258317E+02  0.54680258317E+02  0.00000000000E+00 0.  1.
          1   -1    0    0  501    0  0.00000000000E+00 -0.00000000000E+00 -0.52048482963E+03  0.52048482963E+03  0.00000000000E+00 0. -1.
         23    2    1    2    0    0  0.14139870984E+02  0.79183675508E+02 -0.38979711419E+03  0.40815002934E+03  0.90413858475E+02 0.  0.
          5    1    1    2  502    0 -0.38408901543E+02 -0.57357118597E+02 -0.10326671357E+03  0.12428422789E+03  0.41800000000E+01 0. -1.
         -5    1    1    2    0  502  0.24269030560E+02 -0.21826556911E+02  0.27259256448E+02  0.42730830708E+02  0.41800000000E+01 0. -1.
        -11    1    3    3    0    0  0.17987323663E+02  0.98615256250E+02 -0.30419975203E+03  0.32029049582E+03  0.00000000000E+00 0.  1.
         11    1    3    3    0    0 -0.38474526799E+01 -0.19431580742E+02 -0.85597362162E+02  0.87859533525E+02  0.00000000000E+00 0. -1.
</event>
<event>
 7    1  0.4687179E-006  0.1269998E+03  0.7561462E-02  0.1231977E+00
          1   -1    0    0  501    0  0.00000000000E+00  0.00000000000E+00  0.69824200447E+03  0.69824200447E+03  0.00000000000E+00 0. -1.
         -1   -1    0    0    0  501 -0.00000000000E+00 -0.00000000000E+00 -0.47705097893E+02  0.47705097893E+02  0.00000000000E+00 0.  1.
         23    2    1    2    0    0  0.63597409342E+02  0.70776085565E+02  0.34466561860E+03  0.36907226280E+03  0.91466178219E+02 0.  0.
          5    1    1    2  502    0 -0.84454337635E+02 -0.62695120053E+02  0.32839745566E+03  0.34485587498E+03  0.41800000000E+01 0. -1.
         -5    1    1    2    0  502  0.20856928293E+02 -0.80809655120E+01 -0.22526167695E+02  0.32018964575E+02  0.41800000000E+01 0.  1.
        -11    1    3    3    0    0  0.62227884870E+02  0.74877811176E+01  0.22657983548E+03  0.23508891588E+03  0.00000000000E+00 0. -1.
         11    1    3    3    0    0  0.13695244723E+01  0.63288304448E+02  0.11808578312E+03  0.13398334692E+03  0.00000000000E+00 0.  1.
</event>
<event>
 7    1  0.4687179E-006  0.8907899E+02  0.7561462E-02  0.1305098E+00
          1   -1    0    0  501    0  0.00000000000E+00  0.00000000000E+00  0.54160244092E+03  0.54160244092E+03  0.00000000000E+00 0. -1.
         -1   -1    0    0    0  501 -0.00000000000E+00 -0.00000000000E+00 -0.23950628671E+02  0.23950628671E+02  0.00000000000E+00 0.  1.
         23    2    1    2    0    0  0.38624913715E+02  0.50631297920E+01  0.22949351032E+03  0.24903499751E+03  0.88507849725E+02 0.  0.
          5    1    1    2  502    0 -0.47398080936E+02 -0.30592909209E+02  0.46240060501E+02  0.73062437445E+02  0.41800000000E+01 0. -1.
         -5    1    1    2    0  502  0.87731672210E+01  0.25529779417E+02  0.24191824144E+03  0.24345563464E+03  0.41800000000E+01 0. -1.
        -11    1    3    3    0    0  0.34278139768E+02 -0.37893351959E+02  0.15154761367E+03  0.15992991027E+03  0.00000000000E+00 0.  1.
         11    1    3    3    0    0  0.43467739471E+01  0.42956481751E+02  0.77945896645E+02  0.89105087239E+02  0.00000000000E+00 0. -1.
</event>
<event>
 7    1  0.4687179E-006  0.1755331E+03  0.7561462E-02  0.1172197E+00
          1   -1    0    0  501    0  0.00000000000E+00  0.00000000000E+00  0.45624934682E+02  0.45624934682E+02  0.00000000000E+00 0. -1.
         -1   -1    0    0    0  501 -0.00000000000E+00 -0.00000000000E+00 -0.72817900388E+03  0.72817900388E+03  0.00000000000E+00 0.  1.
         23    2    1    2    0    0 -0.57180577470E+02  0.13390368302E+03 -0.29121965216E+03  0.33792584289E+03  0.90471955454E+02 0.  0.
          5    1    1    2  502    0 -0.32681705946E+02 -0.81353607937E+02 -0.17916635816E+03  0.19951080102E+03  0.41800000000E+01 0.  1.
         -5    1    1    2    0  502  0.89862283416E+02 -0.52550075081E+02 -0.21216805888E+03  0.23636729465E+03  0.41800000000E+01 0.  1.
        -11    1    3    3    0    0 -0.44844308567E+02  0.28823652138E+02 -0.16407555726E+03  0.17251841474E+03  0.00000000000E+00 0.  1.
         11    1    3    3    0    0 -0.12336268903E+02  0.10508003088E+03 -0.12714409490E+03  0.16540742815E+03  0.00000000000E+00 0. -1.
</event>
<event>
 7    1  0.4687179E-006  0.1188173E+03  0.7561462E-02  0.1245061E+00
          2   -1    0    0  501    0  0.00000000000E+00  0.00000000000E+00  0.75222484298E+02  0.75222484298E+02  0.00000000000E+00 0. -1.
         -2   -1    0    0    0  501 -0.00000000000E+00 -0.00000000000E+00 -0.19270891586E+03  0.19270891586E+03  0.00000000000E+00 0.  1.
         23    2    1    2    0    0 -0.31744096266E+02  0.39666290185E+02 -0.52484517242E+02  0.11808672855E+03  0.92783342714E+02 0.  0.
          5    1    1    2  502    0  0.44894497643E+02  0.35857406655E+02 -0.20756447802E+02  0.61233749322E+02  0.41800000000E+01 0. -1.
         -5    1    1    2    0  502 -0.13150401377E+02 -0.75523696840E+02 -0.44245466518E+02  0.88610922285E+02  0.41800000000E+01 0. -1.
        -11    1    3    3    0    0  0.26711819393E+02 -0.79362656514E+01 -0.26203062125E+02  0.38250569571E+02  0.00000000000E+00 0.  1.
         11    1    3    3    0    0 -0.58455915659E+02  0.47602555837E+02 -0.26281455117E+02  0.79836158981E+02  0.00000000000E+00 0. -1.
</event>
<event>
 7    1  0.4687179E-006  0.1424972E+03  0.7561462E-02  0.1210008E+00
          1   -1    0    0  501    0  0.00000000000E+00  0.00000000000E+00  0.13477960200E+03  0.13477960200E+03  0.00000000000E+00 0. -1.
         -1   -1    0    0    0  501 -0.00000000000E+00 -0.00000000000E+00 -0.33196422658E+03  0.33196422658E+03  0.00000000000E+00 0.  1.
         23    2    1    2    0    0 -0.91733957633E+02 -0.51719021382E+02  0.68915474328E+02  0.15441937279E+03  0.89476387590E+02 0.  0.
          5    1    1    2  502    0 -0.12565585099E+02 -0.23152472407E+02 -0.15840699235E+02  0.31021461276E+02  0.41800000000E+01 0. -1.
         -5    1    1    2    0  502  0.10429954273E+03  0.74871493790E+02 -0.25025939967E+03  0.28130299451E+03  0.41800000000E+01 0. -1.
        -11    1    3    3    0    0 -0.62311832243E+02  0.84539162489E+01  0.59879059664E+02  0.86831647016E+02  0.00000000000E+00 0. -1.
         11    1    3    3    0    0 -0.29422125391E+02 -0.60172937631E+02  0.90364146639E+01  0.67587725776E+02  0.00000000000E+00 0.  1.
</event>
<event>
 7    1  0.4687179E-006  0.1540888E+03  0.7561462E-02  0.1195537E+00
         -2   -1    0    0    0  501 -0.00000000000E+00  0.00000000000E+00  0.21822739956E+03  0.21822739956E+03  0.00000000000E+00 0.  1.
          2   -1    0    0  501    0  0.00000000000E+00 -0.00000000000E+00 -0.13549751287E+03  0.13549751287E+03  0.00000000000E+00 0. -1.
         23    2    1    2    0    0 -0.78933657862E+02  0.95072239089E+02 -0.11839553950E+02  0.15407350482E+03  0.91264543277E+02 0.  0.
          5    1    1    2  502    0  0.10423943178E+03 -0.34430995893E+02  0.62865462994E+02  0.12657366019E+03  0.41800000000E+01 0.  1.
         -5    1    1    2    0  502 -0.25305773914E+02 -0.60641243197E+02  0.31703977651E+02  0.73077747425E+02  0.41800000000E+01 0.  1.
        -11    1    3    3    0    0  0.66387236709E+01  0.79736219755E+01  0.24560147410E+02  0.26661810520E+02  0.00000000000E+00 0.  1.
         11    1    3    3    0    0 -0.85572381533E+02  0.87098617114E+02 -0.36399701360E+02  0.12741169430E+03  0.00000000000E+00 0. -1.
</event>
<event>
 7    1  0.4687179E-006  0.1112849E+03  0.7561462E-02  0.1258209E+00
         -1   -1    0    0    0  501 -0.00000000000E+00  0.00000000000E+00  0.99025752286E+02  0.99025752286E+02  0.00000000000E+00 0.  1.
          1   -1    0    0  501    0  0.00000000000E+00 -0.00000000000E+00 -0.13793243608E+03  0.13793243608E+03  0.00000000000E+00 0. -1.
         23    2    1    2    0    0 -0.13323011062E+02  0.43208325840E+02 -0.15938959010E+02  0.10197750554E+03  0.90004995281E+02 0.  0.
          5    1    1    2  502    0 -0.38527259327E+02  0.21464867474E+02 -0.27009242394E+02  0.51885082843E+02  0.41800000000E+01 0.  1.
         -5    1    1    2    0  502  0.51850270389E+02 -0.64673193314E+02  0.40415176090E+01  0.83095599988E+02  0.41800000000E+01 0.  1.
        -11    1    3    3    0    0 -0.10572818912E+02  0.68762155245E+02  0.36441069297E+01  0.69665615686E+02  0.00000000000E+00 0.  1.
         11    1    3    3    0    0 -0.27501921498E+01 -0.25553829404E+02 -0.19583065940E+02  0.32311889850E+02  0.00000000000E+00 0. -1.
</event>
<event>
 7    1  0.4687179E-006  0.1060310E+03  0.7561462E-02  0.1268102E+00
         -3   -1    0    0    0  501 -0.00000000000E+00  0.00000000000E+00  0.19449984287E+03  0.19449984287E+03  0.00000000000E+00 0.  1.
          3   -1    0    0  501    0  0.00000000000E+00 -0.00000000000E+00 -0.95897474275E+02  0.95897474275E+02  0.00000000000E+00 0. -1.
         23    2    1    2    0    0  0.25251112740E+02  0.76310822118E+02  0.28190358303E+02  0.12587709313E+03  0.92678940475E+02 0.  0.
          5    1    1    2  502    0 -0.20399304669E+02  0.23121178023E+02 -0.13821986146E+02  0.34047616733E+02  0.41800000000E+01 0. -1.
         -5    1    1    2    0  502 -0.48518080709E+01 -0.99432000141E+02  0.84233996434E+02  0.13047260727E+03  0.41800000000E+01 0. -1.
        -11    1    3    3    0    0  0.18255896719E+02  0.68182477197E+02  0.59792157452E+02  0.92505297440E+02  0.00000000000E+00 0.  1.
         11    1    3    3    0    0  0.69952160211E+01  0.81283449218E+01 -0.31601799149E+02  0.33371795694E+02  0.00000000000E+00 0. -1.
</event>
<event>
 7    1  0.4687179E-006  0.1454478E+03  0.7561462E-02  0.1206181E+00
          2   -1    0    0  501    0  0.00000000000E+00  0.00000000000E+00  0.57198854124E+03  0.57198854124E+03  0.00000000000E+00 0. -1.
         -2   -1    0    0    0  501 -0.00000000000E+00 -0.00000000000E+00 -0.50919689368E+02  0.50919689368E+02  0.00000000000E+00 0.  1.
         23    2    1    2    0    0  0.10576576278E+03 -0.89499308568E+01  0.38929128582E+03  0.41247941340E+03  0.85586584361E+02 0.  0.
          5    1    1    2  502    0 -0.11853204302E+03 -0.29472943497E+02  0.10914973381E+03  0.16385858662E+03  0.41800000000E+01 0.  1.
         -5    1    1    2    0  502  0.12766280235E+02  0.38422874354E+02  0.22627832239E+02  0.46570230582E+02  0.41800000000E+01 0.  1.
        -11    1    3    3    0    0  0.74579841897E+02  0.27968814774E+02  0.30586593370E+03  0.31606704481E+03  0.00000000000E+00 0. -1.
         11    1    3    3    0    0  0.31185920885E+02 -0.36918745631E+02  0.83425352126E+02  0.96412368593E+02  0.00000000000E+00 0.  1.
</event>
<event>
 7    1  0.4687179E-006  0.1468407E+03  0.7561462E-02  0.1204410E+00
         -1   -1    0    0    0  501 -0.00000000000E+00  0.00000000000E+00  0.36917222777E+03  0.36917222777E+03  0.00000000000E+00 0.  1.
          1   -1    0    0  501    0  0.00000000000E+00 -0.00000000000E+00 -0.94190497587E+02  0.94190497587E+02  0.00000000000E+00 0. -1.
         23    2    1    2    0    0 -0.11381601598E+03  0.15271340888E+02 -0.65861932938E+01  0.13455495828E+03  0.69816613423E+02 0.  0.
          5    1    1    2  502    0  0.10240455970E+03  0.41097981442E+02  0.16190637505E+03  0.19597674507E+03  0.41800000000E+01 0. -1.
         -5    1    1    2    0  502  0.11411456280E+02 -0.56369322330E+02  0.11966154843E+03  0.13283102200E+03  0.41800000000E+01 0. -1.
        -11    1    3    3    0    0 -0.28740622596E+02  0.27339493919E+02 -0.24714699115E+02  0.46736363437E+02  0.00000000000E+00 0. -1.
         11    1    3    3    0    0 -0.85075393387E+02 -0.12068153031E+02  0.18128505821E+02  0.87818594847E+02  0.00000000000E+00 0.  1.
</event>
<event>
 7    1  0.4687179E-006  0.7177183E+02  0.7561462E-02  0.1354169E+00
         -1   -1    0    0    0  501 -0.00000000000E+00  0.00000000000E+00  0.39650069276E+02  0.39650069276E+02  0.00000000000E+00 0.  1.
          1   -1    0    0  501    0  0.00000000000E+00 -0.00000000000E+00 -0.34236927690E+03  0.34236927690E+03  0.00000000000E+00 0. -1.
         23    2    1    2    0    0 -0.27350198966E+02  0.33423272184E+02 -0.12934709833E+03  0.16391251901E+03  0.90947751680E+02 0.  0.
          5    1    1    2  502    0  0.15214773408E+02 -0.14402253797E+02  0.16412607818E+02  0.26939939489E+02  0.41800000000E+01 0.  1.
         -5    1    1    2    0  502  0.12135425558E+02 -0.19021018387E+02 -0.18978471711E+03  0.19116688767E+03  0.41800000000E+01 0.  1.
        -11    1    3    3    0    0  0.23073306577E+02  0.42158433105E+02 -0.48863410296E+02  0.68537171112E+02  0.00000000000E+00 0.  1.
         11    1    3    3    0    0 -0.50423505542E+02 -0.87351609216E+01 -0.80483688035E+02  0.95375347901E+02  0.00000000000E+00 0. -1.
</event>
<event>
 7    1  0.4687179E-006  0.1884505E+03  0.7561462E-02  0.1159866E+00
          2   -1    0    0  501    0  0.00000000000E+00  0.00000000000E+00  0.11811462435E+04  0.11811462435E+04  0.00000000000E+00 0.  1.
         -2   -1    0    0    0  501 -0.00000000000E+00 -0.00000000000E+00 -0.35442188814E+02  0.35442188814E+02  0.00000000000E+00 0. -1.
         23    2    1    2    0    0  0.52165351012E+02 -0.15818417821E+03  0.68905610901E+03  0.71468015635E+03  0.90697003479E+02 0.  0.
          5    1    1    2  502    0 -0.56575838946E+02  0.77187560312E+01  0.14095143944E+03  0.15213541806E+03  0.41800000000E+01 0. -1.
         -5    1    1    2    0  502  0.44104879334E+01  0.15046542218E+03  0.31569650623E+03  0.34977285790E+03  0.41800000000E+01 0. -1.
        -11    1    3    3    0    0  0.44315134314E+02 -0.88903756441E+02  0.55244403875E+03  0.56130395062E+03  0.00000000000E+00 0.  1.
         11    1    3    3    0    0  0.78502166980E+01 -0.69280421769E+02  0.13661207026E+03  0.15337620573E+03  0.00000000000E+00 0. -1.
</event>
<event>
 7    1  0.4687179E-006  0.7245337E+02  0.7561462E-02  0.1351944E+00
          2   -1    0    0  501    0  0.00000000000E+00  0.00000000000E+00  0.12700832965E+03  0.12700832965E+03  0.00000000000E+00 0. -1.
         -2   -1    0    0    0  501 -0.00000000000E+00 -0.00000000000E+00 -0.98478276781E+02  0.98478276781E+02  0.00000000000E+00 0.  1.
         23    2    1    2    0    0  0.27927827813E+02 -0.75282353014E+01  0.21463768433E+02  0.96897441757E+02  0.89954338254E+02 0.  0.
          5    1    1    2  502    0  0.39617749975E+02 -0.17910567620E+02 -0.24069655450E+02  0.49871587693E+02  0.41800000000E+01 0. -1.
         -5    1    1    2    0  502 -0.67545577787E+02  0.25438802922E+02  0.31135939883E+02  0.78717576977E+02  0.41800000000E+01 0. -1.
        -11    1    3    3    0    0  0.12682499252E+02 -0.31330128085E+01  0.56736217547E+02  0.58220786134E+02  0.00000000000E+00 0. -1.
         11    1    3    3    0    0  0.15245328560E+02 -0.43952224929E+01 -0.35272449114E+02  0.38676655623E+02  0.00000000000E+00 0.  1.
</event>
<event>
 7    1  0.4687179E-006  0.1002913E+03  0.7561462E-02  0.1279685E+00
          2   -1    0    0  501    0  0.00000000000E+00  0.00000000000E+00  0.19804170937E+03  0.19804170937E+03  0.00000000000E+00 0.  1.
         -2   -1    0    0    0  501 -0.00000000000E+00 -0.00000000000E+00 -0.67230250509E+02  0.67230250509E+02  0.00000000000E+00 0. -1.
         23    2    1    2    0    0  0.35919006727E+02  0.19977672941E+02  0.54189361193E+02  0.11291462899E+03  0.90132924695E+02 0.  0.
          5    1    1    2  502    0  0.42924761717E+02  0.22304378697E-01  0.51392622556E+02  0.67091055433E+02  0.41800000000E+01 0.  1.
         -5    1    1    2    0  502 -0.78843768444E+02 -0.19999977320E+02  0.25229475115E+02  0.85266275454E+02  0.41800000000E+01 0.  1.
        -11    1    3    3    0    0 -0.17860153647E+02  0.12291336196E+02 -0.13941339894E+02  0.25776403779E+02  0.00000000000E+00 0. -1.
         11    1    3    3    0    0  0.53779160373E+02  0.76863367459E+01  0.68130701087E+02  0.87138225215E+02  0.00000000000E+00 0.  1.
</event>
<event>
 7    1  0.4687179E-006  0.1621349E+03  0.7561462E-02  0.1186307E+00
          1   -1    0    0  501    0  0.00000000000E+00  0.00000000000E+00  0.21503620627E+03  0.21503620627E+03  0.00000000000E+00 0. -1.
         -1   -1    0    0    0  501 -0.00000000000E+00 -0.00000000000E+00 -0.31386934775E+03  0.31386934775E+03  0.00000000000E+00 0.  1.
         23    2    1    2    0    0 -0.84683727691E+02  0.25043763137E+02  0.15255698324E+03  0.19841947972E+03  0.91094088653E+02 0.  0.
          5    1    1    2  502    0  0.36230611115E+02  0.77267901698E+02 -0.48857803952E+02  0.98425317991E+02  0.41800000000E+01 0. -1.
         -5    1    1    2    0  502  0.48453116576E+02 -0.10231166483E+03 -0.20253232077E+03  0.23206075632E+03  0.41800000000E+01 0.  1.
        -11    1    3    3    0    0 -0.31139613046E+02 -0.33819445013E+02  0.42484746666E+02  0.62596997220E+02  0.00000000000E+00 0.  1.
         11    1    3    3    0    0 -0.53544114646E+02  0.58863208150E+02  0.11007223658E+03  0.13582248250E+03  0.00000000000E+00 0. -1.
</event>
<event>
 7    1  0.4687179E-006  0.1201047E+03  0.7561462E-02  0.1242924E+00
          2   -1    0    0  501    0  0.00000000000E+00  0.00000000000E+00  0.69154180439E+03  0.69154180439E+03  0.00000000000E+00 0. -1.
         -2   -1    0    0    0  501 -0.00000000000E+00 -0.00000000000E+00 -0.45849606251E+02  0.45849606251E+02  0.00000000000E+00 0.  1.
         23    2    1    2    0    0 -0.11277517863E+03 -0.52769644062E+01  0.47885265182E+03  0.50026257293E+03  0.90645973161E+02 0.  0.
          5    1    1    2  502    0  0.81811442352E+02  0.17946085811E+02  0.19656799027E+02  0.86133827523E+02  0.41800000000E+01 0. -1.
         -5    1    1    2    0  502  0.30963736278E+02 -0.12669121405E+02  0.14718274729E+03  0.15099501019E+03  0.41800000000E+01 0. -1.
        -11    1    3    3    0    0 -0.10712295051E+03 -0.18079844552E+02  0.47261504108E+03  0.48494039259E+03  0.00000000000E+00 0. -1.
         11    1    3    3    0    0 -0.56522281181E+01  0.12802880146E+02  0.62376107385E+01  0.15322180343E+02  0.00000000000E+00 0.  1.
</event>
<event>
 7    1  0.4687179E-006  0.8088232E+02  0.7561462E-02  0.1326566E+00
          2   -1    0    0  501    0  0.00000000000E+00  0.00000000000E+00  0.23769185601E+03  0.23769185601E+03  0.00000000000E+00 0. -1.
         -2   -1    0    0    0  501 -0.00000000000E+00 -0.00000000000E+00 -0.92491409590E+02  0.92491409590E+02  0.00000000000E+00 0.  1.
         23    2    1    2    0    0  0.78160035263E+02  0.13152602741E+02  0.13649936035E+03  0.18183777206E+03  0.90282434066E+02 0.  0.
          5    1    1    2  502    0 -0.40907129511E+02 -0.11549460354E+02  0.66738552106E+02  0.79235661268E+02  0.41800000000E+01 0. -1.
         -5    1    1    2    0  502 -0.37252905752E+02 -0.16031423875E+01 -0.58037466037E+02  0.69109832270E+02  0.41800000000E+01 0. -1.
        -11    1    3    3    0    0  0.30293699214E+02 -0.42714826269E+01 -0.54054405722E+01  0.31067226520E+02  0.00000000000E+00 0.  1.
         11    1    3    3    0    0  0.47866336049E+02  0.17424085368E+02  0.14190480092E+03  0.15077054554E+03  0.00000000000E+00 0. -1.
</event>
<event>
 7    1  0.4687179E-006  0.1459815E+03  0.7561462E-02  0.1205500E+00
          2   -1    0    0  501    0  0.00000000000E+00  0.00000000000E+00  0.74531268082E+03  0.74531268082E+03  0.00000000000E+00 0.  1.
         -2   -1    0    0    0  501 -0.00000000000E+00 -0.00000000000E+00 -0.34938498882E+02  0.34938498882E+02  0.00000000000E+00 0. -1.
         23    2    1    2    0    0  0.36281679620E+02  0.10359982182E+03  0.21745717785E+03  0.25999768579E+03  0.90894934172E+02 0.  0.
          5    1    1    2  502    0  0.43130512606E+02 -0.21283736964E+02  0.20062097454E+03  0.20634797407E+03  0.41800000000E+01 0. -1.
         -5    1    1    2    0  502 -0.79412192226E+02 -0.82316084860E+02  0.29229602954E+03  0.31390551984E+03  0.41800000000E+01 0. -1.
        -11    1    3    3    0    0  0.47650409926E+02  0.33577590961E+02  0.15457187521E+03  0.16519830746E+03  0.00000000000E+00 0.  1.
         11    1    3    3    0    0 -0.11368730306E+02  0.70022230862E+02  0.62885302645E+02  0.94799378334E+02  0.00000000000E+00 0. -1.
</event>
<event>
 7    1  0.4687179E-006  0.9336540E+02  0.7561462E-02  0.1294901E+00
         -3   -1    0    0    0  501 -0.00000000000E+00  0.00000000000E+00  0.90731031801E+02  0.90731031801E+02  0.00000000000E+00 0.  1.
          3   -1    0    0  501    0  0.00000000000E+00 -0.00000000000E+00 -0.25201632401E+03  0.25201632401E+03  0.00000000000E+00 0. -1.
         23    2    1    2    0    0 -0.42866405818E+02 -0.15310793755E+02 -0.18161796963E+03  0.20808893444E+03  0.90796302723E+02 0.  0.
          5    1    1    2  502    0  0.94438669155E+01 -0.37664449296E+02 -0.33888264354E+02  0.51707680512E+02  0.41800000000E+01 0.  1.
         -5    1    1    2    0  502  0.33422538902E+02  0.52975243050E+02  0.54220941776E+02  0.82950740865E+02  0.41800000000E+01 0.  1.
        -11    1    3    3    0    0 -0.15174413236E+02  0.28952152926E+02 -0.20173596040E+02  0.38411768422E+02  0.00000000000E+00 0.  1.
         11    1    3    3    0    0 -0.27691992582E+02 -0.44262946681E+02 -0.16144437359E+03  0.16967716602E+03  0.00000000000E+00 0. -1.
</event>
<event>
 7    1  0.4687179E-006  0.1487657E+03  0.7561462E-02  0.1201998E+00
         -2   -1    0    0    0  501 -0.00000000000E+00  0.00000000000E+00  0.22199084361E+03  0.22199084361E+03  0.00000000000E+00 0. -1.
          2   -1    0    0  501    0  0.00000000000E+00 -0.00000000000E+00 -0.17328348192E+03  0.17328348192E+03  0.00000000000E+00 0.  1.
         23    2    1    2    0    0  0.20692668642E+02  0.10155748237E+03 -0.10399615218E+03  0.17232188945E+03  0.90208232181E+02 0.  0.
          5    1    1    2  502    0 -0.69554162756E+02 -0.85102629883E+02  0.93747124024E+02  0.14452070728E+03  0.41800000000E+01 0.  1.
         -5    1    1    2    0  502  0.48861494114E+02 -0.16454852487E+02  0.58956389853E+02  0.78431728796E+02  0.41800000000E+01 0.  1.
        -11    1    3    3    0    0  0.51733197965E+02  0.35248773035E+02 -0.35003675717E+02  0.71722082275E+02  0.00000000000E+00 0.  1.
         11    1    3    3    0    0 -0.31040529323E+02  0.66308709335E+02 -0.68992476468E+02  0.10059980717E+03  0.00000000000E+00 0. -1.
</event>
<event>
 7    1  0.4687179E-006  0.1783342E+03  0.7561462E-02  0.1169425E+00
         -1   -1    0    0    0  501 -0.00000000000E+00  0.00000000000E+00  0.37458538928E+02  0.37458538928E+02  0.00000000000E+00 0.  1.
          1   -1    0    0  501    0  0.00000000000E+00 -0.00000000000E+00 -0.90423602305E+03  0.90423602305E+03  0.00000000000E+00 0. -1.
         23    2    1    2    0    0 -0.14289864498E+03 -0.17636575128E+02 -0.44860969722E+03  0.48208177163E+03  0.10208380175E+03 0.  0.
          5    1    1    2  502    0 -0.13121220502E+02  0.20163849384E+02 -0.18779944671E+02  0.30804317413E+02  0.41800000000E+01 0. -1.
         -5    1    1    2    0  502  0.15601986548E+03 -0.25272742557E+01 -0.39938784223E+03  0.42880847293E+03  0.41800000000E+01 0. -1.
        -11    1    3    3    0    0 -0.57105043195E+02 -0.57952630534E+02 -0.22229427716E+03  0.23671552336E+03  0.00000000000E+00 0. -1.
         11    1    3    3    0    0 -0.85793601783E+02  0.40316055406E+02 -0.22631542006E+03  0.24536624827E+03  0.00000000000E+00 0.  1.
</event>
<event>
 7    1  0.4687179E-006  0.1177639E+03  0.7561462E-02  0.1246832E+00
          2   -1    0    0  501    0  0.00000000000E+00  0.00000000000E+00  0.33254990280E+03  0.33254990280E+03  0.00000000000E+00 0. -1.
         -2   -1    0    0    0  501 -0.00000000000E+00 -0.00000000000E+00 -0.43078762440E+03  0.43078762440E+03  0.00000000000E+00 0.  1.
         23    2    1    2    0    0  0.36413043306E+02 -0.62037898820E+02  0.31114315797E+03  0.33204292685E+03  0.90927608076E+02 0.  0.
          5    1    1    2  502    0  0.33868857815E+02  0.55139755719E+02 -0.20558720280E+03  0.21557147897E+03  0.41800000000E+01 0. -1.
         -5    1    1    2    0  502 -0.70281901121E+02  0.68981431014E+01 -0.20379367678E+03  0.21572312138E+03  0.41800000000E+01 0.  1.
        -11    1    3    3    0    0  0.39875738521E+02 -0.75853447528E+02  0.30449614679E+03  0.31632534428E+03  0.00000000000E+00 0. -1.
         11    1    3    3    0    0 -0.34626952155E+01  0.13815548708E+02  0.66470111734E+01  0.15717582568E+02  0.00000000000E+00 0.  1.
</event>
<event>
 7    1  0.4687179E-006  0.1010275E+03  0.7561462E-02  0.1278150E+00
          1   -1    0    0  501    0  0.00000000000E+00  0.00000000000E+00  0.38238831340E+03  0.38238831340E+03  0.00000000000E+00 0. -1.
         -1   -1    0    0    0  501 -0.00000000000E+00 -0.00000000000E+00 -0.31077628077E+02  0.31077628077E+02  0.00000000000E+00 0.  1.
         23    2    1    2    0    0 -0.23512256549E+02  0.10171445755E+01  0.17587154669E+03  0.19944405586E+03  0.91067390941E+02 0.  0.
          5    1    1    2  502    0 -0.27037845194E+02  0.40223743976E+02  0.11551342231E+03  0.12533881197E+03  0.41800000000E+01 0. -1.
         -5    1    1    2    0  502  0.50550101742E+02 -0.41240888551E+02  0.59925716332E+02  0.88683073653E+02  0.41800000000E+01 0.  1.
        -11    1    3    3    0    0 -0.55274809304E+02 -0.57096761972E+01  0.14218688910E+03  0.15265980603E+03  0.00000000000E+00 0. -1.
         11    1    3    3    0    0  0.31762552756E+02  0.67268207727E+01  0.33684657591E+02  0.46784249832E+02  0.00000000000E+00 0.  1.
</event>
<event>
 7    1  0.4687179E-006  0.9416743E+02  0.7561462E-02  0.1293062E+00
         -4   -1    0    0    0  501 -0.00000000000E+00  0.00000000000E+00  0.12869576905E+03  0.12869576905E+03  0.00000000000E+00 0.  1.
          4   -1    0    0  501    0  0.00000000000E+00 -0.00000000000E+00 -0.91806372374E+02  0.91806372374E+02  0.00000000000E+00 0. -1.
         23    2    1    2    0    0 -0.14450423507E+01 -0.14543344693E+01  0.27915775630E+01  0.90809474281E+02  0.90743399086E+02 0.  0.
          5    1    1    2  502    0 -0.35890671581E+02 -0.31366458938E+02  0.57320028823E+02  0.74666278581E+02  0.41800000000E+01 0. -1.
         -5    1    1    2    0  502  0.37335713932E+02  0.32820793407E+02 -0.23222209708E+02  0.55026388564E+02  0.41800000000E+01 0. -1.
        -11    1    3    3    0    0  0.41374728886E+02  0.15998769704E+02  0.41133938348E+01  0.44550519988E+02  0.00000000000E+00 0. -1.
         11    1    3    3    0    0 -0.42819771236E+02 -0.17453104173E+02 -0.13218162718E+01  0.46258954293E+02  0.00000000000E+00 0.  1.
</event>
<event>
 7    1  0.4865395E-006  0.1149393E+03  0.7561462E-02  0.1251687E+00
          2   -1    0    0  501    0  0.00000000000E+00  0.00000000000E+00  0.12785378307E+03  0.12785378307E+03  0.00000000000E+00 0. -1.
         -2   -1    0    0    0  501 -0.00000000000E+00 -0.00000000000E+00 -0.15214098925E+03  0.15214098925E+03  0.00000000000E+00 0.  1.
         23    2    1    2    0    0  0.85191130361E+02  0.30957936552E+02 -0.10141731501E+02  0.12487073342E+03  0.85287295768E+02 0.  0.
          5    1    1    2  502    0  0.32281236262E+01  0.16800550072E+02 -0.46294475561E+02  0.49531102677E+02  0.41800000000E+01 0.  1.
         -5    1    1    2    0  502 -0.88419253987E+02 -0.47758486625E+02  0.32149000882E+02  0.10559293621E+03  0.41800000000E+01 0.  1.
        -11    1    3    3    0    0  0.48256737210E+02 -0.16993000224E+02  0.22742232614E+02  0.55988247758E+02  0.00000000000E+00 0. -1.
         11    1    3    3    0    0  0.36934393151E+02  0.47950936776E+02 -0.32883964115E+02  0.68882485662E+02  0.00000000000E+00 0.  1.
</event>
<event>
 7    1  0.4687179E-006  0.2131899E+03  0.7561462E-02  0.1139065E+00
         -1   -1    0    0    0  501 -0.00000000000E+00  0.00000000000E+00  0.25052759198E+03  0.25052759198E+03  0.00000000000E+00 0.  1.
          1   -1    0    0  501    0  0.00000000000E+00 -0.00000000000E+00 -0.24235014434E+03  0.24235014434E+03  0.00000000000E+00 0. -1.
         23    2    1    2    0    0  0.93060333724E+01 -0.19795321472E+03 -0.10408525133E+03  0.23953036371E+03  0.85258302344E+02 0.  0.
          5    1    1    2  502    0  0.25293823519E+02  0.31110951967E+02 -0.12403119179E+02  0.42177939802E+02  0.41800000000E+01 0. -1.
         -5    1    1    2    0  502 -0.34599856892E+02  0.16684226275E+03  0.12466581815E+03  0.21116943281E+03  0.41800000000E+01 0.  1.
        -11    1    3    3    0    0 -0.20284917233E+02 -0.17973037546E+03 -0.84455655518E+02  0.19961774339E+03  0.00000000000E+00 0. -1.
         11    1    3    3    0    0  0.29590950606E+02 -0.18222839264E+02 -0.19629595810E+02  0.39912620313E+02  0.00000000000E+00 0.  1.
</event>
<event>
 7    1  0.4687179E-006  0.6384805E+03  0.7561462E-02  0.9828638E-01
         -2   -1    0    0    0  501 -0.00000000000E+00  0.00000000000E+00  0.19158878044E+03  0.19158878044E+03  0.00000000000E+00 0. -1.
          2   -1    0    0  501    0  0.00000000000E+00 -0.00000000000E+00 -0.29023331052E+04  0.29023331052E+04  0.00000000000E+00 0.  1.
         23    2    1    2    0    0 -0.23209114806E+03  0.59112154594E+03 -0.21277279464E+04  0.22223349945E+04  0.90860502277E+02 0.  0.
          5    1    1    2  502    0  0.68429080788E+02 -0.13787841143E+03 -0.21869540377E+03  0.26746616135E+03  0.41800000000E+01 0. -1.
         -5    1    1    2    0  502  0.16366206727E+03 -0.45324313451E+03 -0.36432097461E+03  0.60412072981E+03  0.41800000000E+01 0.  1.
        -11    1    3    3    0    0  0.15511066986E-01  0.76853431352E+02 -0.22929912903E+03  0.24183577222E+03  0.00000000000E+00 0. -1.
         11    1    3    3    0    0 -0.23210665913E+03  0.51426811458E+03 -0.18984288174E+04  0.19804992223E+04  0.00000000000E+00 0.  1.
</event>
<event>
 7    1  0.4687179E-006  0.1425867E+03  0.7561462E-02  0.1209890E+00
         -2   -1    0    0    0  501 -0.00000000000E+00  0.00000000000E+00  0.16446914885E+03  0.16446914885E+03  0.00000000000E+00 0.  1.
          2   -1    0    0  501    0  0.00000000000E+00 -0.00000000000E+00 -0.15691779084E+03  0.15691779084E+03  0.00000000000E+00 0. -1.
         23    2    1    2    0    0 -0.51936239305E+02  0.79728507868E+02 -0.47120711420E+02  0.13986378633E+03  0.91035758696E+02 0.  0.
          5    1    1    2  502    0 -0.42219844110E+02  0.89325326790E+01  0.88358976525E+01  0.44247608569E+02  0.41800000000E+01 0. -1.
         -5    1    1    2    0  502  0.94156083416E+02 -0.88661040547E+02  0.45836171784E+02  0.13727554480E+03  0.41800000000E+01 0.  1.
        -11    1    3    3    0    0 -0.63930786379E+02  0.77069233722E+02 -0.64109247306E+02  0.11889830875E+03  0.00000000000E+00 0. -1.
         11    1    3    3    0    0  0.11994547074E+02  0.26592741455E+01  0.16988535886E+02  0.20965477577E+02  0.00000000000E+00 0.  1.
</event>
<event>
 7    1  0.4687179E-006  0.3434470E+03  0.7561462E-02  0.1065337E+00
         -2   -1    0    0    0  501 -0.00000000000E+00  0.00000000000E+00  0.10549868498E+03  0.10549868498E+03  0.00000000000E+00 0.  1.
          2   -1    0    0  501    0  0.00000000000E+00 -0.00000000000E+00 -0.18272069355E+04  0.18272069355E+04  0.00000000000E+00 0. -1.
         23    2    1    2    0    0  0.29935576627E+03 -0.14194958952E+03 -0.14394868941E+04  0.14798710757E+04  0.90179384823E+02 0.  0.
          5    1    1    2  502    0 -0.12931860226E+03  0.12692672505E+03 -0.17007368767E+03  0.24854823689E+03  0.41800000000E+01 0.  1.
         -5    1    1    2    0  502 -0.17003716400E+03  0.15022864476E+02 -0.11214766868E+03  0.20428630788E+03  0.41800000000E+01 0.  1.
        -11    1    3    3    0    0  0.15127922515E+03 -0.44723896125E+02 -0.51706864508E+03  0.54059746076E+03  0.00000000000E+00 0.  1.
         11    1    3    3    0    0  0.14807654111E+03 -0.97225693399E+02 -0.92241824905E+03  0.93927361491E+03  0.00000000000E+00 0. -1.
</event>
<event>
 7    1  0.4687179E-006  0.6622011E+02  0.7561462E-02  0.1373440E+00
         -2   -1    0    0    0  501 -0.00000000000E+00  0.00000000000E+00  0.76187617192E+02  0.76187617192E+02  0.00000000000E+00 0.  1.
          2   -1    0    0  501    0  0.00000000000E+00 -0.00000000000E+00 -0.30352728298E+03  0.30352728298E+03  0.00000000000E+00 0. -1.
         23    2    1    2    0    0  0.26669343352E+02 -0.29109677926E+02 -0.22553740170E+03  0.24852951866E+03  0.96649753528E+02 0.  0.
          5    1    1    2  502    0 -0.22951568287E+02  0.15853875195E+01 -0.61181953420E+02  0.65498028709E+02  0.41800000000E+01 0.  1.
         -5    1    1    2    0  502 -0.37177750650E+01  0.27524290407E+02  0.59379689328E+02  0.65687352805E+02  0.41800000000E+01 0.  1.
        -11    1    3    3    0    0 -0.78393148689E+01 -0.43045831527E+02 -0.19653605661E+03  0.20134751058E+03  0.00000000000E+00 0. -1.
         11    1    3    3    0    0  0.34508658221E+02  0.13936153601E+02 -0.29001345086E+02  0.47182008077E+02  0.00000000000E+00 0.  1.
</event>
<event>
 7    1  0.4687179E-006  0.1215418E+03  0.7561462E-02  0.1240575E+00
          2   -1    0    0  501    0  0.00000000000E+00  0.00000000000E+00  0.66157671268E+03  0.66157671268E+03  0.00000000000E+00 0. -1.
         -2   -1    0    0    0  501 -0.00000000000E+00 -0.00000000000E+00 -0.22467929096E+02  0.22467929096E+02  0.00000000000E+00 0.  1.
         23    2    1    2    0    0 -0.29147488017E+02 -0.44101953819E+02  0.29016938818E+03  0.30960994303E+03  0.94156702373E+02 0.  0.
          5    1    1    2  502    0  0.62952154003E+02  0.69087237895E+02  0.24078332946E+03  0.25832170695E+03  0.41800000000E+01 0. -1.
         -5    1    1    2    0  502 -0.33804665986E+02 -0.24985284077E+02  0.10815606594E+03  0.11611299179E+03  0.41800000000E+01 0. -1.
        -11    1    3    3    0    0 -0.65062673301E+01 -0.71467281153E+02  0.21006212485E+03  0.22198198145E+03  0.00000000000E+00 0. -1.
         11    1    3    3    0    0 -0.22641220687E+02  0.27365327334E+02  0.80107263328E+02  0.87627961589E+02  0.00000000000E+00 0.  1.
</event>
<event>
 7    1  0.4687179E-006  0.1003589E+03  0.7561462E-02  0.1279543E+00
         -2   -1    0    0    0  501 -0.00000000000E+00  0.00000000000E+00  0.71802537228E+03  0.71802537228E+03  0.00000000000E+00 0.  1.
          2   -1    0    0  501    0  0.00000000000E+00 -0.00000000000E+00 -0.21488085234E+02  0.21488085234E+02  0.00000000000E+00 0. -1.
         23    2    1    2    0    0  0.73509535157E+00  0.51934936099E+02  0.22506907855E+03  0.24897593816E+03  0.92925506240E+02 0.  0.
          5    1    1    2  502    0 -0.14513190941E+02 -0.70733718715E+02  0.45721291137E+03  0.46289848822E+03  0.41800000000E+01 0. -1.
         -5    1    1    2    0  502  0.13778095589E+02  0.18798782616E+02  0.14255297127E+02  0.27639031135E+02  0.41800000000E+01 0. -1.
        -11    1    3    3    0    0 -0.22690826643E+02  0.70980618681E+02  0.17903805303E+03  0.19392716745E+03  0.00000000000E+00 0. -1.
         11    1    3    3    0    0  0.23425921994E+02 -0.19045682582E+02  0.46031025521E+02  0.55048770711E+02  0.00000000000E+00 0.  1.
</event>
<event>
 7    1  0.4687179E-006  0.1108958E+03  0.7561462E-02  0.1258920E+00
          3   -1    0    0  501    0  0.00000000000E+00  0.00000000000E+00  0.43518814747E+02  0.43518814747E+02  0.00000000000E+00 0. -1.
         -3   -1    0    0    0  501 -0.00000000000E+00 -0.00000000000E+00 -0.31289151640E+03  0.31289151640E+03  0.00000000000E+00 0.  1.
         23    2    1    2    0    0 -0.15603685515E+02 -0.26815176430E+02 -0.73067787770E+02  0.12158242247E+03  0.92091558549E+02 0.  0.
          5    1    1    2  502    0  0.69990131724E+02  0.12480277473E+02 -0.12558587029E+03  0.14437333230E+03  0.41800000000E+01 0.  1.
         -5    1    1    2    0  502 -0.54386446209E+02  0.14334898957E+02 -0.70719043597E+02  0.90454576372E+02  0.41800000000E+01 0.  1.
        -11    1    3    3    0    0  0.36889682753E+02 -0.17625595147E+02 -0.17144384731E+02  0.44333285754E+02  0.00000000000E+00 0.  1.
         11    1    3    3    0    0 -0.52493368268E+02 -0.91895812830E+01 -0.55923403039E+02  0.77249136719E+02  0.00000000000E+00 0. -1.
</event>
<event>
 7    1  0.4687179E-006  0.1140349E+03  0.7561462E-02  0.1253275E+00
         -1   -1    0    0    0  501 -0.00000000000E+00  0.00000000000E+00  0.87935099472E+02  0.87935099472E+02  0.00000000000E+00 0.  1.
          1   -1    0    0  501    0  0.00000000000E+00 -0.00000000000E+00 -0.15350016043E+03  0.15350016043E+03  0.00000000000E+00 0. -1.
         23    2    1    2    0    0  0.16004372395E+01  0.40529018353E+02 -0.37359309418E+02  0.10694450789E+03  0.91631037538E+02 0.  0.
          5    1    1    2  502    0  0.58182477786E+02 -0.35632239056E+02 -0.67163738139E+00  0.68357740441E+02  0.41800000000E+01 0. -1.
         -5    1    1    2    0  502 -0.59782915026E+02 -0.48967792970E+01 -0.27534114158E+02  0.66133011567E+02  0.41800000000E+01 0. -1.
        -11    1    3    3    0    0  0.46280306507E+02  0.21208305964E+02 -0.25031119467E+02  0.56729321819E+02  0.00000000000E+00 0. -1.
         11    1    3    3    0    0 -0.44679869268E+02  0.19320712389E+02 -0.12328189951E+02  0.50215186074E+02  0.00000000000E+00 0.  1.
</event>
<event>
 7    1  0.4687179E-006  0.8473009E+02  0.7561462E-02  0.1316140E+00
         -2   -1    0    0    0  501 -0.00000000000E+00  0.00000000000E+00  0.51031787800E+03  0.51031787800E+03  0.00000000000E+00 0.  1.
          2   -1    0    0  501    0  0.00000000000E+00 -0.00000000000E+00 -0.29301448886E+02  0.29301448886E+02  0.00000000000E+00 0. -1.
         23    2    1    2    0    0 -0.35363038777E+02  0.43655916322E+02  0.17823451176E+03  0.20723262097E+03  0.89562461273E+02 0.  0.
          5    1    1    2  502    0  0.12862717312E+02 -0.37862710739E+02  0.30593882773E+03  0.30856939750E+03  0.41800000000E+01 0.  1.
         -5    1    1    2    0  502  0.22500321465E+02 -0.57932055834E+01 -0.31569103801E+01  0.23817308414E+02  0.41800000000E+01 0.  1.
        -11    1    3    3    0    0 -0.59433384549E+02  0.53188464089E+02  0.13106670616E+03  0.15342692519E+03  0.00000000000E+00 0.  1.
         11    1    3    3    0    0  0.24070345772E+02 -0.95325477667E+01  0.47167805601E+02  0.53805695774E+02  0.00000000000E+00 0. -1.
</event>
<event>
 7    1  0.4687179E-006  0.1204307E+03  0.7561462E-02  0.1242388E+00
         -2   -1    0    0    0  501 -0.00000000000E+00  0.00000000000E+00  0.15754934991E+03  0.15754934991E+03  0.00000000000E+00 0. -1.
          2   -1    0    0  501    0  0.00000000000E+00 -0.00000000000E+00 -0.10634343647E+03  0.10634343647E+03  0.00000000000E+00 0.  1.
         23    2    1    2    0    0  0.67977379134E+02 -0.47561283394E+01  0.54878862587E+01  0.11428918806E+03  0.91587972905E+02 0.  0.
          5    1    1    2  502    0  0.13479386322E+02  0.46347302974E+02  0.29205917650E+02  0.56570525668E+02  0.41800000000E+01 0.  1.
         -5    1    1    2    0  502 -0.81456765456E+02 -0.41591174635E+02  0.16512109528E+02  0.93033072652E+02  0.41800000000E+01 0.  1.
        -11    1    3    3    0    0 -0.68830111023E+00  0.25722058029E+02  0.25828547935E+02  0.36458358659E+02  0.00000000000E+00 0. -1.
         11    1    3    3    0    0  0.68665680245E+02 -0.30478186368E+02 -0.20340661676E+02  0.77830829401E+02  0.00000000000E+00 0.  1.
</event>
<event>
 7    1  0.4687179E-006  0.1033201E+03  0.7561462E-02  0.1273465E+00
          1   -1    0    0  501    0  0.00000000000E+00  0.00000000000E+00  0.21402481110E+03  0.21402481110E+03  0.00000000000E+00 0. -1.
         -1   -1    0    0    0  501 -0.00000000000E+00 -0.00000000000E+00 -0.60902719651E+02  0.60902719651E+02  0.00000000000E+00 0.  1.
         23    2    1    2    0    0  0.17100343684E+02  0.25147943380E+02  0.89569301453E+02  0.13136122939E+03  0.91149723063E+02 0.  0.
          5    1    1    2  502    0 -0.19870816492E+02 -0.70107526950E+02  0.10331815383E+02  0.73716575424E+02  0.41800000000E+01 0. -1.
         -5    1    1    2    0  502  0.27704728078E+01  0.44959583571E+02  0.53220974618E+02  0.69849725939E+02  0.41800000000E+01 0. -1.
        -11    1    3    3    0    0 -0.78376489117E+01 -0.28336364445E+02  0.76136956054E+01  0.30370160540E+02  0.00000000000E+00 0.  1.
         11    1    3    3    0    0  0.24937992596E+02  0.53484307825E+02  0.81955605847E+02  0.10099106885E+03  0.00000000000E+00 0. -1.
</event>
<event>
 7    1  0.4687179E-006  0.1133267E+03  0.7561462E-02  0.1254531E+00
         -1   -1    0    0    0  501 -0.00000000000E+00  0.00000000000E+00  0.17655061880E+04  0.17655061880E+04  0.00000000000E+00 0.  1.
          1   -1    0    0  501    0  0.00000000000E+00 -0.00000000000E+00 -0.11180777426E+02  0.11180777426E+02  0.00000000000E+00 0. -1.
         23    2    1    2    0    0 -0.51212222241E+02  0.60326145979E+02  0.52335574522E+03  0.53684944232E+03  0.89689197064E+02 0.  0.
          5    1    1    2  502    0 -0.20613876940E+02 -0.41986144880E+02  0.87231345697E+03  0.87357656098E+03  0.41800000000E+01 0.  1.
         -5    1    1    2    0  502  0.71826099181E+02 -0.18340001099E+02  0.35865620838E+03  0.36626096212E+03  0.41800000000E+01 0.  1.
        -11    1    3    3    0    0 -0.55193697292E+02  0.73367005153E+02  0.50835016349E+03  0.51657424480E+03  0.00000000000E+00 0.  1.
         11    1    3    3    0    0  0.39814750508E+01 -0.13040859174E+02  0.15005581725E+02  0.20275197520E+02  0.00000000000E+00 0. -1.
</event>
<event>
 7    1  0.4687179E-006  0.8450039E+02  0.7561462E-02  0.1316744E+00
          2   -1    0    0  501    0  0.00000000000E+00  0.00000000000E+00  0.24489609704E+03  0.24489609704E+03  0.00000000000E+00 0. -1.
         -2   -1    0    0    0  501 -0.00000000000E+00 -0.00000000000E+00 -0.47528394803E+02  0.47528394803E+02  0.00000000000E+00 0.  1.
         23    2    1    2    0    0  0.64954122275E+01 -0.72552178242E+01  0.12410426598E+03  0.14713282136E+03  0.78430668250E+02 0.  0.
          5    1    1    2  502    0  0.51436282577E+02 -0.14628527763E+01  0.69311914451E+02  0.86425950897E+02  0.41800000000E+01 0.  1.
         -5    1    1    2    0  502 -0.57931694804E+02  0.87180706005E+01  0.39515218100E+01  0.58865719587E+02  0.41800000000E+01 0.  1.
        -11    1    3    3    0    0  0.29013289377E+02  0.95490472564E+01  0.14181443290E+02  0.33675934995E+02  0.00000000000E+00 0.  1.
         11    1    3    3    0    0 -0.22517877150E+02 -0.16804265081E+02  0.10992282269E+03  0.11345688637E+03  0.00000000000E+00 0. -1.
</event>
<event>
 7    1  0.4687179E-006  0.1483739E+03  0.7561462E-02  0.1202485E+00
         -1   -1    0    0    0  501 -0.00000000000E+00  0.00000000000E+00  0.27346944233E+03  0.27346944233E+03  0.00000000000E+00 0.  1.
          1   -1    0    0  501    0  0.00000000000E+00 -0.00000000000E+00 -0.94663262700E+02  0.94663262700E+02  0.00000000000E+00 0. -1.
         23    2    1    2    0    0 -0.64613897713E+02  0.99126783128E+02  0.80064687121E+02  0.16964767878E+03  0.91481724305E+02 0.  0.
          5    1    1    2  502    0  0.60452869360E+01 -0.11174511612E+03  0.60479023517E+02  0.12727411817E+03  0.41800000000E+01 0.  1.
         -5    1    1    2    0  502  0.58568610777E+02  0.12618332989E+02  0.38262468989E+02  0.71210908075E+02  0.41800000000E+01 0.  1.
        -11    1    3    3    0    0 -0.14274225652E+02  0.57907442800E+02 -0.79793893177E+01  0.60172220363E+02  0.00000000000E+00 0. -1.
         11    1    3    3    0    0 -0.50339672061E+02  0.41219340328E+02  0.88044076439E+02  0.10947545842E+03  0.00000000000E+00 0.  1.
</event>
<event>
 7    1  0.4687179E-006  0.1180788E+03  0.7561462E-02  0.1246301E+00
          1   -1    0    0  501    0  0.00000000000E+00  0.00000000000E+00  0.26840298441E+03  0.26840298441E+03  0.00000000000E+00 0. -1.
         -1   -1    0    0    0  501 -0.00000000000E+00 -0.00000000000E+00 -0.67558485064E+02  0.67558485064E+02  0.00000000000E+00 0.  1.
         23    2    1    2    0    0  0.77109111297E+02  0.15909062172E+02  0.98146832897E+02  0.15598132116E+03  0.92187083904E+02 0.  0.
          5    1    1    2  502    0 -0.19457081770E+02 -0.45806102189E+02  0.10347624194E+03  0.11489813782E+03  0.41800000000E+01 0.  1.
         -5    1    1    2    0  502 -0.57652029527E+02  0.29897040017E+02 -0.77857548785E+00  0.65082010495E+02  0.41800000000E+01 0.  1.
        -11    1    3    3    0    0  0.28957371780E+02  0.52974458110E+02  0.52000582829E+02  0.79679879562E+02  0.00000000000E+00 0.  1.
         11    1    3    3    0    0  0.48151739516E+02 -0.37065395938E+02  0.46146250068E+02  0.76301441598E+02  0.00000000000E+00 0. -1.
</event>
<event>
 7    1  0.4687179E-006  0.8264462E+02  0.7561462E-02  0.1321710E+00
          1   -1    0    0  501    0  0.00000000000E+00  0.00000000000E+00  0.33052762543E+02  0.33052762543E+02  0.00000000000E+00 0. -1.
         -1   -1    0    0    0  501 -0.00000000000E+00 -0.00000000000E+00 -0.68137563857E+03  0.68137563857E+03  0.00000000000E+00 0.  1.
         23    2    1    2    0    0  0.81767800040E+01 -0.45024128912E+01 -0.54776281793E+02  0.10777189767E+03  0.92342890511E+02 0.  0.
          5    1    1    2  502    0 -0.62476150517E+02  0.23823788001E+02 -0.28753357632E+03  0.29523528273E+03  0.41800000000E+01 0. -1.
         -5    1    1    2    0  502  0.54299370513E+02 -0.19321375109E+02 -0.30601301792E+03  0.31142122071E+03  0.41800000000E+01 0. -1.
        -11    1    3    3    0    0 -0.11875751928E+02  0.10190905752E+02  0.22041504999E+02  0.27031758850E+02  0.00000000000E+00 0. -1.
         11    1    3    3    0    0  0.20052531932E+02 -0.14693318643E+02 -0.76817786792E+02  0.80740138824E+02  0.00000000000E+00 0.  1.
</event>
<event>
 7    1  0.4687179E-006  0.1217152E+03  0.7561462E-02  0.1240294E+00
         -2   -1    0    0    0  501 -0.00000000000E+00  0.00000000000E+00  0.49575832438E+03  0.49575832438E+03  0.00000000000E+00 0.  1.
          2   -1    0    0  501    0  0.00000000000E+00 -0.00000000000E+00 -0.47363840378E+02  0.47363840378E+02  0.00000000000E+00 0. -1.
         23    2    1    2    0    0  0.72464960799E+02  0.53415666415E+02  0.10461054504E+03  0.16637360514E+03  0.92910744222E+02 0.  0.
          5    1    1    2  502    0  0.23010682555E+02  0.21529772530E+02  0.56114157255E+02  0.64492586095E+02  0.41800000000E+01 0.  1.
         -5    1    1    2    0  502 -0.95475643354E+02 -0.74945438945E+02  0.28766978171E+03  0.31225597352E+03  0.41800000000E+01 0.  1.
        -11    1    3    3    0    0  0.51797746713E+02  0.35024887834E+02  0.47008864053E+01  0.62704446934E+02  0.00000000000E+00 0. -1.
         11    1    3    3    0    0  0.20667214086E+02  0.18390778581E+02  0.99909658634E+02  0.10366915821E+03  0.00000000000E+00 0.  1.
</event>
<event>
 7    1  0.4687179E-006  0.1087489E+03  0.7561462E-02  0.1262904E+00
          2   -1    0    0  501    0  0.00000000000E+00  0.00000000000E+00  0.35159512284E+02  0.35159512284E+02  0.00000000000E+00 0. -1.
         -2   -1    0    0    0  501 -0.00000000000E+00 -0.00000000000E+00 -0.58934020414E+03  0.58934020414E+03  0.00000000000E+00 0.  1.
         23    2    1    2    0    0 -0.88989755093E+02 -0.54363447416E+01 -0.31870376404E+03  0.34335073041E+03  0.91481716777E+02 0.  0.
          5    1    1    2  502    0  0.69664828308E+02  0.34120418081E+02 -0.49899876676E+02  0.92330175595E+02  0.41800000000E+01 0. -1.
         -5    1    1    2    0  502  0.19324926785E+02 -0.28684073339E+02 -0.18557705113E+03  0.18881881041E+03  0.41800000000E+01 0. -1.
        -11    1    3    3    0    0 -0.31947965550E+02  0.24773405100E+02 -0.38564768739E+02  0.55871598249E+02  0.00000000000E+00 0. -1.
         11    1    3    3    0    0 -0.57041789543E+02 -0.30209749842E+02 -0.28013899531E+03  0.28747913217E+03  0.00000000000E+00 0.  1.
</event>
<event>
 7    1  0.4687179E-006  0.9405508E+02  0.7561462E-02  0.1293319E+00
         -1   -1    0    0    0  501 -0.00000000000E+00  0.00000000000E+00  0.59636655259E+02  0.59636655259E+02  0.00000000000E+00 0.  1.
          1   -1    0    0  501    0  0.00000000000E+00 -0.00000000000E+00 -0.21376875302E+03  0.21376875302E+03  0.00000000000E+00 0. -1.
         23    2    1    2    0    0 -0.16399086324E+02  0.20122115134E+02 -0.71323410404E+02  0.11898839952E+03  0.91637223877E+02 0.  0.
          5    1    1    2  502    0 -0.25186430205E+02 -0.48322783104E+02 -0.88147875296E+02  0.10371580377E+03  0.41800000000E+01 0. -1.
         -5    1    1    2    0  502  0.41585516530E+02  0.28200667970E+02  0.53391879349E+01  0.50701204984E+02  0.41800000000E+01 0.  1.
        -11    1    3    3    0    0  0.21268235013E+02 -0.19151924235E+02 -0.55289074811E+02  0.62257656686E+02  0.00000000000E+00 0.  1.
         11    1    3    3    0    0 -0.37667321337E+02  0.39274039369E+02 -0.16034335593E+02  0.56730742839E+02  0.00000000000E+00 0. -1.
</event>
<event>
 7    1  0.4687179E-006  0.1000927E+03  0.7561462E-02  0.1280101E+00
         -1   -1    0    0    0  501 -0.00000000000E+00  0.00000000000E+00  0.87071733762E+02  0.87071733762E+02  0.00000000000E+00 0.  1.
          1   -1    0    0  501    0  0.00000000000E+00 -0.00000000000E+00 -0.16671779798E+03  0.16671779798E+03  0.00000000000E+00 0. -1.
         23    2    1    2    0    0 -0.38209823012E+02  0.43565390820E+02 -0.34497311325E+02  0.10872622745E+03  0.85284196634E+02 0.  0.
          5    1    1    2  502    0 -0.39642991208E+02 -0.31654959113E+02  0.57035662857E+01  0.51221150482E+02  0.41800000000E+01 0. -1.
         -5    1    1    2    0  502  0.77852814220E+02 -0.11910431708E+02 -0.50852319182E+02  0.93842153810E+02  0.41800000000E+01 0. -1.
        -11    1    3    3    0    0  0.62305790494E+01  0.18214577407E+02  0.24159673247E+02  0.30891435007E+02  0.00000000000E+00 0.  1.
         11    1    3    3    0    0 -0.44440402062E+02  0.25350813413E+02 -0.58656984571E+02  0.77834792446E+02  0.00000000000E+00 0. -1.
</event>
<event>
 7    1  0.4687179E-006  0.3828482E+03  0.7561462E-02  0.1049886E+00
          1   -1    0    0  501    0  0.00000000000E+00  0.00000000000E+00  0.49143820512E+03  0.49143820512E+03  0.00000000000E+00 0. -1.
         -1   -1    0    0    0  501 -0.00000000000E+00 -0.00000000000E+00 -0.36235228804E+03  0.36235228804E+03  0.00000000000E+00 0.  1.
         23    2    1    2    0    0  0.35705090862E+03 -0.11833182673E+03  0.22251355092E+03  0.44652589607E+03  0.91571409079E+02 0.  0.
          5    1    1    2  502    0 -0.42235875159E+02 -0.87783726052E+00  0.26317341413E+02  0.49947118112E+02  0.41800000000E+01 0. -1.
         -5    1    1    2    0  502 -0.31481503346E+03  0.11920966399E+03 -0.11974497526E+03  0.35731747897E+03  0.41800000000E+01 0. -1.
        -11    1    3    3    0    0  0.25783171820E+03 -0.41610221909E+02  0.13912463946E+03  0.29591260666E+03  0.00000000000E+00 0.  1.
         11    1    3    3    0    0  0.99219190419E+02 -0.76721604817E+02  0.83388911460E+02  0.15061328941E+03  0.00000000000E+00 0. -1.
</event>
<event>
 7    1  0.4687179E-006  0.1004881E+03  0.7561462E-02  0.1279273E+00
         -2   -1    0    0    0  501 -0.00000000000E+00  0.00000000000E+00  0.19503100729E+03  0.19503100729E+03  0.00000000000E+00 0.  1.
          2   -1    0    0  501    0  0.00000000000E+00 -0.00000000000E+00 -0.64975689183E+02  0.64975689183E+02  0.00000000000E+00 0. -1.
         23    2    1    2    0    0  0.19772404630E+02 -0.28056881765E+02  0.43842921350E+02  0.10425450775E+03  0.88140025157E+02 0.  0.
          5    1    1    2  502    0 -0.64539697984E+02  0.38515758339E+02  0.25486597608E+02  0.79472481488E+02  0.41800000000E+01 0.  1.
         -5    1    1    2    0  502  0.44767293355E+02 -0.10458876573E+02  0.60725799149E+02  0.76279707235E+02  0.41800000000E+01 0.  1.
        -11    1    3    3    0    0 -0.25527292090E+02  0.12966974311E+01  0.43290333442E+02  0.50273024926E+02  0.00000000000E+00 0.  1.
         11    1    3    3    0    0  0.45299696720E+02 -0.29353579197E+02  0.55258790787E+00  0.53981482825E+02  0.00000000000E+00 0. -1.
</event>
<event>
 7    1  0.4687179E-006  0.1066744E+03  0.7561462E-02  0.1266855E+00
          1   -1    0    0  501    0  0.00000000000E+00  0.00000000000E+00  0.74762391014E+03  0.74762391014E+03  0.00000000000E+00 0. -1.
         -1   -1    0    0    0  501 -0.00000000000E+00 -0.00000000000E+00 -0.16780732010E+02  0.16780732010E+02  0.00000000000E+00 0.  1.
         23    2    1    2    0    0  0.16663472290E+02  0.16376402140E+02  0.26101992829E+03  0.27765428308E+03  0.91731347364E+02 0.  0.
          5    1    1    2  502    0 -0.69984793666E+02 -0.16203165304E+02  0.22811345805E+03  0.23919372077E+03  0.41800000000E+01 0.  1.
         -5    1    1    2    0  502  0.53321321377E+02 -0.17323683611E+00  0.24170979179E+03  0.24755663831E+03  0.41800000000E+01 0.  1.
        -11    1    3    3    0    0  0.15433936315E+02 -0.34091956773E+02  0.62782345412E+02  0.73089608032E+02  0.00000000000E+00 0.  1.
         11    1    3    3    0    0  0.12295359744E+01  0.50468358913E+02  0.19823758288E+03  0.20456467505E+03  0.00000000000E+00 0. -1.
</event>
<event>
 7    1  0.4687179E-006  0.1218642E+03  0.7561462E-02  0.1240053E+00
          2   -1    0    0  501    0  0.00000000000E+00  0.00000000000E+00  0.29479555861E+03  0.29479555861E+03  0.00000000000E+00 0. -1.
         -2   -1    0    0    0  501 -0.00000000000E+00 -0.00000000000E+00 -0.80728234953E+02  0.80728234953E+02  0.00000000000E+00 0.  1.
         23    2    1    2    0    0 -0.61963763766E+02  0.86823549241E+01  0.20860607633E+03  0.23555016083E+03  0.89735677842E+02 0.  0.
          5    1    1    2  502    0 -0.16229650063E+02 -0.45025201342E+02 -0.16671978934E+02  0.50853687955E+02  0.41800000000E+01 0.  1.
         -5    1    1    2    0  502  0.78193413828E+02  0.36342846418E+02  0.22133226254E+02  0.89119944773E+02  0.41800000000E+01 0.  1.
        -11    1    3    3    0    0  0.19715109730E+02 -0.14476102440E+02  0.49285872000E+02  0.55021271089E+02  0.00000000000E+00 0. -1.
         11    1    3    3    0    0 -0.81678873495E+02  0.23158457364E+02  0.15932020433E+03  0.18052888974E+03  0.00000000000E+00 0.  1.
</event>
<event>
 7    1  0.4687179E-006  0.8959477E+02  0.7561462E-02  0.1303836E+00
         -4   -1    0    0    0  501 -0.00000000000E+00  0.00000000000E+00  0.12175908802E+03  0.12175908802E+03  0.00000000000E+00 0.  1.
          4   -1    0    0  501    0  0.00000000000E+00 -0.00000000000E+00 -0.11153772609E+03  0.11153772609E+03  0.00000000000E+00 0. -1.
         23    2    1    2    0    0 -0.12364680289E+02  0.10260077967E+02 -0.34323552931E+02  0.99537098576E+02  0.92040062954E+02 0.  0.
          5    1    1    2  502    0 -0.52074106676E+02 -0.22041368663E+02  0.36958496684E+02  0.67682622554E+02  0.41800000000E+01 0.  1.
         -5    1    1    2    0  502  0.64438786965E+02  0.11781290695E+02  0.75864181782E+01  0.66077092981E+02  0.41800000000E+01 0.  1.
        -11    1    3    3    0    0  0.21710919360E+02  0.58750475796E+01 -0.55012057523E+02  0.59432370611E+02  0.00000000000E+00 0. -1.
         11    1    3    3    0    0 -0.34075599649E+02  0.43850303877E+01  0.20688504591E+02  0.40104727965E+02  0.00000000000E+00 0.  1.
</event>
<event>
 6    1  0.4687179E-006  0.2015557E+03  0.7561462E-02  0.1148433E+00
         -3   -1    0    0    0  501 -0.00000000000E+00  0.00000000000E+00  0.58848130925E+03  0.58848130925E+03  0.00000000000E+00 0. -1.
          3   -1    0    0  501    0  0.00000000000E+00 -0.00000000000E+00 -0.75795718853E+02  0.75795718853E+02  0.00000000000E+00 0.  1.
          5    1    1    2  502    0 -0.11145408363E+03  0.69405861905E+02  0.18944862529E+03  0.23053728647E+03  0.41800000000E+01 0.  1.
         -5    1    1    2    0  502 -0.26822316766E+02 -0.49185183110E+02  0.83459528769E+02  0.10060608459E+03  0.41800000000E+01 0.  1.
        -11    1    1    2    0    0  0.67121941804E+01  0.60726171769E+02  0.12995842638E+03  0.14360332195E+03  0.00000000000E+00 0. -1.
         11    1    1    2    0    0  0.13156420622E+03 -0.80946850564E+02  0.10981900996E+03  0.18953033510E+03  0.00000000000E+00 0.  1.
</event>
<event>
 7    1  0.4687179E-006  0.1239125E+03  0.7561462E-02  0.1236779E+00
          1   -1    0    0  501    0  0.00000000000E+00  0.00000000000E+00  0.95213635512E+02  0.95213635512E+02  0.00000000000E+00 0. -1.
         -1   -1    0    0    0  501 -0.00000000000E+00 -0.00000000000E+00 -0.51876113164E+03  0.51876113164E+03  0.00000000000E+00 0.  1.
         23    2    1    2    0    0 -0.87997362811E+02  0.44757943817E+01  0.33696863936E+02  0.13143659426E+03  0.91523390865E+02 0.  0.
          5    1    1    2  502    0  0.10250437418E+03 -0.42675749979E+02 -0.29670851541E+03  0.31683084111E+03  0.41800000000E+01 0. -1.
         -5    1    1    2    0  502 -0.14507011367E+02  0.38199955597E+02 -0.16053584465E+03  0.16570733178E+03  0.41800000000E+01 0.  1.
        -11    1    3    3    0    0 -0.68436215942E+02 -0.12702175310E+02  0.61833897171E+02  0.93103661310E+02  0.00000000000E+00 0. -1.
         11    1    3    3    0    0 -0.19561146869E+02  0.17177969691E+02 -0.28137033235E+02  0.38332932953E+02  0.00000000000E+00 0.  1.
</event>
<event>
 7    1  0.4687179E-006  0.1104926E+03  0.7561462E-02  0.1259660E+00
          2   -1    0    0  501    0  0.00000000000E+00  0.00000000000E+00  0.47734428006E+03  0.47734428006E+03  0.00000000000E+00 0. -1.
         -2   -1    0    0    0  501 -0.00000000000E+00 -0.00000000000E+00 -0.28704277590E+02  0.28704277590E+02  0.00000000000E+00 0.  1.
         23    2    1    2    0    0 -0.32707091945E+02  0.66833066189E+01  0.22413049339E+03  0.24688500644E+03  0.97996468762E+02 0.  0.
          5    1    1    2  502    0 -0.11146677722E+02 -0.58832045195E+02  0.12256289626E+03  0.13647195282E+03  0.41800000000E+01 0. -1.
         -5    1    1    2    0  502  0.43853769668E+02  0.52148738576E+02  0.10194661282E+03  0.12269159839E+03  0.41800000000E+01 0. -1.
        -11    1    3    3    0    0 -0.46609091398E+02  0.36891417661E+02  0.19062909355E+03  0.19968183544E+03  0.00000000000E+00 0. -1.
         11    1    3    3    0    0  0.13901999452E+02 -0.30208111042E+02  0.33501399836E+02  0.47203171000E+02  0.00000000000E+00 0.  1.
</event>
<event>
 7    1  0.4687179E-006  0.2093443E+03  0.7561462E-02  0.1142086E+00
         -2   -1    0    0    0  501 -0.00000000000E+00  0.00000000000E+00  0.26677378038E+03  0.26677378038E+03  0.00000000000E+00 0.  1.
          2   -1    0    0  501    0  0.00000000000E+00 -0.00000000000E+00 -0.24552737203E+03  0.24552737203E+03  0.00000000000E+00 0. -1.
         23    2    1    2    0    0  0.72218089508E+01  0.19157660620E+03 -0.11869254165E+03  0.24411554008E+03  0.93545320003E+02 0.  0.
          5    1    1    2  502    0  0.38505885148E+02 -0.76999447680E+02  0.65408684438E+01  0.86439999387E+02  0.41800000000E+01 0.  1.
         -5    1    1    2    0  502 -0.45727694099E+02 -0.11457715852E+03  0.13339808155E+03  0.18174561294E+03  0.41800000000E+01 0.  1.
        -11    1    3    3    0    0 -0.34593156396E+02  0.45743906393E+02 -0.55379802580E+02  0.79725240516E+02  0.00000000000E+00 0. -1.
         11    1    3    3    0    0  0.41814965347E+02  0.14583269981E+03 -0.63312739071E+02  0.16439029956E+03  0.00000000000E+00 0.  1.
</event>
<event>
 7    1  0.4687179E-006  0.1139367E+03  0.7561462E-02  0.1253449E+00
         -2   -1    0    0    0  501 -0.00000000000E+00  0.00000000000E+00  0.95050087347E+02  0.95050087347E+02  0.00000000000E+00 0.  1.
          2   -1    0    0  501    0  0.00000000000E+00 -0.00000000000E+00 -0.21105380210E+03  0.21105380210E+03  0.00000000000E+00 0. -1.
         23    2    1    2    0    0  0.31419741592E+02  0.49420333877E+02 -0.12759296712E+03  0.16749829144E+03  0.91357226386E+02 0.  0.
          5    1    1    2  502    0 -0.15785933418E+02  0.40437136999E+02 -0.10094366582E+02  0.44763002348E+02  0.41800000000E+01 0.  1.
         -5    1    1    2    0  502 -0.15633808174E+02 -0.89857470876E+02  0.21683618949E+02  0.93842595664E+02  0.41800000000E+01 0.  1.
        -11    1    3    3    0    0  0.13375240520E+02 -0.18418517405E+02 -0.10476650142E+01  0.22786760287E+02  0.00000000000E+00 0.  1.
         11    1    3    3    0    0  0.18044501072E+02  0.67838851282E+02 -0.12654530211E+03  0.14471153115E+03  0.00000000000E+00 0. -1.
</event>
<event>
 7    1  0.4687179E-006  0.9941763E+02  0.7561462E-02  0.1281525E+00
         -1   -1    0    0    0  501 -0.00000000000E+00  0.00000000000E+00  0.72566897532E+02  0.72566897532E+02  0.00000000000E+00 0.  1.
          1   -1    0    0  501    0  0.00000000000E+00 -0.00000000000E+00 -0.27169196562E+03  0.27169196562E+03  0.00000000000E+00 0. -1.
         23    2    1    2    0    0  0.73300863799E+02 -0.55786362388E+02 -0.13063037743E+03  0.17448510047E+03  0.69968706706E+02 0.  0.
          5    1    1    2  502    0 -0.53993834446E+02  0.31694390456E+02 -0.10466637880E+03  0.12203438776E+03  0.41800000000E+01 0. -1.
         -5    1    1    2    0  502 -0.19307029353E+02  0.24091971932E+02  0.36171688144E+02  0.47739374915E+02  0.41800000000E+01 0. -1.
        -11    1    3    3    0    0  0.18861606025E+02 -0.45870105569E+02 -0.25703834197E+02  0.55861559763E+02  0.00000000000E+00 0. -1.
         11    1    3    3    0    0  0.54439257774E+02 -0.99162568196E+01 -0.10492654323E+03  0.11862354071E+03  0.00000000000E+00 0.  1.
</event>
<event>
 7    1  0.4687179E-006  0.1137700E+03  0.7561462E-02  0.1253744E+00
         -2   -1    0    0    0  501 -0.00000000000E+00  0.00000000000E+00  0.37295802821E+02  0.37295802821E+02  0.00000000000E+00 0.  1.
          2   -1    0    0  501    0  0.00000000000E+00 -0.00000000000E+00 -0.40739917460E+03  0.40739917460E+03  0.00000000000E+00 0. -1.
         23    2    1    2    0    0 -0.47774969348E+02 -0.10836432881E+02 -0.22402138167E+03  0.24623240495E+03  0.89693599691E+02 0.  0.
          5    1    1    2  502    0  0.88115586155E+02  0.19100549256E+02 -0.80667355602E+02  0.12105322038E+03  0.41800000000E+01 0. -1.
         -5    1    1    2    0  502 -0.40340616807E+02 -0.82641163749E+01 -0.65414634505E+02  0.77409352092E+02  0.41800000000E+01 0. -1.
        -11    1    3    3    0    0  0.16309697920E+02  0.19136210506E+02 -0.10322595258E+03  0.10624404965E+03  0.00000000000E+00 0. -1.
         11    1    3    3    0    0 -0.64084667268E+02 -0.29972643387E+02 -0.12079542909E+03  0.13998835530E+03  0.00000000000E+00 0.  1.
</event>
<event>
 7    1  0.4687179E-006  0.1134521E+03  0.7561462E-02  0.1254307E+00
         -2   -1    0    0    0  501 -0.00000000000E+00  0.00000000000E+00  0.82007088665E+02  0.82007088665E+02  0.00000000000E+00 0.  1.
          2   -1    0    0  501    0  0.00000000000E+00 -0.00000000000E+00 -0.26089171199E+03  0.26089171199E+03  0.00000000000E+00 0. -1.
         23    2    1    2    0    0  0.71577262835E+02 -0.51158263660E+01 -0.16020808601E+03  0.19748898665E+03  0.90475371182E+02 0.  0.
          5    1    1    2  502    0 -0.51545840897E+01 -0.50026460115E+02  0.15006199704E+02  0.52648598066E+02  0.41800000000E+01 0. -1.
         -5    1    1    2    0  502 -0.66422678745E+02  0.55142286481E+02 -0.33682737023E+02  0.92761215943E+02  0.41800000000E+01 0. -1.
        -11    1    3    3    0    0  0.49542662268E+02 -0.29086721269E+02 -0.33156039314E+02  0.66331257201E+02  0.00000000000E+00 0.  1.
         11    1    3    3    0    0  0.22034600566E+02  0.23970894903E+02 -0.12705204670E+03  0.13115772945E+03  0.00000000000E+00 0. -1.
</event>
<event>
 7    1  0.4687179E-006  0.1244559E+03  0.7561462E-02  0.1235922E+00
          2   -1    0    0  501    0  0.00000000000E+00  0.00000000000E+00  0.75304193906E+02  0.75304193906E+02  0.00000000000E+00 0. -1.
         -2   -1    0    0    0  501 -0.00000000000E+00 -0.00000000000E+00 -0.54129931620E+03  0.54129931620E+03  0.00000000000E+00 0.  1.
         23    2    1    2    0    0  0.52433633078E+02  0.79115311133E+02 -0.71148518203E+02  0.15004312961E+03  0.91882048116E+02 0.  0.
          5    1    1    2  502    0 -0.64216653887E+02 -0.38631227777E+02 -0.58741001860E+01  0.75286969981E+02  0.41800000000E+01 0. -1.
         -5    1    1    2    0  502  0.11783020808E+02 -0.40484083356E+02 -0.38897250390E+03  0.39127341051E+03  0.41800000000E+01 0.  1.
        -11    1    3    3    0    0  0.14275229448E+01  0.80447534208E+02 -0.36399001104E+02  0.88310423300E+02  0.00000000000E+00 0. -1.
         11    1    3    3    0    0  0.51006110133E+02 -0.13322230758E+01 -0.34749517099E+02  0.61732706306E+02  0.00000000000E+00 0.  1.
</event>
<event>
 7    1  0.4687179E-006  0.1131187E+03  0.7561462E-02  0.1254901E+00
          2   -1    0    0  501    0  0.00000000000E+00  0.00000000000E+00  0.47853396946E+03  0.47853396946E+03  0.00000000000E+00 0. -1.
         -2   -1    0    0    0  501 -0.00000000000E+00 -0.00000000000E+00 -0.30910317890E+02  0.30910317890E+02  0.00000000000E+00 0.  1.
         23    2    1    2    0    0 -0.32194089936E+02 -0.43088580254E+02  0.22125364298E+03  0.24527911264E+03  0.91189820641E+02 0.  0.
          5    1    1    2  502    0  0.68555434967E+02  0.31541042585E+01  0.67651337506E+02  0.96457098772E+02  0.41800000000E+01 0. -1.
         -5    1    1    2    0  502 -0.36361345031E+02  0.39934475995E+02  0.15871867108E+03  0.16770807594E+03  0.41800000000E+01 0. -1.
        -11    1    3    3    0    0  0.28256612509E+02 -0.30475953098E+02  0.63729484424E+02  0.76083290233E+02  0.00000000000E+00 0.  1.
         11    1    3    3    0    0 -0.60450702445E+02 -0.12612627155E+02  0.15752415855E+03  0.16919582240E+03  0.00000000000E+00 0. -1.
</event>
<event>
 7    1  0.4687179E-006  0.5735480E+02  0.7561462E-02  0.1409280E+00
          1   -1    0    0  501    0  0.00000000000E+00  0.00000000000E+00  0.26010970485E+02  0.26010970485E+02  0.00000000000E+00 0. -1.
         -1   -1    0    0    0  501 -0.00000000000E+00 -0.00000000000E+00 -0.47122987830E+03  0.47122987830E+03  0.00000000000E+00 0.  1.
         23    2    1    2    0    0  0.10797197352E+02  0.25049630481E+02 -0.17552297811E+03  0.19869520117E+03  0.89035968400E+02 0.  0.
          5    1    1    2  502    0 -0.19344233511E+02 -0.13933604838E+02 -0.27974833985E+03  0.28079343077E+03  0.41800000000E+01 0.  1.
         -5    1    1    2    0  502  0.85470361583E+01 -0.11116025642E+02  0.10052410141E+02  0.17752216842E+02  0.41800000000E+01 0.  1.
        -11    1    3    3    0    0 -0.17476072454E+02 -0.17536085013E+02 -0.12276137566E+03  0.12523291396E+03  0.00000000000E+00 0.  1.
         11    1    3    3    0    0  0.28273269806E+02  0.42585715494E+02 -0.52761602446E+02  0.73462287211E+02  0.00000000000E+00 0. -1.
</event>
<event>
 7    1  0.4687179E-006  0.8672623E+02  0.7561462E-02  0.1310979E+00
          1   -1    0    0  501    0  0.00000000000E+00  0.00000000000E+00  0.43038046956E+03  0.43038046956E+03  0.00000000000E+00 0. -1.
         -1   -1    0    0    0  501 -0.00000000000E+00 -0.00000000000E+00 -0.40937315316E+02  0.40937315316E+02  0.00000000000E+00 0.  1.
         23    2    1    2    0    0  0.30971325522E+02 -0.46580094125E+02  0.20427761222E+03  0.24096422696E+03  0.11491513236E+03 0.  0.
          5    1    1    2  502    0 -0.21054256571E+02  0.23482558656E+02  0.19888479104E+03  0.20141336795E+03  0.41800000000E+01 0. -1.
         -5    1    1    2    0  502 -0.99170689513E+01  0.23097535469E+02 -0.13719249023E+02  0.28940189963E+02  0.41800000000E+01 0. -1.
        -11    1    3    3    0    0 -0.21693406972E+02 -0.58297944948E+02  0.57978990493E+02  0.85034214466E+02  0.00000000000E+00 0.  1.
         11    1    3    3    0    0  0.52664732494E+02  0.11717850823E+02  0.14629862173E+03  0.15593001250E+03  0.00000000000E+00 0. -1.
</event>
<event>
 7    1  0.4687179E-006  0.1024439E+03  0.7561462E-02  0.1275239E+00
          2   -1    0    0  501    0  0.00000000000E+00  0.00000000000E+00  0.18383343831E+03  0.18383343831E+03  0.00000000000E+00 0. -1.
         -2   -1    0    0    0  501 -0.00000000000E+00 -0.00000000000E+00 -0.68227440420E+02  0.68227440420E+02  0.00000000000E+00 0.  1.
         23    2    1    2    0    0 -0.17211138201E+02  0.58154720795E+01  0.10268202616E+03  0.13745028991E+03  0.89548538275E+02 0.  0.
          5    1    1    2  502    0  0.54028559162E+02  0.30036555278E+02  0.24998937486E+01  0.62008077916E+02  0.41800000000E+01 0. -1.
         -5    1    1    2    0  502 -0.36817420960E+02 -0.35852027357E+02  0.10424077987E+02  0.52602510907E+02  0.41800000000E+01 0.  1.
        -11    1    3    3    0    0 -0.30392024947E+02 -0.36240588773E+02  0.52693653778E+02  0.70807320268E+02  0.00000000000E+00 0.  1.
         11    1    3    3    0    0  0.13180886746E+02  0.42056060852E+02  0.49988372381E+02  0.66642969645E+02  0.00000000000E+00 0. -1.
</event>
<event>
 7    1  0.4687179E-006  0.9995234E+02  0.7561462E-02  0.1280396E+00
         -4   -1    0    0    0  501 -0.00000000000E+00  0.00000000000E+00  0.71497151031E+03  0.71497151031E+03  0.00000000000E+00 0.  1.
          4   -1    0    0  501    0  0.00000000000E+00 -0.00000000000E+00 -0.23113049383E+02  0.23113049383E+02  0.00000000000E+00 0. -1.
         23    2    1    2    0    0 -0.43094919089E+02  0.32523044842E+02  0.24101690759E+03  0.26265741959E+03  0.89357986907E+02 0.  0.
          5    1    1    2  502    0  0.59091285807E+02  0.12471062947E+02  0.74268582179E+02  0.95815458921E+02  0.41800000000E+01 0. -1.
         -5    1    1    2    0  502 -0.15996366719E+02 -0.44994107790E+02  0.37657297115E+03  0.37961168118E+03  0.41800000000E+01 0.  1.
        -11    1    3    3    0    0 -0.64266582641E+02  0.25161544117E+02  0.22434782454E+03  0.23472375960E+03  0.00000000000E+00 0. -1.
         11    1    3    3    0    0  0.21171663553E+02  0.73615007252E+01  0.16669083053E+02  0.27933659988E+02  0.00000000000E+00 0.  1.
</event>
<event>
 7    1  0.4687179E-006  0.1094905E+03  0.7561462E-02  0.1261516E+00
          1   -1    0    0  501    0  0.00000000000E+00  0.00000000000E+00  0.16043721241E+03  0.16043721241E+03  0.00000000000E+00 0. -1.
         -1   -1    0    0    0  501 -0.00000000000E+00 -0.00000000000E+00 -0.12739366587E+03  0.12739366587E+03  0.00000000000E+00 0.  1.
         23    2    1    2    0    0 -0.62412964654E+02  0.10387425023E+02  0.82783604497E+02  0.13908598679E+03  0.92133109098E+02 0.  0.
          5    1    1    2  502    0  0.30198734698E+02  0.54374542987E+02 -0.43519219491E+02  0.76025978241E+02  0.41800000000E+01 0.  1.
         -5    1    1    2    0  502  0.32214229956E+02 -0.64761968010E+02 -0.62208384701E+01  0.72718913244E+02  0.41800000000E+01 0.  1.
        -11    1    3    3    0    0 -0.18202811501E+02 -0.22607969837E+02 -0.10370962771E+02  0.30822386597E+02  0.00000000000E+00 0.  1.
         11    1    3    3    0    0 -0.44210153153E+02  0.32995394861E+02  0.93154567268E+02  0.10826360019E+03  0.00000000000E+00 0. -1.
</event>
<event>
 7    1  0.4687179E-006  0.1049570E+03  0.7561462E-02  0.1270204E+00
         -1   -1    0    0    0  501 -0.00000000000E+00  0.00000000000E+00  0.39032192302E+02  0.39032192302E+02  0.00000000000E+00 0.  1.
          1   -1    0    0  501    0  0.00000000000E+00 -0.00000000000E+00 -0.49652257476E+03  0.49652257476E+03  0.00000000000E+00 0. -1.
         23    2    1    2    0    0 -0.54292258586E+02 -0.51710896564E+01 -0.33743355618E+03  0.35379796354E+03  0.91308294576E+02 0.  0.
          5    1    1    2  502    0 -0.50027087543E+01  0.37730966876E+02  0.58818117946E+01  0.38739141269E+02  0.41800000000E+01 0. -1.
         -5    1    1    2    0  502  0.59294967340E+02 -0.32559877220E+02 -0.12593863807E+03  0.14301766225E+03  0.41800000000E+01 0. -1.
        -11    1    3    3    0    0  0.23947034124E+02  0.63273315561E+01 -0.11742386153E+03  0.12000774485E+03  0.00000000000E+00 0. -1.
         11    1    3    3    0    0 -0.78239292710E+02 -0.11498421212E+02 -0.22000969465E+03  0.23379021869E+03  0.00000000000E+00 0.  1.
</event>
<event>
 7    1  0.4687179E-006  0.1252812E+03  0.7561462E-02  0.1234630E+00
          1   -1    0    0  501    0  0.00000000000E+00  0.00000000000E+00  0.73646626376E+02  0.73646626376E+02  0.00000000000E+00 0. -1.
         -1   -1    0    0    0  501 -0.00000000000E+00 -0.00000000000E+00 -0.23785044339E+03  0.23785044339E+03  0.00000000000E+00 0.  1.
         23    2    1    2    0    0  0.72330633035E+02  0.49830776088E+01 -0.53365072027E+02  0.12931663579E+03  0.92835391102E+02 0.  0.
          5    1    1    2  502    0 -0.85169484081E+02  0.42358339793E+02 -0.76846930120E+02  0.12235600940E+03  0.41800000000E+01 0.  1.
         -5    1    1    2    0  502  0.12838851045E+02 -0.47341417402E+02 -0.33991814868E+02  0.59824424575E+02  0.41800000000E+01 0.  1.
        -11    1    3    3    0    0  0.14188412689E+01 -0.27913282091E+02 -0.41817304153E+02  0.50297627720E+02  0.00000000000E+00 0.  1.
         11    1    3    3    0    0  0.70911791766E+02  0.32896359699E+02 -0.11547767874E+02  0.79019008067E+02  0.00000000000E+00 0. -1.
</event>
<event>
 7    1  0.4687179E-006  0.1294900E+03  0.7561462E-02  0.1228214E+00
         -2   -1    0    0    0  501 -0.00000000000E+00  0.00000000000E+00  0.11979761628E+03  0.11979761628E+03  0.00000000000E+00 0.  1.
          2   -1    0    0  501    0  0.00000000000E+00 -0.00000000000E+00 -0.17660331728E+03  0.17660331728E+03  0.00000000000E+00 0. -1.
         23    2    1    2    0    0  0.79820691014E+02 -0.16514675665E+02 -0.78178851765E+02  0.14557632993E+03  0.91850191866E+02 0.  0.
          5    1    1    2  502    0 -0.10447474889E+03  0.41943726272E+02  0.87673136245E+01  0.11299817485E+03  0.41800000000E+01 0.  1.
         -5    1    1    2    0  502  0.24654057881E+02 -0.25429050608E+02  0.12605837146E+02  0.37826428789E+02  0.41800000000E+01 0.  1.
        -11    1    3    3    0    0  0.92928459832E+00  0.22588512022E+02  0.63876858581E+01  0.23492700481E+02  0.00000000000E+00 0.  1.
         11    1    3    3    0    0  0.78891406416E+02 -0.39103187687E+02 -0.84566537623E+02  0.12208362945E+03  0.00000000000E+00 0. -1.
</event>
<event>
 7    1  0.4687179E-006  0.1209798E+03  0.7561462E-02  0.1241489E+00
          2   -1    0    0  501    0  0.00000000000E+00  0.00000000000E+00  0.68440511354E+02  0.68440511354E+02  0.00000000000E+00 0. -1.
         -2   -1    0    0    0  501 -0.00000000000E+00 -0.00000000000E+00 -0.24999398085E+03  0.24999398085E+03  0.00000000000E+00 0.  1.
         23    2    1    2    0    0 -0.56187585808E+02  0.13460623794E+01 -0.25073558303E+02  0.11036561212E+03  0.91613472426E+02 0.  0.
          5    1    1    2  502    0  0.26117337087E+02  0.60255235297E+02 -0.56260326711E+02  0.86576587128E+02  0.41800000000E+01 0. -1.
         -5    1    1    2    0  502  0.30070248721E+02 -0.61601297676E+02 -0.10021958448E+03  0.12149229295E+03  0.41800000000E+01 0. -1.
        -11    1    3    3    0    0 -0.21557446629E+02 -0.44839324483E+02 -0.11365643862E+02  0.51033972858E+02  0.00000000000E+00 0.  1.
         11    1    3    3    0    0 -0.34630139178E+02  0.46185386863E+02 -0.13707914442E+02  0.59331639262E+02  0.00000000000E+00 0. -1.
</event>
<event>
 7    1  0.4687179E-006  0.8834390E+02  0.7561462E-02  0.1306912E+00
         -2   -1    0    0    0  501 -0.00000000000E+00  0.00000000000E+00  0.17034570028E+03  0.17034570028E+03  0.00000000000E+00 0.  1.
          2   -1    0    0  501    0  0.00000000000E+00 -0.00000000000E+00 -0.12864480934E+03  0.12864480934E+03  0.00000000000E+00 0. -1.
         23    2    1    2    0    0 -0.19317804640E+01  0.76159869776E+02 -0.48398468064E+02  0.12703382168E+03  0.89393079146E+02 0.  0.
          5    1    1    2  502    0  0.55321543171E+01  0.85239269281E+01  0.86312333586E+02  0.87008927075E+02  0.41800000000E+01 0. -1.
         -5    1    1    2    0  502 -0.36003738531E+01 -0.84683796704E+02  0.37870254184E+01  0.84947760875E+02  0.41800000000E+01 0. -1.
        -11    1    3    3    0    0  0.12581814398E+02  0.34985948927E+02  0.22729189074E+02  0.43576768029E+02  0.00000000000E+00 0.  1.
         11    1    3    3    0    0 -0.14513594862E+02  0.41173920849E+02 -0.71127657138E+02  0.83457053650E+02  0.00000000000E+00 0. -1.
</event>
<event>
 7    1  0.4687179E-006  0.1594206E+03  0.7561462E-02  0.1189352E+00
          2   -1    0    0  501    0  0.00000000000E+00  0.00000000000E+00  0.22480294781E+04  0.22480294781E+04  0.00000000000E+00 0. -1.
         -2   -1    0    0    0  501 -0.00000000000E+00 -0.00000000000E+00 -0.12162935696E+02  0.12162935696E+02  0.00000000000E+00 0.  1.
         23    2    1    2    0    0 -0.44840352960E+02  0.11163568429E+03  0.81688212009E+03  0.83063421423E+03  0.90463343285E+02 0.  0.
          5    1    1    2  502    0 -0.32321378918E+02  0.23138908837E+01  0.17937822233E+03  0.18232949480E+03  0.41800000000E+01 0.  1.
         -5    1    1    2    0  502  0.77161731877E+02 -0.11394957517E+03  0.12396061999E+04  0.12472287047E+04  0.41800000000E+01 0.  1.
        -11    1    3    3    0    0 -0.25196270291E+01 -0.14874807892E+02  0.49670506619E+02  0.51911151576E+02  0.00000000000E+00 0.  1.
         11    1    3    3    0    0 -0.42320725931E+02  0.12651049218E+03  0.76721161347E+03  0.77872306266E+03  0.00000000000E+00 0. -1.
</event>
<event>
 7    1  0.4687179E-006  0.1251278E+03  0.7561462E-02  0.1234870E+00
          1   -1    0    0  501    0  0.00000000000E+00  0.00000000000E+00  0.12473241375E+04  0.12473241375E+04  0.00000000000E+00 0. -1.
         -1   -1    0    0    0  501 -0.00000000000E+00 -0.00000000000E+00 -0.20584731462E+02  0.20584731462E+02  0.00000000000E+00 0.  1.
         23    2    1    2    0    0 -0.54745102080E+02  0.93682610789E+02  0.81141007929E+03  0.82364280310E+03  0.90706629098E+02 0.  0.
          5    1    1    2  502    0  0.19104008921E+02 -0.27670130481E+02  0.32504766905E+03  0.32680890263E+03  0.41800000000E+01 0. -1.
         -5    1    1    2    0  502  0.35641093159E+02 -0.66012480308E+02  0.90281657674E+02  0.11745716321E+03  0.41800000000E+01 0.  1.
        -11    1    3    3    0    0 -0.40149570015E+02 -0.59080446687E+01  0.21433813018E+03  0.21814611391E+03  0.00000000000E+00 0.  1.
         11    1    3    3    0    0 -0.14595532066E+02  0.99590655457E+02  0.59707194911E+03  0.60549668919E+03  0.00000000000E+00 0. -1.
</event>
<event>
 7    1  0.4687179E-006  0.9849111E+02  0.7561462E-02  0.1283501E+00
         -1   -1    0    0    0  501 -0.00000000000E+00  0.00000000000E+00  0.40605917096E+02  0.40605917096E+02  0.00000000000E+00 0.  1.
          1   -1    0    0  501    0  0.00000000000E+00 -0.00000000000E+00 -0.31838520366E+03  0.31838520366E+03  0.00000000000E+00 0. -1.
         23    2    1    2    0    0  0.28977942400E+02  0.60130759861E+01 -0.14904836349E+03  0.17707037254E+03  0.90898976584E+02 0.  0.
          5    1    1    2  502    0  0.43651269915E+02  0.23489397301E+02 -0.55990191808E+02  0.74896990123E+02  0.41800000000E+01 0. -1.
         -5    1    1    2    0  502 -0.72629212315E+02 -0.29502473287E+02 -0.72740731275E+02  0.10702375810E+03  0.41800000000E+01 0. -1.
        -11    1    3    3    0    0  0.48688639133E+02  0.56798636045E+01 -0.14952108006E+03  0.15735119261E+03  0.00000000000E+00 0.  1.
         11    1    3    3    0    0 -0.19710696733E+02  0.33321238155E+00  0.47271657722E+00  0.19719179931E+02  0.00000000000E+00 0. -1.
</event>
<event>
 7    1  0.4687179E-006  0.1428348E+03  0.7561462E-02  0.1209565E+00
         -2   -1    0    0    0  501 -0.00000000000E+00  0.00000000000E+00  0.76241647119E+02  0.76241647119E+02  0.00000000000E+00 0.  1.
          2   -1    0    0  501    0  0.00000000000E+00 -0.00000000000E+00 -0.35177627752E+03  0.35177627752E+03  0.00000000000E+00 0. -1.
         23    2    1    2    0    0  0.40282505704E+02  0.10884780739E+03 -0.17889513868E+03  0.23191149132E+03  0.91153407641E+02 0.  0.
          5    1    1    2  502    0 -0.83843924018E+02 -0.85060211087E+02 -0.56779103229E+02  0.13231168531E+03  0.41800000000E+01 0. -1.
         -5    1    1    2    0  502  0.43561418314E+02 -0.23787596301E+02 -0.39860388491E+02  0.63794748012E+02  0.41800000000E+01 0. -1.
        -11    1    3    3    0    0  0.24117319155E+02  0.53367086898E+02 -0.16114871175E+03  0.17146019464E+03  0.00000000000E+00 0. -1.
         11    1    3    3    0    0  0.16165186549E+02  0.55480720489E+02 -0.17746426937E+02  0.60451296688E+02  0.00000000000E+00 0.  1.
</event>
<event>
 7    1  0.4687179E-006  0.7778562E+02  0.7561462E-02  0.1335456E+00
          2   -1    0    0  501    0  0.00000000000E+00  0.00000000000E+00  0.11387224285E+03  0.11387224285E+03  0.00000000000E+00 0. -1.
         -2   -1    0    0    0  501 -0.00000000000E+00 -0.00000000000E+00 -0.20742509942E+03  0.20742509942E+03  0.00000000000E+00 0.  1.
         23    2    1    2    0    0 -0.55728337269E+02  0.29533559553E+02  0.47365917064E+02  0.12259174697E+03  0.93847363368E+02 0.  0.
          5    1    1    2  502    0  0.68041659227E+02 -0.32357839971E+02 -0.15915090740E+03  0.17613398572E+03  0.41800000000E+01 0. -1.
         -5    1    1    2    0  502 -0.12313321958E+02  0.28242804179E+01  0.18232133765E+02  0.22571609583E+02  0.41800000000E+01 0. -1.
        -11    1    3    3    0    0 -0.28740251213E+02  0.28972926204E+01  0.71860854356E+02  0.77449200984E+02  0.00000000000E+00 0. -1.
         11    1    3    3    0    0 -0.26988086056E+02  0.26636266933E+02 -0.24494937292E+02  0.45142545985E+02  0.00000000000E+00 0.  1.
</event>
<event>
 7    1  0.4687179E-006  0.1156130E+03  0.7561462E-02  0.1250515E+00
         -1   -1    0    0    0  501 -0.00000000000E+00  0.00000000000E+00  0.82513252092E+02  0.82513252092E+02  0.00000000000E+00 0.  1.
          1   -1    0    0  501    0  0.00000000000E+00 -0.00000000000E+00 -0.19400206566E+03  0.19400206566E+03  0.00000000000E+00 0. -1.
         23    2    1    2    0    0 -0.79539444774E+01  0.63691280135E+02 -0.60317582874E+02  0.12689698708E+03  0.91349822820E+02 0.  0.
          5    1    1    2  502    0  0.32785438504E+02 -0.91398377818E+02 -0.55513135740E+02  0.11192733842E+03  0.41800000000E+01 0. -1.
         -5    1    1    2    0  502 -0.24831494027E+02  0.27707097684E+02  0.43419050427E+01  0.37690992253E+02  0.41800000000E+01 0. -1.
        -11    1    3    3    0    0 -0.27819884932E+02 -0.20720207886E+01  0.89913470816E+01  0.29310127774E+02  0.00000000000E+00 0. -1.
         11    1    3    3    0    0  0.19865940454E+02  0.65763300923E+02 -0.69308929956E+02  0.97586859311E+02  0.00000000000E+00 0.  1.
</event>
<event>
 7    1  0.4687179E-006  0.1396450E+03  0.7561462E-02  0.1213807E+00
          1   -1    0    0  501    0  0.00000000000E+00  0.00000000000E+00  0.24025855494E+03  0.24025855494E+03  0.00000000000E+00 0. -1.
         -1   -1    0    0    0  501 -0.00000000000E+00 -0.00000000000E+00 -0.28273586088E+03  0.28273586088E+03  0.00000000000E+00 0.  1.
         23    2    1    2    0    0 -0.98068712966E+01 -0.11449401284E+03  0.18419353616E+03  0.23974044745E+03  0.10170137501E+03 0.  0.
          5    1    1    2  502    0  0.60791522085E+02  0.71657844410E+02 -0.17568417240E+03  0.19928084869E+03  0.41800000000E+01 0.  1.
         -5    1    1    2    0  502 -0.50984650788E+02  0.42836168429E+02 -0.50986669697E+02  0.83973119678E+02  0.41800000000E+01 0.  1.
        -11    1    3    3    0    0 -0.16776238112E+02 -0.36171437190E+02  0.44586087214E+00  0.39874977436E+02  0.00000000000E+00 0.  1.
         11    1    3    3    0    0  0.69693668158E+01 -0.78322575649E+02  0.18374767529E+03  0.19986547002E+03  0.00000000000E+00 0. -1.
</event>
<event>
 7    1  0.4687179E-006  0.1824908E+03  0.7561462E-02  0.1165414E+00
          2   -1    0    0  501    0  0.00000000000E+00  0.00000000000E+00  0.73035852287E+02  0.73035852287E+02  0.00000000000E+00 0. -1.
         -2   -1    0    0    0  501 -0.00000000000E+00 -0.00000000000E+00 -0.52060991793E+03  0.52060991793E+03  0.00000000000E+00 0.  1.
         23    2    1    2    0    0  0.97098135878E+01  0.14343834882E+03 -0.14908482594E+03  0.23950998749E+03  0.12029093229E+03 0.  0.
          5    1    1    2  502    0  0.55039144294E+02 -0.87760871008E+02 -0.18466040006E+03  0.21177396827E+03  0.41800000000E+01 0. -1.
         -5    1    1    2    0  502 -0.64748957882E+02 -0.55677477811E+02 -0.11382883964E+03  0.14236181446E+03  0.41800000000E+01 0. -1.
        -11    1    3    3    0    0 -0.28219248737E+02  0.13370382386E+03 -0.14639230961E+03  0.20025919910E+03  0.00000000000E+00 0.  1.
         11    1    3    3    0    0  0.37929062325E+02  0.97345249641E+01 -0.26925163362E+01  0.39250788392E+02  0.00000000000E+00 0. -1.
</event>
<event>
 7    1  0.4687179E-006  0.2146587E+03  0.7561462E-02  0.1137929E+00
         -1   -1    0    0    0  501 -0.00000000000E+00  0.00000000000E+00  0.35444164631E+02  0.35444164631E+02  0.00000000000E+00 0.  1.
          1   -1    0    0  501    0  0.00000000000E+00 -0.00000000000E+00 -0.16648945950E+04  0.16648945950E+04  0.00000000000E+00 0. -1.
         23    2    1    2    0    0  0.98757081236E+02  0.18982824646E+03 -0.67726284435E+03  0.71641988180E+03  0.93727063606E+02 0.  0.
          5    1    1    2  502    0 -0.66985606877E+02 -0.14611391904E+03 -0.87469967718E+03  0.88935557935E+03  0.41800000000E+01 0.  1.
         -5    1    1    2    0  502 -0.31771474359E+02 -0.43714327416E+02 -0.77487908872E+02  0.94563298513E+02  0.41800000000E+01 0.  1.
        -11    1    3    3    0    0  0.71621952350E+02  0.14872063282E+03 -0.61641738076E+03  0.63813628481E+03  0.00000000000E+00 0. -1.
         11    1    3    3    0    0  0.27135128885E+02  0.41107613637E+02 -0.60845463595E+02  0.78283596996E+02  0.00000000000E+00 0.  1.
</event>
<event>
 7    1  0.4687179E-006  0.9615022E+02  0.7561462E-02  0.1288606E+00
         -3   -1    0    0    0  501 -0.00000000000E+00  0.00000000000E+00  0.29629985508E+03  0.29629985508E+03  0.00000000000E+00 0.  1.
          3   -1    0    0  501    0  0.00000000000E+00 -0.00000000000E+00 -0.57942793376E+02  0.57942793376E+02  0.00000000000E+00 0. -1.
         23    2    1    2    0    0  0.11388370430E+02  0.33692049441E+02  0.20829300232E+02  0.10080569688E+03  0.91994997687E+02 0.  0.
          5    1    1    2  502    0 -0.57139539143E+02  0.18754210124E+02  0.97751000704E+02  0.11484501674E+03  0.41800000000E+01 0. -1.
         -5    1    1    2    0  502  0.45751168713E+02 -0.52446259565E+02  0.11977676076E+03  0.13859193483E+03  0.41800000000E+01 0. -1.
        -11    1    3    3    0    0 -0.40079415549E+01  0.43730833275E+02 -0.25627564961E+02  0.50845073117E+02  0.00000000000E+00 0. -1.
         11    1    3    3    0    0  0.15396311984E+02 -0.10038783834E+02  0.46456865193E+02  0.49960623767E+02  0.00000000000E+00 0.  1.
</event>
<event>
 7    1  0.4687179E-006  0.1428923E+03  0.7561462E-02  0.1209489E+00
         -1   -1    0    0    0  501 -0.00000000000E+00  0.00000000000E+00  0.14909918872E+03  0.14909918872E+03  0.00000000000E+00 0.  1.
          1   -1    0    0  501    0  0.00000000000E+00 -0.00000000000E+00 -0.17406432789E+03  0.17406432789E+03  0.00000000000E+00 0. -1.
         23    2    1    2    0    0 -0.96799089620E+02  0.13444402730E+02 -0.78058152551E+02  0.15577906785E+03  0.92861332552E+02 0.  0.
          5    1    1    2  502    0  0.53988180661E+02 -0.64939834388E+02  0.53917989203E+02  0.10028224021E+03  0.41800000000E+01 0.  1.
         -5    1    1    2    0  502  0.42810908959E+02  0.51495431657E+02 -0.82497582529E+00  0.67102208552E+02  0.41800000000E+01 0.  1.
        -11    1    3    3    0    0 -0.67760771975E+02  0.52320634581E+02 -0.57210643587E+02  0.10296615347E+03  0.00000000000E+00 0. -1.
         11    1    3    3    0    0 -0.29038317645E+02 -0.38876231850E+02 -0.20847508964E+02  0.52812914372E+02  0.00000000000E+00 0.  1.
</event>
<event>
 7    1  0.4687179E-006  0.1284353E+03  0.7561462E-02  0.1229796E+00
          2   -1    0    0  501    0  0.00000000000E+00  0.00000000000E+00  0.90404049328E+03  0.90404049328E+03  0.00000000000E+00 0. -1.
         -2   -1    0    0    0  501 -0.00000000000E+00 -0.00000000000E+00 -0.22228325668E+02  0.22228325668E+02  0.00000000000E+00 0.  1.
         23    2    1    2    0    0 -0.88059667526E+02 -0.56709379628E+01  0.47030643366E+03  0.48721279999E+03  0.91659731334E+02 0.  0.
          5    1    1    2  502    0 -0.22947671012E+02 -0.27475703802E+02  0.12169013254E+03  0.12691521052E+03  0.41800000000E+01 0.  1.
         -5    1    1    2    0  502  0.11100733854E+03  0.33146641765E+02  0.28981560141E+03  0.31214080843E+03  0.41800000000E+01 0.  1.
        -11    1    3    3    0    0 -0.93863785086E+02  0.36367698432E+01  0.46608974956E+03  0.47546113500E+03  0.00000000000E+00 0. -1.
         11    1    3    3    0    0  0.58041175601E+01 -0.93077078060E+01  0.42166840954E+01  0.11751664989E+02  0.00000000000E+00 0.  1.
</event>
<event>
 7    1  0.4687179E-006  0.1275841E+03  0.7561462E-02  0.1231085E+00
          1   -1    0    0  501    0  0.00000000000E+00  0.00000000000E+00  0.47259213872E+03  0.47259213872E+03  0.00000000000E+00 0. -1.
         -1   -1    0    0    0  501 -0.00000000000E+00 -0.00000000000E+00 -0.56967890322E+02  0.56967890322E+02  0.00000000000E+00 0.  1.
         23    2    1    2    0    0  0.87565600245E+01  0.11755409981E+03  0.25116825068E+03  0.29167415710E+03  0.89959324383E+02 0.  0.
          5    1    1    2  502    0 -0.29565276797E+02 -0.31607234307E+02  0.13918838115E+03  0.14582181147E+03  0.41800000000E+01 0. -1.
         -5    1    1    2    0  502  0.20808716772E+02 -0.85946865507E+02  0.25267616568E+02  0.92064060476E+02  0.41800000000E+01 0. -1.
        -11    1    3    3    0    0  0.14806319641E+02  0.17507155705E+02  0.18973397664E+01  0.23007118472E+02  0.00000000000E+00 0.  1.
         11    1    3    3    0    0 -0.60497596163E+01  0.10004694411E+03  0.24927091092E+03  0.26866703863E+03  0.00000000000E+00 0. -1.
</event>
<event>
 7    1  0.4687179E-006  0.1226291E+03  0.7561462E-02  0.1238822E+00
          1   -1    0    0  501    0  0.00000000000E+00  0.00000000000E+00  0.53324439954E+03  0.53324439954E+03  0.00000000000E+00 0. -1.
         -1   -1    0    0    0  501 -0.00000000000E+00 -0.00000000000E+00 -0.43657165143E+02  0.43657165143E+02  0.00000000000E+00 0.  1.
         23    2    1    2    0    0 -0.28458201745E+02  0.76099096064E+02  0.35747888016E+03  0.37764813166E+03  0.90697408540E+02 0.  0.
          5    1    1    2  502    0  0.66338893864E+02 -0.73484860457E+01  0.39063214671E+02  0.77448410098E+02  0.41800000000E+01 0. -1.
         -5    1    1    2    0  502 -0.37880692119E+02 -0.68750610018E+02  0.93045139567E+02  0.12180502293E+03  0.41800000000E+01 0. -1.
        -11    1    3    3    0    0 -0.41572949123E+02  0.28502399782E+02  0.28821682625E+03  0.29259124360E+03  0.00000000000E+00 0. -1.
         11    1    3    3    0    0  0.13114747378E+02  0.47596696282E+02  0.69262053904E+02  0.85056888062E+02  0.00000000000E+00 0.  1.
</event>
<event>
 7    1  0.4687179E-006  0.1115946E+03  0.7561462E-02  0.1257645E+00
          2   -1    0    0  501    0  0.00000000000E+00  0.00000000000E+00  0.81877049019E+02  0.81877049019E+02  0.00000000000E+00 0. -1.
         -2   -1    0    0    0  501 -0.00000000000E+00 -0.00000000000E+00 -0.30376220838E+03  0.30376220838E+03  0.00000000000E+00 0.  1.
         23    2    1    2    0    0 -0.87151755317E+02  0.52420720571E+02 -0.39673892651E+02  0.14234667661E+03  0.91352056267E+02 0.  0.
          5    1    1    2  502    0  0.81083751343E+02 -0.50829454150E+02 -0.20121282643E+03  0.22285035800E+03  0.41800000000E+01 0. -1.
         -5    1    1    2    0  502  0.60680039734E+01 -0.15912664203E+01  0.19001559715E+02  0.20442222791E+02  0.41800000000E+01 0. -1.
        -11    1    3    3    0    0  0.17092885456E+01  0.27525788593E+02 -0.41755134412E+02  0.50040802899E+02  0.00000000000E+00 0.  1.
         11    1    3    3    0    0 -0.88861043862E+02  0.24894931977E+02  0.20812417613E+01  0.92305873712E+02  0.00000000000E+00 0. -1.
</event>
<event>
 7    1  0.4687179E-006  0.1350835E+03  0.7561462E-02  0.1220102E+00
          1   -1    0    0  501    0  0.00000000000E+00  0.00000000000E+00  0.47664664146E+02  0.47664664146E+02  0.00000000000E+00 0. -1.
         -1   -1    0    0    0  501 -0.00000000000E+00 -0.00000000000E+00 -0.42942976291E+03  0.42942976291E+03  0.00000000000E+00 0.  1.
         23    2    1    2    0    0  0.86867697151E+02 -0.30479891330E+02 -0.15535675369E+03  0.20252757430E+03  0.91687931876E+02 0.  0.
          5    1    1    2  502    0  0.13346498444E+02  0.43470345372E+02 -0.33101145694E+02  0.56399983987E+02  0.41800000000E+01 0. -1.
         -5    1    1    2    0  502 -0.10021419560E+03 -0.12990454042E+02 -0.19330719938E+03  0.21816686876E+03  0.41800000000E+01 0. -1.
        -11    1    3    3    0    0  0.75138636121E+01 -0.42451493486E+02 -0.87054942745E+02  0.97144997308E+02  0.00000000000E+00 0.  1.
         11    1    3    3    0    0  0.79353833539E+02  0.11971602156E+02 -0.68301810945E+02  0.10538257699E+03  0.00000000000E+00 0. -1.
</event>
<event>
 7    1  0.4687179E-006  0.1210030E+03  0.7561462E-02  0.1241452E+00
          2   -1    0    0  501    0  0.00000000000E+00  0.00000000000E+00  0.50110273584E+03  0.50110273584E+03  0.00000000000E+00 0. -1.
         -2   -1    0    0    0  501 -0.00000000000E+00 -0.00000000000E+00 -0.36103655175E+02  0.36103655175E+02  0.00000000000E+00 0.  1.
         23    2    1    2    0    0 -0.19660637654E+01 -0.18189803835E+02  0.30285069473E+03  0.31745618399E+03  0.93408517221E+02 0.  0.
          5    1    1    2  502    0  0.63139268436E+02 -0.30214005150E+02  0.80255877590E+02  0.10657359717E+03  0.41800000000E+01 0. -1.
         -5    1    1    2    0  502 -0.61173204670E+02  0.48403808985E+02  0.81892508345E+02  0.11317660985E+03  0.41800000000E+01 0.  1.
        -11    1    3    3    0    0 -0.41719689371E+02  0.12491647088E+02  0.11375541426E+03  0.12180668291E+03  0.00000000000E+00 0. -1.
         11    1    3    3    0    0  0.39753625605E+02 -0.30681450923E+02  0.18909528047E+03  0.19564950108E+03  0.00000000000E+00 0.  1.
</event>
<event>
 7    1  0.4687179E-006  0.1040302E+03  0.7561462E-02  0.1272042E+00
          2   -1    0    0  501    0  0.00000000000E+00  0.00000000000E+00  0.57001798912E+03  0.57001798912E+03  0.00000000000E+00 0. -1.
         -2   -1    0    0    0  501 -0.00000000000E+00 -0.00000000000E+00 -0.23281965634E+02  0.23281965634E+02  0.00000000000E+00 0.  1.
         23    2    1    2    0    0 -0.17569869620E+02 -0.34386056250E+02  0.21972344512E+03  0.24105592616E+03  0.91315201455E+02 0.  0.
          5    1    1    2  502    0  0.43603337849E+02 -0.34852500329E+02  0.16085935424E+03  0.17032073302E+03  0.41800000000E+01 0.  1.
         -5    1    1    2    0  502 -0.26033468229E+02  0.69238556579E+02  0.16615322412E+03  0.18192329557E+03  0.41800000000E+01 0.  1.
        -11    1    3    3    0    0  0.21833020301E+02  0.48748752636E+01  0.10774814552E+02  0.24830260026E+02  0.00000000000E+00 0.  1.
         11    1    3    3    0    0 -0.39402889921E+02 -0.39260931514E+02  0.20894863057E+03  0.21622566613E+03  0.00000000000E+00 0. -1.
</event>
<event>
 7    1  0.4687179E-006  0.1173890E+03  0.7561462E-02  0.1247468E+00
         -2   -1    0    0    0  501 -0.00000000000E+00  0.00000000000E+00  0.62214309844E+02  0.62214309844E+02  0.00000000000E+00 0. -1.
          2   -1    0    0  501    0  0.00000000000E+00 -0.00000000000E+00 -0.31460265225E+03  0.31460265225E+03  0.00000000000E+00 0.  1.
         23    2    1    2    0    0 -0.52069881854E+02 -0.50493934290E+02 -0.18574400975E+03  0.21760151138E+03  0.87112976083E+02 0.  0.
          5    1    1    2  502    0 -0.44885426309E+01 -0.38016207026E+02 -0.99129545169E+01  0.39763275504E+02  0.41800000000E+01 0. -1.
         -5    1    1    2    0  502  0.56558424485E+02  0.88510141315E+02 -0.56731378139E+02  0.11945217521E+03  0.41800000000E+01 0. -1.
        -11    1    3    3    0    0 -0.54051488342E+02 -0.60396127380E+02 -0.19005906877E+03  0.20661971159E+03  0.00000000000E+00 0.  1.
         11    1    3    3    0    0  0.19816064877E+01  0.99021930908E+01  0.43150590253E+01  0.10981799792E+02  0.00000000000E+00 0. -1.
</event>
<event>
 7    1  0.4687179E-006  0.1795722E+03  0.7561462E-02  0.1168218E+00
         -1   -1    0    0    0  501 -0.00000000000E+00  0.00000000000E+00  0.62596978164E+02  0.62596978164E+02  0.00000000000E+00 0.  1.
          1   -1    0    0  501    0  0.00000000000E+00 -0.00000000000E+00 -0.65023332826E+03  0.65023332826E+03  0.00000000000E+00 0. -1.
         23    2    1    2    0    0 -0.14163646533E+03  0.82666440960E+02 -0.35911094835E+03  0.40499000801E+03  0.90341599456E+02 0.  0.
          5    1    1    2  502    0  0.17106822424E+02 -0.55799729740E+02 -0.14254965442E+03  0.15409130276E+03  0.41800000000E+01 0. -1.
         -5    1    1    2    0  502  0.12452964291E+03 -0.26866711221E+02 -0.85975747334E+02  0.15374899565E+03  0.41800000000E+01 0. -1.
        -11    1    3    3    0    0 -0.11826697225E+03  0.40591266890E+02 -0.17756694321E+03  0.21717446211E+03  0.00000000000E+00 0.  1.
         11    1    3    3    0    0 -0.23369493086E+02  0.42075174070E+02 -0.18154400514E+03  0.18781554590E+03  0.00000000000E+00 0. -1.
</event>
<event>
 7    1  0.4687179E-006  0.1509470E+03  0.7561462E-02  0.1199314E+00
          3   -1    0    0  501    0  0.00000000000E+00  0.00000000000E+00  0.31579680861E+03  0.31579680861E+03  0.00000000000E+00 0. -1.
         -3   -1    0    0    0  501 -0.00000000000E+00 -0.00000000000E+00 -0.10040349233E+03  0.10040349233E+03  0.00000000000E+00 0.  1.
         23    2    1    2    0    0  0.11435663950E+03  0.75891305549E+02  0.13964117966E+03  0.21564644745E+03  0.90370349027E+02 0.  0.
          5    1    1    2  502    0 -0.19506950592E+02 -0.25558102390E+02  0.86675816966E+02  0.92541381910E+02  0.41800000000E+01 0. -1.
         -5    1    1    2    0  502 -0.94849688911E+02 -0.50333203159E+02 -0.10923680344E+02  0.10801247159E+03  0.41800000000E+01 0. -1.
        -11    1    3    3    0    0  0.40802850980E+02  0.78437043505E+02  0.58065743786E+02  0.10577746945E+03  0.00000000000E+00 0.  1.
         11    1    3    3    0    0  0.73553788523E+02 -0.25457379565E+01  0.81575435875E+02  0.10986897800E+03  0.00000000000E+00 0. -1.
</event>
<event>
 7    1  0.4687179E-006  0.1334960E+03  0.7561462E-02  0.1222359E+00
         -2   -1    0    0    0  501 -0.00000000000E+00  0.00000000000E+00  0.28493771162E+02  0.28493771162E+02  0.00000000000E+00 0.  1.
          2   -1    0    0  501    0  0.00000000000E+00 -0.00000000000E+00 -0.67375395569E+03  0.67375395569E+03  0.00000000000E+00 0. -1.
         23    2    1    2    0    0 -0.80936912049E+02 -0.28578848162E+02 -0.30613104539E+03  0.33073235005E+03  0.91105082849E+02 0.  0.
          5    1    1    2  502    0  0.11041241334E+03  0.24997447400E+02 -0.30854611251E+03  0.32868518272E+03  0.41800000000E+01 0.  1.
         -5    1    1    2    0  502 -0.29475501287E+02  0.35814007613E+01 -0.30583026625E+02  0.42830194082E+02  0.41800000000E+01 0.  1.
        -11    1    3    3    0    0 -0.13708260596E+02  0.30998647858E+02 -0.10789094762E+03  0.11308973939E+03  0.00000000000E+00 0. -1.
         11    1    3    3    0    0 -0.67228651453E+02 -0.59577496019E+02 -0.19824009778E+03  0.21764261066E+03  0.00000000000E+00 0.  1.
</event>
<event>
 7    1  0.4687179E-006  0.1353498E+03  0.7561462E-02  0.1219727E+00
          2   -1    0    0  501    0  0.00000000000E+00  0.00000000000E+00  0.11614558705E+03  0.11614558705E+03  0.00000000000E+00 0.  1.
         -2   -1    0    0    0  501 -0.00000000000E+00 -0.00000000000E+00 -0.22588379106E+03  0.22588379106E+03  0.00000000000E+00 0. -1.
         23    2    1    2    0    0  0.26769808558E+02 -0.82326108807E+02  0.35362370081E+02  0.13180088173E+03  0.92880376642E+02 0.  0.
          5    1    1    2  502    0 -0.65473195344E+02  0.82522137143E+02 -0.13247426372E+03  0.16930311685E+03  0.41800000000E+01 0. -1.
         -5    1    1    2    0  502  0.38703386786E+02 -0.19602833539E+00 -0.12626310378E+02  0.40925379529E+02  0.41800000000E+01 0. -1.
        -11    1    3    3    0    0  0.56097391024E+02 -0.78914699173E+02  0.21485022085E+02  0.99176878350E+02  0.00000000000E+00 0. -1.
         11    1    3    3    0    0 -0.29327582467E+02 -0.34114096343E+01  0.13877347996E+02  0.32624003378E+02  0.00000000000E+00 0.  1.
</event>
<event>
 7    1  0.4687179E-006  0.1684704E+03  0.7561462E-02  0.1179452E+00
         -1   -1    0    0    0  501 -0.00000000000E+00  0.00000000000E+00  0.38808151290E+03  0.38808151290E+03  0.00000000000E+00 0.  1.
          1   -1    0    0  501    0  0.00000000000E+00 -0.00000000000E+00 -0.99173675930E+02  0.99173675930E+02  0.00000000000E+00 0. -1.
         23    2    1    2    0    0  0.64641783809E+02  0.27103959608E+00  0.18522418894E+02  0.11369885164E+03  0.91682687492E+02 0.  0.
          5    1    1    2  502    0 -0.72499541864E+02 -0.10230397674E+03  0.58944180701E+02  0.13861520864E+03  0.41800000000E+01 0. -1.
         -5    1    1    2    0  502  0.78577580553E+01  0.10203293714E+03  0.21144123737E+03  0.23494112855E+03  0.41800000000E+01 0.  1.
        -11    1    3    3    0    0  0.16146824575E+01  0.36385688567E+02  0.18950875938E+02  0.41056804927E+02  0.00000000000E+00 0.  1.
         11    1    3    3    0    0  0.63027101351E+02 -0.36114648971E+02 -0.42845704440E+00  0.72642046712E+02  0.00000000000E+00 0. -1.
</event>
<event>
 7    1  0.4687179E-006  0.1030899E+03  0.7561462E-02  0.1273929E+00
          1   -1    0    0  501    0  0.00000000000E+00  0.00000000000E+00  0.46249077184E+03  0.46249077184E+03  0.00000000000E+00 0. -1.
         -1   -1    0    0    0  501 -0.00000000000E+00 -0.00000000000E+00 -0.43278341476E+02  0.43278341476E+02  0.00000000000E+00 0.  1.
         23    2    1    2    0    0  0.11188766321E+02  0.74028281887E+01  0.35060099175E+03  0.36246963079E+03  0.91012018306E+02 0.  0.
          5    1    1    2  502    0  0.51797004700E+02  0.14151253763E+02  0.10581965102E+02  0.54887503718E+02  0.41800000000E+01 0.  1.
         -5    1    1    2    0  502 -0.62985771021E+02 -0.21554081952E+02  0.58029473514E+02  0.88411978805E+02  0.41800000000E+01 0.  1.
        -11    1    3    3    0    0  0.48029203048E+02  0.84359748881E+01  0.13068230989E+03  0.13948417881E+03  0.00000000000E+00 0.  1.
         11    1    3    3    0    0 -0.36840436726E+02 -0.10331466994E+01  0.21991868185E+03  0.22298545199E+03  0.00000000000E+00 0. -1.
</event>
<event>
 7    1  0.4687179E-006  0.1034441E+03  0.7561462E-02  0.1273216E+00
          1   -1    0    0  501    0  0.00000000000E+00  0.00000000000E+00  0.62210744907E+03  0.62210744907E+03  0.00000000000E+00 0. -1.
         -1   -1    0    0    0  501 -0.00000000000E+00 -0.00000000000E+00 -0.31044402261E+02  0.31044402261E+02  0.00000000000E+00 0.  1.
         23    2    1    2    0    0  0.45415710539E+02 -0.45773113894E+02  0.40099725885E+03  0.41665586936E+03  0.92981434432E+02 0.  0.
          5    1    1    2  502    0  0.23111729309E+01  0.46113725807E+02  0.18212327654E+03  0.18793131055E+03  0.41800000000E+01 0. -1.
         -5    1    1    2    0  502 -0.47726883470E+02 -0.34061191352E+00  0.79425114175E+01  0.48564671417E+02  0.41800000000E+01 0. -1.
        -11    1    3    3    0    0 -0.22355382811E+02  0.10339715205E+02  0.72004652259E+02  0.76100872519E+02  0.00000000000E+00 0.  1.
         11    1    3    3    0    0  0.67771093350E+02 -0.56112829098E+02  0.32899260659E+03  0.34055499685E+03  0.00000000000E+00 0. -1.
</event>
<event>
 7    1  0.4687179E-006  0.1241482E+03  0.7561462E-02  0.1236407E+00
          2   -1    0    0  501    0  0.00000000000E+00  0.00000000000E+00  0.36387780108E+03  0.36387780108E+03  0.00000000000E+00 0. -1.
         -2   -1    0    0    0  501 -0.00000000000E+00 -0.00000000000E+00 -0.58420729355E+02  0.58420729355E+02  0.00000000000E+00 0.  1.
         23    2    1    2    0    0 -0.34651750498E+01 -0.91392987159E+02  0.19082153729E+03  0.22954583433E+03  0.88959234610E+02 0.  0.
          5    1    1    2  502    0 -0.41663696880E+02  0.81636600141E+02  0.30492486122E+02  0.96683308954E+02  0.41800000000E+01 0. -1.
         -5    1    1    2    0  502  0.45128871930E+02  0.97563870180E+01  0.84143048314E+02  0.96069387158E+02  0.41800000000E+01 0. -1.
        -11    1    3    3    0    0 -0.19500362326E+02 -0.22687518322E+01  0.97704323755E+02  0.99657143478E+02  0.00000000000E+00 0. -1.
         11    1    3    3    0    0  0.16035187276E+02 -0.89124235327E+02  0.93117213538E+02  0.12988869085E+03  0.00000000000E+00 0.  1.
</event>
<event>
 7    1  0.4687179E-006  0.1541524E+03  0.7561462E-02  0.1195461E+00
         -2   -1    0    0    0  501 -0.00000000000E+00  0.00000000000E+00  0.36780238726E+03  0.36780238726E+03  0.00000000000E+00 0.  1.
          2   -1    0    0  501    0  0.00000000000E+00 -0.00000000000E+00 -0.98309093960E+02  0.98309093960E+02  0.00000000000E+00 0. -1.
         23    2    1    2    0    0  0.82246623908E+02 -0.98532903848E+02  0.20661746162E+02  0.15945601337E+03  0.92336732453E+02 0.  0.
          5    1    1    2  502    0  0.60153706909E+01 -0.25423780491E+02  0.45820556847E+02  0.52910765717E+02  0.41800000000E+01 0. -1.
         -5    1    1    2    0  502 -0.88261994599E+02  0.12395668434E+03  0.20301099029E+03  0.25374470214E+03  0.41800000000E+01 0. -1.
        -11    1    3    3    0    0  0.14403531992E+02 -0.29511684163E+02  0.48661740678E+02  0.58705759869E+02  0.00000000000E+00 0.  1.
         11    1    3    3    0    0  0.67843091916E+02 -0.69021219684E+02 -0.27999994515E+02  0.10075025350E+03  0.00000000000E+00 0. -1.
</event>
<event>
 7    1  0.4687179E-006  0.1187747E+03  0.7561462E-02  0.1245132E+00
          1   -1    0    0  501    0  0.00000000000E+00  0.00000000000E+00  0.31783394113E+02  0.31783394113E+02  0.00000000000E+00 0.  1.
         -1   -1    0    0    0  501 -0.00000000000E+00 -0.00000000000E+00 -0.78782858678E+03  0.78782858678E+03  0.00000000000E+00 0. -1.
         23    2    1    2    0    0 -0.39936636895E+02  0.85747365495E+02 -0.18282678485E+03  0.22532712679E+03  0.91646795652E+02 0.  0.
          5    1    1    2  502    0  0.10286505418E+02 -0.95786376555E+02 -0.22703855370E+03  0.24666742670E+03  0.41800000000E+01 0. -1.
         -5    1    1    2    0  502  0.29650131477E+02  0.10039011060E+02 -0.34617985411E+03  0.34761742740E+03  0.41800000000E+01 0. -1.
        -11    1    3    3    0    0 -0.53779875427E+02  0.73377896605E+02 -0.80961603318E+02  0.12178412016E+03  0.00000000000E+00 0.  1.
         11    1    3    3    0    0  0.13843238532E+02  0.12369468890E+02 -0.10186518153E+03  0.10354300663E+03  0.00000000000E+00 0. -1.
</event>
<event>
 7    1  0.4687179E-006  0.1231550E+03  0.7561462E-02  0.1237981E+00
         -2   -1    0    0    0  501 -0.00000000000E+00  0.00000000000E+00  0.22613929410E+02  0.22613929410E+02  0.00000000000E+00 0.  1.
          2   -1    0    0  501    0  0.00000000000E+00 -0.00000000000E+00 -0.10330308131E+04  0.10330308131E+04  0.00000000000E+00 0. -1.
         23    2    1    2    0    0 -0.83439723424E+02 -0.40057772825E+02 -0.65464866110E+03  0.66733231735E+03  0.90557935585E+02 0.  0.
          5    1    1    2  502    0  0.23537282227E+02 -0.25523797266E+02 -0.18586424557E+02  0.39602972859E+02  0.41800000000E+01 0.  1.
         -5    1    1    2    0  502  0.59902441197E+02  0.65581570091E+02 -0.33718179807E+03  0.34870945233E+03  0.41800000000E+01 0.  1.
        -11    1    3    3    0    0 -0.74818674209E+01  0.22692781101E+02 -0.60105527232E+02  0.64680870882E+02  0.00000000000E+00 0.  1.
         11    1    3    3    0    0 -0.75957856003E+02 -0.62750553926E+02 -0.59454313387E+03  0.60265144647E+03  0.00000000000E+00 0. -1.
</event>
<event>
 7    1  0.4687179E-006  0.1277339E+03  0.7561462E-02  0.1230857E+00
          2   -1    0    0  501    0  0.00000000000E+00  0.00000000000E+00  0.31281970736E+02  0.31281970736E+02  0.00000000000E+00 0. -1.
         -2   -1    0    0    0  501 -0.00000000000E+00 -0.00000000000E+00 -0.66054051573E+03  0.66054051573E+03  0.00000000000E+00 0.  1.
         23    2    1    2    0    0  0.42759206461E+02 -0.64117738481E+02 -0.14548956690E+03  0.18623488558E+03  0.87044726463E+02 0.  0.
          5    1    1    2  502    0 -0.45493033622E+02  0.99888615981E+02 -0.38748199485E+03  0.40274945120E+03  0.41800000000E+01 0. -1.
         -5    1    1    2    0  502  0.27338271613E+01 -0.35770877501E+02 -0.96286983246E+02  0.10283814969E+03  0.41800000000E+01 0. -1.
        -11    1    3    3    0    0 -0.22562670349E+02 -0.23559395038E+02 -0.75564098839E+02  0.82304630618E+02  0.00000000000E+00 0.  1.
         11    1    3    3    0    0  0.65321876809E+02 -0.40558343443E+02 -0.69925468059E+02  0.10393025496E+03  0.00000000000E+00 0. -1.
</event>
<event>
 7    1  0.4687179E-006  0.1210523E+03  0.7561462E-02  0.1241371E+00
          1   -1    0    0  501    0  0.00000000000E+00  0.00000000000E+00  0.59269270263E+02  0.59269270263E+02  0.00000000000E+00 0. -1.
         -1   -1    0    0    0  501 -0.00000000000E+00 -0.00000000000E+00 -0.25141990984E+03  0.25141990984E+03  0.00000000000E+00 0.  1.
         23    2    1    2    0    0  0.51427761032E+02  0.16535585645E+02 -0.85324683738E+02  0.13754299524E+03  0.93378443374E+02 0.  0.
          5    1    1    2  502    0 -0.49515056180E+02 -0.67867687651E+02 -0.74082355320E+02  0.11208671458E+03  0.41800000000E+01 0.  1.
         -5    1    1    2    0  502 -0.19127048521E+01  0.51332102006E+02 -0.32743600517E+02  0.61059470281E+02  0.41800000000E+01 0.  1.
        -11    1    3    3    0    0  0.53160047629E+02 -0.29221966192E+02 -0.59504022365E+02  0.84974364662E+02  0.00000000000E+00 0. -1.
         11    1    3    3    0    0 -0.17322865973E+01  0.45757551837E+02 -0.25820661373E+02  0.52568630577E+02  0.00000000000E+00 0.  1.
</event>
<event>
 7    1  0.4687179E-006  0.1341813E+03  0.7561462E-02  0.1221380E+00
         -1   -1    0    0    0  501 -0.00000000000E+00  0.00000000000E+00  0.43404880872E+02  0.43404880872E+02  0.00000000000E+00 0.  1.
          1   -1    0    0  501    0  0.00000000000E+00 -0.00000000000E+00 -0.46848312365E+03  0.46848312365E+03  0.00000000000E+00 0. -1.
         23    2    1    2    0    0 -0.38108759119E+02  0.77853386849E+02 -0.25281777181E+03  0.28203124875E+03  0.90063156520E+02 0.  0.
          5    1    1    2  502    0 -0.21031547983E+02 -0.81654112990E+02 -0.62467353154E+02  0.10502077313E+03  0.41800000000E+01 0. -1.
         -5    1    1    2    0  502  0.59140307102E+02  0.38007261411E+01 -0.10979311781E+03  0.12483598264E+03  0.41800000000E+01 0. -1.
        -11    1    3    3    0    0 -0.19686376888E+02 -0.18149349621E+02 -0.44854598860E+02  0.52238753484E+02  0.00000000000E+00 0. -1.
         11    1    3    3    0    0 -0.18422382232E+02  0.96002736470E+02 -0.20796317295E+03  0.22979249527E+03  0.00000000000E+00 0.  1.
</event>
<event>
 7    1  0.4687179E-006  0.1469733E+03  0.7561462E-02  0.1204242E+00
         -1   -1    0    0    0  501 -0.00000000000E+00  0.00000000000E+00  0.37310161321E+02  0.37310161321E+02  0.00000000000E+00 0.  1.
          1   -1    0    0  501    0  0.00000000000E+00 -0.00000000000E+00 -0.66928350015E+03  0.66928350015E+03  0.00000000000E+00 0. -1.
         23    2    1    2    0    0 -0.70606645493E+01  0.11028521496E+03 -0.35382054344E+03  0.38220296367E+03  0.93152814508E+02 0.  0.
          5    1    1    2  502    0  0.59735660106E+02 -0.72191648050E+02 -0.11299732392E+03  0.14685316050E+03  0.41800000000E+01 0.  1.
         -5    1    1    2    0  502 -0.52674995557E+02 -0.38093566906E+02 -0.16515547146E+03  0.17753753730E+03  0.41800000000E+01 0.  1.
        -11    1    3    3    0    0 -0.39418234819E+02  0.85841084255E+02 -0.17524928989E+03  0.19908491301E+03  0.00000000000E+00 0.  1.
         11    1    3    3    0    0  0.32357570269E+02  0.24444130700E+02 -0.17857125355E+03  0.18311805065E+03  0.00000000000E+00 0. -1.
</event>
<event>
 7    1  0.4687179E-006  0.1336429E+03  0.7561462E-02  0.1222148E+00
         -2   -1    0    0    0  501 -0.00000000000E+00  0.00000000000E+00  0.53102871273E+02  0.53102871273E+02  0.00000000000E+00 0.  1.
          2   -1    0    0  501    0  0.00000000000E+00 -0.00000000000E+00 -0.57105923138E+03  0.57105923138E+03  0.00000000000E+00 0. -1.
         23    2    1    2    0    0 -0.32588756864E+02 -0.11110546395E+03 -0.37298899677E+03  0.40040041206E+03  0.88279369444E+02 0.  0.
          5    1    1    2  502    0 -0.29676769448E+02  0.58266053962E+02 -0.10463412728E+02  0.66352084331E+02  0.41800000000E+01 0.  1.
         -5    1    1    2    0  502  0.62265526312E+02  0.52839409991E+02 -0.13450395061E+03  0.15740960627E+03  0.41800000000E+01 0.  1.
        -11    1    3    3    0    0 -0.20648636867E+02 -0.22312722147E+02 -0.20410561474E+02  0.36617137979E+02  0.00000000000E+00 0.  1.
         11    1    3    3    0    0 -0.11940119996E+02 -0.88792741806E+02 -0.35257843530E+03  0.36378327408E+03  0.00000000000E+00 0. -1.
</event>
<event>
 7    1  0.4687179E-006  0.1186210E+03  0.7561462E-02  0.1245389E+00
          1   -1    0    0  501    0  0.00000000000E+00  0.00000000000E+00  0.97233101495E+02  0.97233101495E+02  0.00000000000E+00 0. -1.
         -1   -1    0    0    0  501 -0.00000000000E+00 -0.00000000000E+00 -0.15385267437E+03  0.15385267437E+03  0.00000000000E+00 0.  1.
         23    2    1    2    0    0 -0.29803743874E+01 -0.50331228955E+02 -0.79148638451E+01  0.10768474583E+03  0.94822171328E+02 0.  0.
          5    1    1    2  502    0  0.59379906946E+02  0.11173797210E+01 -0.16300675439E+02  0.61728488610E+02  0.41800000000E+01 0.  1.
         -5    1    1    2    0  502 -0.56399532558E+02  0.49213849234E+02 -0.32404033586E+02  0.81672541419E+02  0.41800000000E+01 0.  1.
        -11    1    3    3    0    0 -0.42509807016E+02 -0.46528384690E+02  0.10531878991E+02  0.63897533203E+02  0.00000000000E+00 0.  1.
         11    1    3    3    0    0  0.39529432629E+02 -0.38028442647E+01 -0.18446742836E+02  0.43787212628E+02  0.00000000000E+00 0. -1.
</event>
<event>
 7    1  0.4687179E-006  0.9749513E+02  0.7561462E-02  0.1285653E+00
         -4   -1    0    0    0  501 -0.00000000000E+00  0.00000000000E+00  0.11152867649E+03  0.11152867649E+03  0.00000000000E+00 0.  1.
          4   -1    0    0  501    0  0.00000000000E+00 -0.00000000000E+00 -0.14426506808E+03  0.14426506808E+03  0.00000000000E+00 0. -1.
         23    2    1    2    0    0 -0.60571797069E+02  0.26873024321E+02 -0.24030041717E+02  0.11396727477E+03  0.89554423555E+02 0.  0.
          5    1    1    2  502    0  0.76101363208E+02  0.35604055327E+01 -0.47567890376E+02  0.89912571782E+02  0.41800000000E+01 0.  1.
         -5    1    1    2    0  502 -0.15529566139E+02 -0.30433429854E+02  0.38861540497E+02  0.51913898013E+02  0.41800000000E+01 0.  1.
        -11    1    3    3    0    0  0.78126576023E+01  0.11947783144E+02 -0.39744672976E+02  0.42230630718E+02  0.00000000000E+00 0. -1.
         11    1    3    3    0    0 -0.68384454671E+02  0.14925241177E+02  0.15714631259E+02  0.71736644057E+02  0.00000000000E+00 0.  1.
</event>
<event>
 7    1  0.4687179E-006  0.1134637E+03  0.7561462E-02  0.1254287E+00
         -2   -1    0    0    0  501 -0.00000000000E+00  0.00000000000E+00  0.13535020948E+04  0.13535020948E+04  0.00000000000E+00 0.  1.
          2   -1    0    0  501    0  0.00000000000E+00 -0.00000000000E+00 -0.10625206577E+02  0.10625206577E+02  0.00000000000E+00 0. -1.
         23    2    1    2    0    0  0.15687829047E+02  0.30687375109E+02  0.36650160695E+03  0.37916834033E+03  0.90870124027E+02 0.  0.
          5    1    1    2  502    0  0.52824910123E+01 -0.77755269981E+02  0.59257585060E+03  0.59769339785E+03  0.41800000000E+01 0.  1.
         -5    1    1    2    0  502 -0.20970320060E+02  0.47067894872E+02  0.38379943066E+03  0.38726556318E+03  0.41800000000E+01 0.  1.
        -11    1    3    3    0    0  0.14235335186E+02 -0.31715555538E+02  0.12972393898E+03  0.13430123446E+03  0.00000000000E+00 0. -1.
         11    1    3    3    0    0  0.14524938615E+01  0.62402930647E+02  0.23677766797E+03  0.24486710588E+03  0.00000000000E+00 0.  1.
</event>
<event>
 7    1  0.4687179E-006  0.1085761E+03  0.7561462E-02  0.1263230E+00
         -2   -1    0    0    0  501 -0.00000000000E+00  0.00000000000E+00  0.21723433832E+03  0.21723433832E+03  0.00000000000E+00 0.  1.
          2   -1    0    0  501    0  0.00000000000E+00 -0.00000000000E+00 -0.78253184073E+02  0.78253184073E+02  0.00000000000E+00 0. -1.
         23    2    1    2    0    0  0.18456012073E+02  0.62811480770E+02  0.41013644076E+02  0.12076388965E+03  0.92821826882E+02 0.  0.
          5    1    1    2  502    0 -0.88011899893E+01 -0.98239909859E+02  0.41174090363E+02  0.10696410123E+03  0.41800000000E+01 0. -1.
         -5    1    1    2    0  502 -0.96548220840E+01  0.35428429089E+02  0.56793419810E+02  0.67759531514E+02  0.41800000000E+01 0.  1.
        -11    1    3    3    0    0 -0.16441497310E+02  0.25885628346E+02 -0.23508044702E+02  0.38639574977E+02  0.00000000000E+00 0. -1.
         11    1    3    3    0    0  0.34897509383E+02  0.36925852424E+02  0.64521688778E+02  0.82124314677E+02  0.00000000000E+00 0.  1.
</event>
<event>
 7    1  0.4687179E-006  0.1079006E+03  0.7561462E-02  0.1264508E+00
          1   -1    0    0  501    0  0.00000000000E+00  0.00000000000E+00  0.45717286185E+03  0.45717286185E+03  0.00000000000E+00 0. -1.
         -1   -1    0    0    0  501 -0.00000000000E+00 -0.00000000000E+00 -0.36472151956E+02  0.36472151956E+02  0.00000000000E+00 0.  1.
         23    2    1    2    0    0 -0.79067232269E+01  0.70442455050E+02  0.18687733200E+03  0.21915356106E+03  0.89891547801E+02 0.  0.
          5    1    1    2  502    0 -0.94647009944E+00 -0.84655112004E+02  0.70475882466E+02  0.11023477765E+03  0.41800000000E+01 0.  1.
         -5    1    1    2    0  502  0.88531933263E+01  0.14212656954E+02  0.16334749542E+03  0.16425667509E+03  0.41800000000E+01 0.  1.
        -11    1    3    3    0    0  0.31741672323E+02  0.66807446138E+02  0.10960734744E+03  0.13222911644E+03  0.00000000000E+00 0. -1.
         11    1    3    3    0    0 -0.39648395550E+02  0.36350089116E+01  0.77269984563E+02  0.86924444627E+02  0.00000000000E+00 0.  1.
</event>
<event>
 7    1  0.4687179E-006  0.1186163E+03  0.7561462E-02  0.1245397E+00
         -1   -1    0    0    0  501 -0.00000000000E+00  0.00000000000E+00  0.24713287811E+03  0.24713287811E+03  0.00000000000E+00 0.  1.
          1   -1    0    0  501    0  0.00000000000E+00 -0.00000000000E+00 -0.80317678135E+02  0.80317678135E+02  0.00000000000E+00 0. -1.
         23    2    1    2    0    0  0.16959745898E+02 -0.34404934536E+02  0.17911909202E+02  0.10121385906E+03  0.91935174297E+02 0.  0.
          5    1    1    2  502    0 -0.65759819153E+02 -0.39228240954E+02  0.41787975889E+02  0.87332216463E+02  0.41800000000E+01 0. -1.
         -5    1    1    2    0  502  0.48800073255E+02  0.73633175490E+02  0.10711531489E+03  0.13890448072E+03  0.41800000000E+01 0.  1.
        -11    1    3    3    0    0  0.38398112309E+02 -0.32995688337E+02  0.44239227946E+02  0.67232728392E+02  0.00000000000E+00 0.  1.
         11    1    3    3    0    0 -0.21438366410E+02 -0.14092461992E+01 -0.26327318744E+02  0.33981130668E+02  0.00000000000E+00 0. -1.
</event>
<event>
 7    1  0.4687179E-006  0.9465277E+02  0.7561462E-02  0.1291960E+00
          1   -1    0    0  501    0  0.00000000000E+00  0.00000000000E+00  0.18108660158E+03  0.18108660158E+03  0.00000000000E+00 0. -1.
         -1   -1    0    0    0  501 -0.00000000000E+00 -0.00000000000E+00 -0.14417205069E+03  0.14417205069E+03  0.00000000000E+00 0.  1.
         23    2    1    2    0    0  0.69410231382E+02 -0.23297152468E+02  0.11905925000E+03  0.16643014028E+03  0.90351253731E+02 0.  0.
          5    1    1    2  502    0 -0.62798607644E+02  0.54749009028E+01  0.10604546529E+02  0.64059101375E+02  0.41800000000E+01 0. -1.
         -5    1    1    2    0  502 -0.66116237377E+01  0.17822251565E+02 -0.92749245646E+02  0.94769410609E+02  0.41800000000E+01 0.  1.
        -11    1    3    3    0    0  0.60948811868E+02 -0.49887775241E+02  0.11321982482E+03  0.13792126928E+03  0.00000000000E+00 0. -1.
         11    1    3    3    0    0  0.84614195139E+01  0.26590622773E+02  0.58394251796E+01  0.28508871007E+02  0.00000000000E+00 0.  1.
</event>
<event>
 7    1  0.4687179E-006  0.1058403E+03  0.7561462E-02  0.1268473E+00
         -2   -1    0    0    0  501 -0.00000000000E+00  0.00000000000E+00  0.43092916389E+02  0.43092916389E+02  0.00000000000E+00 0.  1.
          2   -1    0    0  501    0  0.00000000000E+00 -0.00000000000E+00 -0.39282780151E+03  0.39282780151E+03  0.00000000000E+00 0. -1.
         23    2    1    2    0    0  0.34780667484E+02  0.46126455341E+01 -0.26098355226E+03  0.27858316892E+03  0.90913124075E+02 0.  0.
          5    1    1    2  502    0  0.21040948008E+02  0.38625048945E+02 -0.72278135174E+02  0.84712555877E+02  0.41800000000E+01 0. -1.
         -5    1    1    2    0  502 -0.55821615492E+02 -0.43237694479E+02 -0.16473197687E+02  0.72624993095E+02  0.41800000000E+01 0. -1.
        -11    1    3    3    0    0 -0.22136533021E+02  0.27601365666E+02 -0.80059124619E+02  0.87528994714E+02  0.00000000000E+00 0.  1.
         11    1    3    3    0    0  0.56917200505E+02 -0.22988720132E+02 -0.18092442764E+03  0.19105417421E+03  0.00000000000E+00 0. -1.
</event>
<event>
 7    1  0.4687179E-006  0.7802549E+02  0.7561462E-02  0.1334750E+00
          2   -1    0    0  501    0  0.00000000000E+00  0.00000000000E+00  0.17216606238E+03  0.17216606238E+03  0.00000000000E+00 0. -1.
         -2   -1    0    0    0  501 -0.00000000000E+00 -0.00000000000E+00 -0.81004330723E+02  0.81004330723E+02  0.00000000000E+00 0.  1.
         23    2    1    2    0    0  0.40863851033E+02 -0.81249205140E+01  0.31755764987E+02  0.10856127768E+03  0.95085507553E+02 0.  0.
          5    1    1    2  502    0 -0.65869285333E+02 -0.25602344567E+02  0.71600107399E+02  0.10068907874E+03  0.41800000000E+01 0. -1.
         -5    1    1    2    0  502  0.25005434300E+02  0.33727265081E+02 -0.12194140730E+02  0.43920036686E+02  0.41800000000E+01 0. -1.
        -11    1    3    3    0    0  0.14692725594E+02 -0.83350111160E+01 -0.33903173352E+02  0.37878407557E+02  0.00000000000E+00 0.  1.
         11    1    3    3    0    0  0.26171125439E+02  0.21009060202E+00  0.65658938339E+02  0.70682870121E+02  0.00000000000E+00 0. -1.
</event>
<event>
 7    1  0.4687179E-006  0.1063594E+03  0.7561462E-02  0.1267464E+00
         -1   -1    0    0    0  501 -0.00000000000E+00  0.00000000000E+00  0.33853381646E+03  0.33853381646E+03  0.00000000000E+00 0.  1.
          1   -1    0    0  501    0  0.00000000000E+00 -0.00000000000E+00 -0.61139004576E+02  0.61139004576E+02  0.00000000000E+00 0. -1.
         23    2    1    2    0    0  0.10310194849E+02 -0.58521532747E+02  0.11651331339E+03  0.15766496932E+03  0.88044423105E+02 0.  0.
          5    1    1    2  502    0 -0.11727775766E+02 -0.22913735105E+02 -0.26787140326E+02  0.37384532466E+02  0.41800000000E+01 0. -1.
         -5    1    1    2    0  502  0.14175809170E+01  0.81435267851E+02  0.18766863882E+03  0.20462331925E+03  0.41800000000E+01 0.  1.
        -11    1    3    3    0    0  0.46858755539E+02 -0.17188467937E+02  0.66879095743E+02  0.83450583270E+02  0.00000000000E+00 0.  1.
         11    1    3    3    0    0 -0.36548560690E+02 -0.41333064810E+02  0.49634217652E+02  0.74214386051E+02  0.00000000000E+00 0. -1.
</event>
<event>
 7    1  0.4687179E-006  0.8777144E+02  0.7561462E-02  0.1308340E+00
         -2   -1    0    0    0  501 -0.00000000000E+00  0.00000000000E+00  0.10459018726E+03  0.10459018726E+03  0.00000000000E+00 0.  1.
          2   -1    0    0  501    0  0.00000000000E+00 -0.00000000000E+00 -0.15999189860E+03  0.15999189860E+03  0.00000000000E+00 0. -1.
         23    2    1    2    0    0 -0.29361929620E+02 -0.33864289321E+02 -0.78185496333E+02  0.12976415803E+03  0.93364082339E+02 0.  0.
          5    1    1    2  502    0  0.52785418931E+02  0.31325820787E+02 -0.36048091256E+02  0.71305994018E+02  0.41800000000E+01 0.  1.
         -5    1    1    2    0  502 -0.23423489311E+02  0.25384685334E+01  0.58831876245E+02  0.63511933812E+02  0.41800000000E+01 0.  1.
        -11    1    3    3    0    0 -0.49583608636E+02  0.12177075061E+01 -0.10204873688E+02  0.50637500965E+02  0.00000000000E+00 0.  1.
         11    1    3    3    0    0  0.20221679016E+02 -0.35081996827E+02 -0.67980622645E+02  0.79126657068E+02  0.00000000000E+00 0. -1.
</event>
<event>
 7    1  0.4687179E-006  0.1153732E+03  0.7561462E-02  0.1250931E+00
         -1   -1    0    0    0  501 -0.00000000000E+00  0.00000000000E+00  0.89806724666E+02  0.89806724666E+02  0.00000000000E+00 0.  1.
          1   -1    0    0  501    0  0.00000000000E+00 -0.00000000000E+00 -0.17221709270E+03  0.17221709270E+03  0.00000000000E+00 0. -1.
         23    2    1    2    0    0  0.18205292940E+02 -0.41680129833E+02 -0.79941454725E+02  0.12890219050E+03  0.90313191831E+02 0.  0.
          5    1    1    2  502    0 -0.69687061807E+02  0.41532508553E+02  0.21779272345E+01  0.81261624504E+02  0.41800000000E+01 0. -1.
         -5    1    1    2    0  502  0.51481768867E+02  0.14762128030E+00 -0.46468405435E+01  0.51860002360E+02  0.41800000000E+01 0. -1.
        -11    1    3    3    0    0 -0.15597813626E+02 -0.58189235319E+02 -0.64439825087E+02  0.88214340978E+02  0.00000000000E+00 0. -1.
         11    1    3    3    0    0  0.33803106566E+02  0.16509105485E+02 -0.15501629638E+02  0.40687849524E+02  0.00000000000E+00 0.  1.
</event>
<event>
 7    1  0.4687179E-006  0.8502204E+02  0.7561462E-02  0.1315375E+00
          2   -1    0    0  501    0  0.00000000000E+00  0.00000000000E+00  0.19012949229E+03  0.19012949229E+03  0.00000000000E+00 0. -1.
         -2   -1    0    0    0  501 -0.00000000000E+00 -0.00000000000E+00 -0.70543800870E+02  0.70543800870E+02  0.00000000000E+00 0.  1.
         23    2    1    2    0    0  0.78938333549E+01  0.20295331872E+02  0.98425168714E+02  0.13194717657E+03  0.85137127426E+02 0.  0.
          5    1    1    2  502    0 -0.10006307542E+02 -0.56362909710E+02  0.54674133797E+02  0.79269395658E+02  0.41800000000E+01 0. -1.
         -5    1    1    2    0  502  0.21124741871E+01  0.36067577838E+02 -0.33513611086E+02  0.49456720942E+02  0.41800000000E+01 0. -1.
        -11    1    3    3    0    0 -0.10106929753E+02 -0.25306957315E+02  0.68879238883E+01  0.28107572166E+02  0.00000000000E+00 0.  1.
         11    1    3    3    0    0  0.18000763107E+02  0.45602289187E+02  0.91537244826E+02  0.10383960440E+03  0.00000000000E+00 0. -1.
</event>
<event>
 7    1  0.4687179E-006  0.8132883E+02  0.7561462E-02  0.1325322E+00
          1   -1    0    0  501    0  0.00000000000E+00  0.00000000000E+00  0.29690053304E+03  0.29690053304E+03  0.00000000000E+00 0. -1.
         -1   -1    0    0    0  501 -0.00000000000E+00 -0.00000000000E+00 -0.45713478668E+02  0.45713478668E+02  0.00000000000E+00 0.  1.
         23    2    1    2    0    0  0.24077005827E+02 -0.32943955940E+02  0.13172388780E+03  0.16489661109E+03  0.90414065762E+02 0.  0.
          5    1    1    2  502    0 -0.20435530840E+02 -0.82509572062E+01  0.13232027072E+03  0.13420810579E+03  0.41800000000E+01 0. -1.
         -5    1    1    2    0  502 -0.36414749869E+01  0.41194913146E+02 -0.12857104156E+02  0.43509294829E+02  0.41800000000E+01 0. -1.
        -11    1    3    3    0    0 -0.18156761150E+02 -0.49937382005E+02  0.62360676073E+02  0.81928407877E+02  0.00000000000E+00 0.  1.
         11    1    3    3    0    0  0.42233766977E+02  0.16993426065E+02  0.69363211728E+02  0.82968203209E+02  0.00000000000E+00 0. -1.
</event>
<event>
 7    1  0.4687179E-006  0.8537744E+02  0.7561462E-02  0.1314448E+00
         -1   -1    0    0    0  501 -0.00000000000E+00  0.00000000000E+00  0.18621949772E+03  0.18621949772E+03  0.00000000000E+00 0.  1.
          1   -1    0    0  501    0  0.00000000000E+00 -0.00000000000E+00 -0.98027031354E+02  0.98027031354E+02  0.00000000000E+00 0. -1.
         23    2    1    2    0    0  0.11139408314E+01 -0.60075620756E+02 -0.17644876355E+02  0.10972049110E+03  0.90093970006E+02 0.  0.
          5    1    1    2  502    0  0.35358081390E+01  0.58003127303E+02 -0.94744335877E+01  0.59026282349E+02  0.41800000000E+01 0.  1.
         -5    1    1    2    0  502 -0.46497489704E+01  0.20724934531E+01  0.11531177631E+03  0.11549975563E+03  0.41800000000E+01 0.  1.
        -11    1    3    3    0    0  0.43218955334E+02 -0.19434665558E+02  0.34550060398E+01  0.47513381191E+02  0.00000000000E+00 0.  1.
         11    1    3    3    0    0 -0.42105014502E+02 -0.40640955198E+02 -0.21099882395E+02  0.62207109905E+02  0.00000000000E+00 0. -1.
</event>
<event>
 7    1  0.4687179E-006  0.1170585E+03  0.7561462E-02  0.1248030E+00
          3   -1    0    0  501    0  0.00000000000E+00  0.00000000000E+00  0.46511137870E+02  0.46511137870E+02  0.00000000000E+00 0. -1.
         -3   -1    0    0    0  501 -0.00000000000E+00 -0.00000000000E+00 -0.30585378825E+03  0.30585378825E+03  0.00000000000E+00 0.  1.
         23    2    1    2    0    0 -0.35351577424E+02 -0.70762986493E+00 -0.11039051886E+03  0.15466589060E+03  0.10239744281E+03 0.  0.
          5    1    1    2  502    0 -0.47350362914E+01 -0.57159492632E+02 -0.50093253827E+02  0.76265553467E+02  0.41800000000E+01 0.  1.
         -5    1    1    2    0  502  0.40086613715E+02  0.57867122497E+02 -0.98858877688E+02  0.12143348205E+03  0.41800000000E+01 0.  1.
        -11    1    3    3    0    0 -0.70503973103E+02 -0.49764572219E+01 -0.87587016331E+02  0.11254803765E+03  0.00000000000E+00 0. -1.
         11    1    3    3    0    0  0.35152395680E+02  0.42688273570E+01 -0.22803502531E+02  0.42117852945E+02  0.00000000000E+00 0.  1.
</event>
<event>
 7    1  0.4687179E-006  0.1145248E+03  0.7561462E-02  0.1252413E+00
          4   -1    0    0  501    0  0.00000000000E+00  0.00000000000E+00  0.51355743953E+02  0.51355743953E+02  0.00000000000E+00 0. -1.
         -4   -1    0    0    0  501 -0.00000000000E+00 -0.00000000000E+00 -0.35888439203E+03  0.35888439203E+03  0.00000000000E+00 0.  1.
         23    2    1    2    0    0 -0.65303836592E+02  0.44805388644E+02 -0.97028805413E+02  0.15435790131E+03  0.90220057045E+02 0.  0.
          5    1    1    2  502    0 -0.38680399517E+01 -0.43198033308E+02 -0.11367290823E+02  0.45030206700E+02  0.41800000000E+01 0. -1.
         -5    1    1    2    0  502  0.69171876543E+02 -0.16073553351E+01 -0.19913255185E+03  0.21085202797E+03  0.41800000000E+01 0.  1.
        -11    1    3    3    0    0 -0.79902891993E+02  0.12718018817E+02 -0.84386250528E+02  0.11690705466E+03  0.00000000000E+00 0.  1.
         11    1    3    3    0    0  0.14599055402E+02  0.32087369826E+02 -0.12642554885E+02  0.37450846653E+02  0.00000000000E+00 0. -1.
</event>
<event>
 7    1  0.4687179E-006  0.2346327E+03  0.7561462E-02  0.1123421E+00
          1   -1    0    0  501    0  0.00000000000E+00  0.00000000000E+00  0.10702090567E+04  0.10702090567E+04  0.00000000000E+00 0. -1.
         -1   -1    0    0    0  501 -0.00000000000E+00 -0.00000000000E+00 -0.57082650445E+02  0.57082650445E+02  0.00000000000E+00 0.  1.
         23    2    1    2    0    0  0.19559556319E+03 -0.74247462294E+02  0.32198071415E+03  0.39442534628E+03  0.90163537581E+02 0.  0.
          5    1    1    2  502    0 -0.20979434295E+03  0.81325755164E+02  0.61267274061E+03  0.65269664031E+03  0.41800000000E+01 0. -1.
         -5    1    1    2    0  502  0.14198779755E+02 -0.70782928693E+01  0.78472951502E+02  0.80169720555E+02  0.41800000000E+01 0. -1.
        -11    1    3    3    0    0  0.12073910064E+03 -0.90895457810E+02  0.21303181552E+03  0.26119431291E+03  0.00000000000E+00 0. -1.
         11    1    3    3    0    0  0.74856462555E+02  0.16647995516E+02  0.10894889863E+03  0.13323103337E+03  0.00000000000E+00 0.  1.
</event>
<event>
 7    1  0.4687179E-006  0.9372578E+02  0.7561462E-02  0.1294072E+00
         -2   -1    0    0    0  501 -0.00000000000E+00  0.00000000000E+00  0.90639078688E+02  0.90639078688E+02  0.00000000000E+00 0.  1.
          2   -1    0    0  501    0  0.00000000000E+00 -0.00000000000E+00 -0.16188036266E+03  0.16188036266E+03  0.00000000000E+00 0. -1.
         23    2    1    2    0    0  0.40030674509E+02  0.18291486304E+02 -0.64176898550E+02  0.11972897662E+03  0.90990769649E+02 0.  0.
          5    1    1    2  502    0  0.79855681332E+00 -0.66200336621E+02  0.10832624601E+02  0.67215626289E+02  0.41800000000E+01 0. -1.
         -5    1    1    2    0  502 -0.40829231322E+02  0.47908850317E+02 -0.17897010023E+02  0.65574838443E+02  0.41800000000E+01 0. -1.
        -11    1    3    3    0    0  0.30059463200E+02 -0.69822027512E+01  0.16221800982E+02  0.34863581432E+02  0.00000000000E+00 0.  1.
         11    1    3    3    0    0  0.99712113088E+01  0.25273689055E+02 -0.80398699532E+02  0.84865395185E+02  0.00000000000E+00 0. -1.
</event>
<event>
 7    1  0.4687179E-006  0.9134486E+02  0.7561462E-02  0.1299627E+00
         -1   -1    0    0    0  501 -0.00000000000E+00  0.00000000000E+00  0.12870165847E+04  0.12870165847E+04  0.00000000000E+00 0.  1.
          1   -1    0    0  501    0  0.00000000000E+00 -0.00000000000E+00 -0.12518728284E+02  0.12518728284E+02  0.00000000000E+00 0. -1.
         23    2    1    2    0    0  0.34918317604E+01 -0.33194715506E+02  0.27288611604E+03  0.28959082674E+03  0.91005123910E+02 0.  0.
          5    1    1    2  502    0 -0.39921283425E+02 -0.19326519694E+01  0.83013667746E+03  0.83110878931E+03  0.41800000000E+01 0. -1.
         -5    1    1    2    0  502  0.36429451664E+02  0.35127367476E+02  0.17147506295E+03  0.17883569696E+03  0.41800000000E+01 0. -1.
        -11    1    3    3    0    0  0.69535783340E+01 -0.62162788827E+02  0.22486025878E+03  0.23339815883E+03  0.00000000000E+00 0. -1.
         11    1    3    3    0    0 -0.34617465736E+01  0.28968073321E+02  0.48025857254E+02  0.56192667905E+02  0.00000000000E+00 0.  1.
</event>
<event>
 7    1  0.4687179E-006  0.1545559E+03  0.7561462E-02  0.1194984E+00
          1   -1    0    0  501    0  0.00000000000E+00  0.00000000000E+00  0.77353639588E+03  0.77353639588E+03  0.00000000000E+00 0. -1.
         -1   -1    0    0    0  501 -0.00000000000E+00 -0.00000000000E+00 -0.33208976744E+02  0.33208976744E+02  0.00000000000E+00 0.  1.
         23    2    1    2    0    0  0.13918763416E+02 -0.11448983725E+03  0.39096722838E+03  0.41815898425E+03  0.93273295372E+02 0.  0.
          5    1    1    2  502    0 -0.58862994704E+02  0.30558858453E+02  0.87155356815E+02  0.10960029469E+03  0.41800000000E+01 0.  1.
         -5    1    1    2    0  502  0.44944231288E+02  0.83930978796E+02  0.26220483393E+03  0.27898609368E+03  0.41800000000E+01 0.  1.
        -11    1    3    3    0    0 -0.31342824207E+02 -0.90631217197E+01  0.10787130565E+03  0.11269752165E+03  0.00000000000E+00 0. -1.
         11    1    3    3    0    0  0.45261587623E+02 -0.10542671553E+03  0.28309592274E+03  0.30546146260E+03  0.00000000000E+00 0.  1.
</event>
<event>
 7    1  0.4687179E-006  0.9922687E+02  0.7561462E-02  0.1281930E+00
         -2   -1    0    0    0  501 -0.00000000000E+00  0.00000000000E+00  0.41918491133E+02  0.41918491133E+02  0.00000000000E+00 0.  1.
          2   -1    0    0  501    0  0.00000000000E+00 -0.00000000000E+00 -0.36356048178E+03  0.36356048178E+03  0.00000000000E+00 0. -1.
         23    2    1    2    0    0  0.56930027313E+02 -0.10653146898E+02 -0.15788802318E+03  0.19143311610E+03  0.91452132428E+02 0.  0.
          5    1    1    2  502    0 -0.72167956812E+01 -0.54352162198E+02 -0.53927213245E+02  0.77018545843E+02  0.41800000000E+01 0.  1.
         -5    1    1    2    0  502 -0.49713231631E+02  0.65005309096E+02 -0.10982675422E+03  0.13702731097E+03  0.41800000000E+01 0.  1.
        -11    1    3    3    0    0  0.18464375068E+02 -0.13618284254E+02  0.54658583525E+01  0.23585300935E+02  0.00000000000E+00 0.  1.
         11    1    3    3    0    0  0.38465652245E+02  0.29651373554E+01 -0.16335388154E+03  0.16784781516E+03  0.00000000000E+00 0. -1.
</event>
<event>
 7    1  0.4687179E-006  0.1070947E+03  0.7561462E-02  0.1266047E+00
         -2   -1    0    0    0  501 -0.00000000000E+00  0.00000000000E+00  0.12943210410E+02  0.12943210410E+02  0.00000000000E+00 0.  1.
          2   -1    0    0  501    0  0.00000000000E+00 -0.00000000000E+00 -0.96159315102E+03  0.96159315102E+03  0.00000000000E+00 0. -1.
         23    2    1    2    0    0 -0.22433449261E+02  0.10907480473E+02 -0.34934637431E+03  0.36180920674E+03  0.90778742361E+02 0.  0.
          5    1    1    2  502    0  0.36655099385E+01 -0.66348715509E+02 -0.37557265048E+03  0.38142873017E+03  0.41800000000E+01 0.  1.
         -5    1    1    2    0  502  0.18767939322E+02  0.55441235036E+02 -0.22373091582E+03  0.23129842451E+03  0.41800000000E+01 0.  1.
        -11    1    3    3    0    0 -0.48038933868E+02  0.30309485394E+02 -0.27522369902E+03  0.28102399999E+03  0.00000000000E+00 0.  1.
         11    1    3    3    0    0  0.25605484607E+02 -0.19402004921E+02 -0.74122675293E+02  0.80785206749E+02  0.00000000000E+00 0. -1.
</event>
<event>
 7    1  0.4687179E-006  0.1755697E+03  0.7561462E-02  0.1172161E+00
          2   -1    0    0  501    0  0.00000000000E+00  0.00000000000E+00  0.39191295857E+03  0.39191295857E+03  0.00000000000E+00 0. -1.
         -2   -1    0    0    0  501 -0.00000000000E+00 -0.00000000000E+00 -0.10667289373E+03  0.10667289373E+03  0.00000000000E+00 0.  1.
         23    2    1    2    0    0 -0.12912912207E+03 -0.79006842221E+02  0.21260838066E+03  0.28919312254E+03  0.12455491686E+03 0.  0.
          5    1    1    2  502    0  0.62688019104E+02  0.76629430058E+02  0.96802587783E+02  0.13852823067E+03  0.41800000000E+01 0. -1.
         -5    1    1    2    0  502  0.66441102964E+02  0.23774121630E+01 -0.24170903590E+02  0.70864499095E+02  0.41800000000E+01 0. -1.
        -11    1    3    3    0    0 -0.14462688359E+03 -0.50875572507E+02  0.13159623969E+03  0.20204660263E+03  0.00000000000E+00 0.  1.
         11    1    3    3    0    0  0.15497761521E+02 -0.28131269714E+02  0.81012140963E+02  0.87146519904E+02  0.00000000000E+00 0. -1.
</event>
<event>
 7    1  0.6441883E-006  0.2268912E+03  0.7561462E-02  0.1128847E+00
         -1   -1    0    0    0  501 -0.00000000000E+00  0.00000000000E+00  0.14644567144E+03  0.14644567144E+03  0.00000000000E+00 0.  1.
          1   -1    0    0  501    0  0.00000000000E+00 -0.00000000000E+00 -0.45654032236E+03  0.45654032236E+03  0.00000000000E+00 0. -1.
         23    2    1    2    0    0 -0.19595740545E+03  0.91873372688E+02 -0.25281192264E+03  0.34653106571E+03  0.96591355266E+02 0.  0.
          5    1    1    2  502    0  0.18042210748E+03 -0.87619856315E+02 -0.89899832204E+02  0.21983818667E+03  0.41800000000E+01 0.  1.
         -5    1    1    2    0  502  0.15535297973E+02 -0.42535163732E+01  0.32617103916E+02  0.36616741424E+02  0.41800000000E+01 0.  1.
        -11    1    3    3    0    0 -0.12529645774E+03  0.61690731237E+01 -0.12309677164E+03  0.17575572529E+03  0.00000000000E+00 0.  1.
         11    1    3    3    0    0 -0.70660947715E+02  0.85704299564E+02 -0.12971515100E+03  0.17077534041E+03  0.00000000000E+00 0. -1.
</event>
<event>
 7    1  0.4687179E-006  0.1208229E+03  0.7561462E-02  0.1241746E+00
          1   -1    0    0  501    0  0.00000000000E+00  0.00000000000E+00  0.52394706132E+02  0.52394706132E+02  0.00000000000E+00 0. -1.
         -1   -1    0    0    0  501 -0.00000000000E+00 -0.00000000000E+00 -0.45223427132E+03  0.45223427132E+03  0.00000000000E+00 0.  1.
         23    2    1    2    0    0  0.44261413227E+02 -0.35677748557E+02 -0.32962279288E+02  0.11286456363E+03  0.91760140721E+02 0.  0.
          5    1    1    2  502    0 -0.42441716378E+02  0.81148453179E+02 -0.24895673649E+03  0.26529851071E+03  0.41800000000E+01 0. -1.
         -5    1    1    2    0  502 -0.18196968489E+01 -0.45470704622E+02 -0.11792054941E+03  0.12646590311E+03  0.41800000000E+01 0. -1.
        -11    1    3    3    0    0 -0.20361585837E+02  0.12300272462E+02  0.42954857059E+01  0.24173168553E+02  0.00000000000E+00 0.  1.
         11    1    3    3    0    0  0.64622999063E+02 -0.47978021019E+02 -0.37257764994E+02  0.88691395080E+02  0.00000000000E+00 0. -1.
</event>
<event>
 7    1  0.4687179E-006  0.1081419E+03  0.7561462E-02  0.1264050E+00
         -1   -1    0    0    0  501 -0.00000000000E+00  0.00000000000E+00  0.26215747644E+02  0.26215747644E+02  0.00000000000E+00 0.  1.
          1   -1    0    0  501    0  0.00000000000E+00 -0.00000000000E+00 -0.80160618068E+03  0.80160618068E+03  0.00000000000E+00 0. -1.
         23    2    1    2    0    0 -0.39088628105E+02  0.84449747962E+02 -0.41026962642E+03  0.43080532153E+03  0.92802898230E+02 0.  0.
          5    1    1    2  502    0  0.79633721541E+01  0.10710222491E+02  0.39911917765E+01  0.14543939414E+02  0.41800000000E+01 0. -1.
         -5    1    1    2    0  502  0.31125255951E+02 -0.95159970453E+02 -0.36911199840E+03  0.38247266738E+03  0.41800000000E+01 0. -1.
        -11    1    3    3    0    0  0.90507718872E+01  0.10634142621E+02 -0.32271154395E+01  0.14332331809E+02  0.00000000000E+00 0.  1.
         11    1    3    3    0    0 -0.48139399992E+02  0.73815605341E+02 -0.40704251098E+03  0.41647298972E+03  0.00000000000E+00 0. -1.
</event>
<event>
 7    1  0.4687179E-006  0.1509652E+03  0.7561462E-02  0.1199292E+00
         -2   -1    0    0    0  501 -0.00000000000E+00  0.00000000000E+00  0.79220218669E+02  0.79220218669E+02  0.00000000000E+00 0.  1.
          2   -1    0    0  501    0  0.00000000000E+00 -0.00000000000E+00 -0.44423631869E+03  0.44423631869E+03  0.00000000000E+00 0. -1.
         23    2    1    2    0    0 -0.12393486025E+03  0.23115022875E+02 -0.29296444955E+03  0.33179595484E+03  0.91467114761E+02 0.  0.
          5    1    1    2  502    0  0.98901067922E+02 -0.53859277421E+02 -0.39672624944E+01  0.11276282442E+03  0.41800000000E+01 0.  1.
         -5    1    1    2    0  502  0.25033792326E+02  0.30744254546E+02 -0.68084387978E+02  0.78897758093E+02  0.41800000000E+01 0.  1.
        -11    1    3    3    0    0 -0.10922199689E+03 -0.13363662298E+02 -0.25214433938E+03  0.27510870571E+03  0.00000000000E+00 0. -1.
         11    1    3    3    0    0 -0.14712863354E+02  0.36478685173E+02 -0.40820110168E+02  0.56687249132E+02  0.00000000000E+00 0.  1.
</event>
<event>
 7    1  0.4687179E-006  0.1220901E+03  0.7561462E-02  0.1239688E+00
         -2   -1    0    0    0  501 -0.00000000000E+00  0.00000000000E+00  0.18065145775E+03  0.18065145775E+03  0.00000000000E+00 0.  1.
          2   -1    0    0  501    0  0.00000000000E+00 -0.00000000000E+00 -0.15513206178E+03  0.15513206178E+03  0.00000000000E+00 0. -1.
         23    2    1    2    0    0  0.46662632247E+02  0.32484996219E+02 -0.10221321983E+03  0.14817154431E+03  0.90964762456E+02 0.  0.
          5    1    1    2  502    0 -0.67365833487E+02  0.27885534363E+02  0.75438417904E+02  0.10499612299E+03  0.41800000000E+01 0.  1.
         -5    1    1    2    0  502  0.20703201240E+02 -0.60370530582E+02  0.52294197896E+02  0.82615852219E+02  0.41800000000E+01 0.  1.
        -11    1    3    3    0    0 -0.24038354582E+02 -0.84692257455E+01 -0.26766486087E+02  0.36959640869E+02  0.00000000000E+00 0.  1.
         11    1    3    3    0    0  0.70700986829E+02  0.40954221964E+02 -0.75446733743E+02  0.11121190344E+03  0.00000000000E+00 0. -1.
</event>
<event>
 7    1  0.4687179E-006  0.8373689E+02  0.7561462E-02  0.1318769E+00
          2   -1    0    0  501    0  0.00000000000E+00  0.00000000000E+00  0.71565138714E+02  0.71565138714E+02  0.00000000000E+00 0. -1.
         -2   -1    0    0    0  501 -0.00000000000E+00 -0.00000000000E+00 -0.18536574310E+03  0.18536574310E+03  0.00000000000E+00 0.  1.
         23    2    1    2    0    0 -0.16811733711E+02 -0.18484493622E+02 -0.84254147393E+01  0.91473339231E+02  0.87590372083E+02 0.  0.
          5    1    1    2  502    0  0.10862509411E+02 -0.27493530600E+02 -0.11423545257E+03  0.11807243268E+03  0.41800000000E+01 0. -1.
         -5    1    1    2    0  502  0.59492242997E+01  0.45978024222E+02  0.88602629254E+01  0.47385109900E+02  0.41800000000E+01 0. -1.
        -11    1    3    3    0    0 -0.22047745618E+02  0.32797925353E+02 -0.44996888133E+01  0.39775044861E+02  0.00000000000E+00 0.  1.
         11    1    3    3    0    0  0.52360119071E+01 -0.51282418975E+02 -0.39257259259E+01  0.51698294369E+02  0.00000000000E+00 0. -1.
</event>
<event>
 7    1  0.4687179E-006  0.1455237E+03  0.7561462E-02  0.1206084E+00
         -1   -1    0    0    0  501 -0.00000000000E+00  0.00000000000E+00  0.59298341026E+02  0.59298341026E+02  0.00000000000E+00 0.  1.
          1   -1    0    0  501    0  0.00000000000E+00 -0.00000000000E+00 -0.47278119690E+03  0.47278119690E+03  0.00000000000E+00 0. -1.
         23    2    1    2    0    0  0.56686412426E+02  0.10594930366E+03 -0.26194860891E+03  0.30175996696E+03  0.89461721719E+02 0.  0.
          5    1    1    2  502    0  0.39117262090E+01 -0.81781807352E+02 -0.14239733486E+03  0.16431079998E+03  0.41800000000E+01 0. -1.
         -5    1    1    2    0  502 -0.60598138635E+02 -0.24167496311E+02 -0.91369121110E+01  0.66008770984E+02  0.41800000000E+01 0. -1.
        -11    1    3    3    0    0  0.76642196963E+02  0.78028859411E+02 -0.15699072875E+03  0.19133378732E+03  0.00000000000E+00 0.  1.
         11    1    3    3    0    0 -0.19955784538E+02  0.27920444252E+02 -0.10495788016E+03  0.11042617965E+03  0.00000000000E+00 0. -1.
</event>
<event>
 7    1  0.4687179E-006  0.1341043E+03  0.7561462E-02  0.1221490E+00
         -2   -1    0    0    0  501 -0.00000000000E+00  0.00000000000E+00  0.79000504764E+02  0.79000504764E+02  0.00000000000E+00 0.  1.
          2   -1    0    0  501    0  0.00000000000E+00 -0.00000000000E+00 -0.30687708215E+03  0.30687708215E+03  0.00000000000E+00 0. -1.
         23    2    1    2    0    0 -0.76534457212E+02 -0.79744161679E+02 -0.11027494711E+03  0.18168715190E+03  0.92913953437E+02 0.  0.
          5    1    1    2  502    0  0.43724425554E+02  0.86271067019E+02 -0.17258659786E+02  0.98335426639E+02  0.41800000000E+01 0. -1.
         -5    1    1    2    0  502  0.32810031658E+02 -0.65269053400E+01 -0.10034297050E+03  0.10585500838E+03  0.41800000000E+01 0. -1.
        -11    1    3    3    0    0 -0.19819160979E+02 -0.78493863795E+02 -0.90937818143E+02  0.12175291604E+03  0.00000000000E+00 0.  1.
         11    1    3    3    0    0 -0.56715296233E+02 -0.12502978839E+01 -0.19337128965E+02  0.59934235861E+02  0.00000000000E+00 0. -1.
</event>
<event>
 7    1  0.4687179E-006  0.1593072E+03  0.7561462E-02  0.1189481E+00
         -2   -1    0    0    0  501 -0.00000000000E+00  0.00000000000E+00  0.25025762577E+02  0.25025762577E+02  0.00000000000E+00 0.  1.
          2   -1    0    0  501    0  0.00000000000E+00 -0.00000000000E+00 -0.13118666699E+04  0.13118666699E+04  0.00000000000E+00 0. -1.
         23    2    1    2    0    0 -0.14229908297E+03 -0.45273076731E+01 -0.71443336855E+03  0.73392648134E+03  0.89238536471E+02 0.  0.
          5    1    1    2  502    0  0.31817554240E+02  0.28608877884E+02 -0.40186422452E+02  0.58849346649E+02  0.41800000000E+01 0.  1.
         -5    1    1    2    0  502  0.11048152873E+03 -0.24081570211E+02 -0.53222111628E+03  0.54411660444E+03  0.41800000000E+01 0.  1.
        -11    1    3    3    0    0 -0.10910757740E+03 -0.37802475897E+02 -0.58344069080E+03  0.59475753910E+03  0.00000000000E+00 0.  1.
         11    1    3    3    0    0 -0.33191505572E+02  0.33275168224E+02 -0.13099267775E+03  0.13916894225E+03  0.00000000000E+00 0. -1.
</event>
<event>
 7    1  0.6619657E-006  0.2145744E+03  0.7561462E-02  0.1137994E+00
          2   -1    0    0  501    0  0.00000000000E+00  0.00000000000E+00  0.71734531791E+03  0.71734531791E+03  0.00000000000E+00 0. -1.
         -2   -1    0    0    0  501 -0.00000000000E+00 -0.00000000000E+00 -0.72124537477E+02  0.72124537477E+02  0.00000000000E+00 0.  1.
         23    2    1    2    0    0  0.57105373089E+02  0.18402860900E+03  0.40266071801E+03  0.45538853986E+03  0.90086157897E+02 0.  0.
          5    1    1    2  502    0 -0.22366166793E+02 -0.18645617613E+03  0.22969802905E+03  0.29672345372E+03  0.41800000000E+01 0. -1.
         -5    1    1    2    0  502 -0.34739206296E+02  0.24275671313E+01  0.12862033369E+02  0.37357861805E+02  0.41800000000E+01 0. -1.
        -11    1    3    3    0    0 -0.17809675238E+02  0.28543906943E+02  0.11600559610E+03  0.12078591591E+03  0.00000000000E+00 0. -1.
         11    1    3    3    0    0  0.74915048327E+02  0.15548470206E+03  0.28665512191E+03  0.33460262396E+03  0.00000000000E+00 0.  1.
</event>
<event>
 7    1  0.4873201E-006  0.3809246E+03  0.7561462E-02  0.1050593E+00
         -2   -1    0    0    0  501 -0.00000000000E+00  0.00000000000E+00  0.19688784175E+03  0.19688784175E+03  0.00000000000E+00 0. -1.
          2   -1    0    0  501    0  0.00000000000E+00 -0.00000000000E+00 -0.78736316252E+03  0.78736316252E+03  0.00000000000E+00 0.  1.
         23    2    1    2    0    0  0.27580350016E+03  0.24120964232E+03 -0.40754433777E+03  0.55604455972E+03  0.94039900559E+02 0.  0.
          5    1    1    2  502    0 -0.25324375851E+03 -0.16032588012E+03 -0.16526211171E+03  0.34229494157E+03  0.41800000000E+01 0.  1.
         -5    1    1    2    0  502 -0.22559741647E+02 -0.80883762204E+02 -0.17668871284E+02  0.85911502978E+02  0.41800000000E+01 0.  1.
        -11    1    3    3    0    0  0.34520891442E+02  0.81921431090E+02 -0.10472370405E+03  0.13736763450E+03  0.00000000000E+00 0.  1.
         11    1    3    3    0    0  0.24128260872E+03  0.15928821123E+03 -0.30282063373E+03  0.41867692523E+03  0.00000000000E+00 0. -1.
</event>
<event>
 7    1  0.4687179E-006  0.1154159E+03  0.7561462E-02  0.1250857E+00
         -1   -1    0    0    0  501 -0.00000000000E+00  0.00000000000E+00  0.68628750053E+02  0.68628750053E+02  0.00000000000E+00 0.  1.
          1   -1    0    0  501    0  0.00000000000E+00 -0.00000000000E+00 -0.23228129574E+03  0.23228129574E+03  0.00000000000E+00 0. -1.
         23    2    1    2    0    0  0.22453507887E+02  0.60336714841E+02 -0.75742703384E+02  0.13501885408E+03  0.91369878340E+02 0.  0.
          5    1    1    2  502    0 -0.15732930694E+02 -0.98463100739E+02 -0.75097150093E+02  0.12489820522E+03  0.41800000000E+01 0.  1.
         -5    1    1    2    0  502 -0.67205771924E+01  0.38126385898E+02 -0.12812692209E+02  0.40992986486E+02  0.41800000000E+01 0.  1.
        -11    1    3    3    0    0 -0.24395831867E+01  0.66422021697E+02 -0.13661086022E+02  0.67856184713E+02  0.00000000000E+00 0.  1.
         11    1    3    3    0    0  0.24893091073E+02 -0.60853068559E+01 -0.62081617362E+02  0.67162669371E+02  0.00000000000E+00 0. -1.
</event>
<event>
 7    1  0.4687179E-006  0.1041157E+03  0.7561462E-02  0.1271872E+00
         -3   -1    0    0    0  501 -0.00000000000E+00  0.00000000000E+00  0.50970415589E+03  0.50970415589E+03  0.00000000000E+00 0.  1.
          3   -1    0    0  501    0  0.00000000000E+00 -0.00000000000E+00 -0.41439835439E+02  0.41439835439E+02  0.00000000000E+00 0. -1.
         23    2    1    2    0    0  0.42604365373E+02 -0.23420799077E+02  0.47801656076E+02  0.10978229076E+03  0.86043519588E+02 0.  0.
          5    1    1    2  502    0  0.34240498416E+02  0.14034471328E+02  0.47147607595E+02  0.60081173583E+02  0.41800000000E+01 0.  1.
         -5    1    1    2    0  502 -0.76844863789E+02  0.93863277493E+01  0.37331505678E+03  0.38128052699E+03  0.41800000000E+01 0.  1.
        -11    1    3    3    0    0  0.44872561825E+02  0.20605572071E+02  0.42927975731E+02  0.65428950056E+02  0.00000000000E+00 0.  1.
         11    1    3    3    0    0 -0.22681964519E+01 -0.44026371148E+02  0.48736803450E+01  0.44353340705E+02  0.00000000000E+00 0. -1.
</event>
<event>
 7    1  0.4687179E-006  0.9808682E+02  0.7561462E-02  0.1284371E+00
          2   -1    0    0  501    0  0.00000000000E+00  0.00000000000E+00  0.19151397668E+03  0.19151397668E+03  0.00000000000E+00 0. -1.
         -2   -1    0    0    0  501 -0.00000000000E+00 -0.00000000000E+00 -0.74195914343E+02  0.74195914343E+02  0.00000000000E+00 0.  1.
         23    2    1    2    0    0  0.25260171964E+02  0.51119451940E+02  0.69227120930E+02  0.12005516189E+03  0.79809604490E+02 0.  0.
          5    1    1    2  502    0 -0.18253554270E+02 -0.84434421846E+02  0.64249514032E+02  0.10773966906E+03  0.41800000000E+01 0. -1.
         -5    1    1    2    0  502 -0.70066176941E+01  0.33314969906E+02 -0.16158572625E+02  0.37915060077E+02  0.41800000000E+01 0. -1.
        -11    1    3    3    0    0  0.32732344957E+02  0.10928545487E+02 -0.54352915486E+01  0.34933964950E+02  0.00000000000E+00 0. -1.
         11    1    3    3    0    0 -0.74721729935E+01  0.40190906453E+02  0.74662412478E+02  0.85121196936E+02  0.00000000000E+00 0.  1.
</event>
<event>
 7    1  0.4687179E-006  0.1290116E+03  0.7561462E-02  0.1228930E+00
          2   -1    0    0  501    0  0.00000000000E+00  0.00000000000E+00  0.92358064540E+02  0.92358064540E+02  0.00000000000E+00 0.  1.
         -2   -1    0    0    0  501 -0.00000000000E+00 -0.00000000000E+00 -0.27937936183E+03  0.27937936183E+03  0.00000000000E+00 0. -1.
         23    2    1    2    0    0 -0.90047397428E+02 -0.13474186506E+01  0.83871441837E-01  0.12932397401E+03  0.92813435987E+02 0.  0.
          5    1    1    2  502    0 -0.11251465554E+02  0.23899446966E+02  0.18354944030E+01  0.26807097606E+02  0.41800000000E+01 0.  1.
         -5    1    1    2    0  502  0.10129886298E+03 -0.22552028315E+02 -0.18894066314E+03  0.21560635475E+03  0.41800000000E+01 0.  1.
        -11    1    3    3    0    0 -0.58739964987E+02  0.43237214649E+02 -0.10904868940E+02  0.73747924607E+02  0.00000000000E+00 0. -1.
         11    1    3    3    0    0 -0.31307432441E+02 -0.44584633299E+02  0.10988740382E+02  0.55576049407E+02  0.00000000000E+00 0.  1.
</event>
<event>
 7    1  0.4687179E-006  0.8898724E+02  0.7561462E-02  0.1305323E+00
         -1   -1    0    0    0  501 -0.00000000000E+00  0.00000000000E+00  0.52243074178E+03  0.52243074178E+03  0.00000000000E+00 0.  1.
          1   -1    0    0  501    0  0.00000000000E+00 -0.00000000000E+00 -0.27067117699E+02  0.27067117699E+02  0.00000000000E+00 0. -1.
         23    2    1    2    0    0 -0.25406772195E+02  0.35707625577E+02  0.17051707374E+03  0.19865244008E+03  0.92011852035E+02 0.  0.
          5    1    1    2  502    0  0.47243652185E+02 -0.31849726147E+02  0.52573883364E+02  0.77639251280E+02  0.41800000000E+01 0. -1.
         -5    1    1    2    0  502 -0.21836879990E+02 -0.38578994304E+01  0.27227266697E+03  0.27320616811E+03  0.41800000000E+01 0. -1.
        -11    1    3    3    0    0 -0.32461705844E+02 -0.22594856084E+02  0.95614457144E+02  0.10347180429E+03  0.00000000000E+00 0.  1.
         11    1    3    3    0    0  0.70549336490E+01  0.58302481662E+02  0.74902616599E+02  0.95180635794E+02  0.00000000000E+00 0. -1.
</event>
<event>
 7    1  0.4687179E-006  0.1039221E+03  0.7561462E-02  0.1272258E+00
         -1   -1    0    0    0  501 -0.00000000000E+00  0.00000000000E+00  0.67380773836E+02  0.67380773836E+02  0.00000000000E+00 0. -1.
          1   -1    0    0  501    0  0.00000000000E+00 -0.00000000000E+00 -0.22441396883E+03  0.22441396883E+03  0.00000000000E+00 0.  1.
         23    2    1    2    0    0 -0.32676417690E+02 -0.35435524383E+02 -0.10381549744E+03  0.14756097353E+03  0.93129795126E+02 0.  0.
          5    1    1    2  502    0 -0.24337149896E+02 -0.16005578394E+02  0.21937816210E+02  0.36704435492E+02  0.41800000000E+01 0.  1.
         -5    1    1    2    0  502  0.57013567585E+02  0.51441102777E+02 -0.75155513760E+02  0.10752933364E+03  0.41800000000E+01 0.  1.
        -11    1    3    3    0    0 -0.63688005585E+02 -0.28293646732E+02 -0.87307474899E+02  0.11171073213E+03  0.00000000000E+00 0.  1.
         11    1    3    3    0    0  0.31011587895E+02 -0.71418776506E+01 -0.16508022540E+02  0.35850241399E+02  0.00000000000E+00 0. -1.
</event>
<event>
 7    1  0.4687179E-006  0.2601481E+03  0.7561462E-02  0.1107054E+00
          1   -1    0    0  501    0  0.00000000000E+00  0.00000000000E+00  0.68065707815E+03  0.68065707815E+03  0.00000000000E+00 0. -1.
         -1   -1    0    0    0  501 -0.00000000000E+00 -0.00000000000E+00 -0.10912532886E+03  0.10912532886E+03  0.00000000000E+00 0.  1.
         23    2    1    2    0    0  0.16657390910E+03  0.17407291539E+03  0.37381668955E+03  0.45394439126E+03  0.90985415885E+02 0.  0.
          5    1    1    2  502    0 -0.13001047399E+03 -0.18990106815E+03  0.17917127554E+03  0.29169325911E+03  0.41800000000E+01 0.  1.
         -5    1    1    2    0  502 -0.36563435107E+02  0.15828152762E+02  0.18543784202E+02  0.44144756645E+02  0.41800000000E+01 0.  1.
        -11    1    3    3    0    0  0.56309397529E+02  0.18304164474E+02  0.47462793671E+02  0.75884830303E+02  0.00000000000E+00 0. -1.
         11    1    3    3    0    0  0.11026451157E+03  0.15576875091E+03  0.32635389588E+03  0.37805956095E+03  0.00000000000E+00 0.  1.
</event>
<event>
 7    1  0.4687179E-006  0.1119159E+03  0.7561462E-02  0.1257063E+00
         -3   -1    0    0    0  501 -0.00000000000E+00  0.00000000000E+00  0.38774654456E+02  0.38774654456E+02  0.00000000000E+00 0.  1.
          3   -1    0    0  501    0  0.00000000000E+00 -0.00000000000E+00 -0.40032079275E+03  0.40032079275E+03  0.00000000000E+00 0. -1.
         23    2    1    2    0    0  0.34815843887E+01  0.57852914508E+02 -0.19747289717E+03  0.22479369896E+03  0.90429977472E+02 0.  0.
          5    1    1    2  502    0 -0.28513169564E+02 -0.82550814546E+02 -0.15465129689E+03  0.17765734955E+03  0.41800000000E+01 0.  1.
         -5    1    1    2    0  502  0.25031585176E+02  0.24697900037E+02 -0.94219442321E+01  0.36644398696E+02  0.41800000000E+01 0.  1.
        -11    1    3    3    0    0  0.25948605946E+02  0.70553984470E+02 -0.10739266742E+03  0.13108920585E+03  0.00000000000E+00 0.  1.
         11    1    3    3    0    0 -0.22467021557E+02 -0.12701069961E+02 -0.90080229753E+02  0.93704493106E+02  0.00000000000E+00 0. -1.
</event>
<event>
 7    1  0.4687179E-006  0.8015587E+02  0.7561462E-02  0.1328610E+00
          1   -1    0    0  501    0  0.00000000000E+00  0.00000000000E+00  0.17553554109E+03  0.17553554109E+03  0.00000000000E+00 0. -1.
         -1   -1    0    0    0  501 -0.00000000000E+00 -0.00000000000E+00 -0.65716477007E+02  0.65716477007E+02  0.00000000000E+00 0.  1.
         23    2    1    2    0    0 -0.47342142587E+01  0.10282199801E+02  0.39622096939E+02  0.97363516442E+02  0.88213419335E+02 0.  0.
          5    1    1    2  502    0 -0.32050753956E+02  0.46658095187E+02  0.23317978553E+02  0.61363093137E+02  0.41800000000E+01 0.  1.
         -5    1    1    2    0  502  0.36784968215E+02 -0.56940294987E+02  0.46878988593E+02  0.82525408520E+02  0.41800000000E+01 0.  1.
        -11    1    3    3    0    0  0.11628105852E+02  0.14645126556E+02 -0.24625903359E+02  0.30921314555E+02  0.00000000000E+00 0.  1.
         11    1    3    3    0    0 -0.16362320110E+02 -0.43629267548E+01  0.64248000299E+02  0.66442201887E+02  0.00000000000E+00 0. -1.
</event>
<event>
 7    1  0.4687179E-006  0.1269928E+03  0.7561462E-02  0.1231987E+00
          2   -1    0    0  501    0  0.00000000000E+00  0.00000000000E+00  0.24560734144E+03  0.24560734144E+03  0.00000000000E+00 0. -1.
         -2   -1    0    0    0  501 -0.00000000000E+00 -0.00000000000E+00 -0.81432187313E+02  0.81432187313E+02  0.00000000000E+00 0.  1.
         23    2    1    2    0    0 -0.33583564747E+02 -0.63631360944E+02  0.13387564448E+03  0.17958759275E+03  0.95667180198E+02 0.  0.
          5    1    1    2  502    0 -0.25513423732E+02  0.73855989054E+02 -0.37848005077E+01  0.78341808918E+02  0.41800000000E+01 0. -1.
         -5    1    1    2    0  502  0.59096988478E+02 -0.10224628109E+02  0.34084310152E+02  0.69110127085E+02  0.41800000000E+01 0. -1.
        -11    1    3    3    0    0 -0.62811269258E+02 -0.26033139943E+02  0.55010017440E+02  0.87459030065E+02  0.00000000000E+00 0.  1.
         11    1    3    3    0    0  0.29227704512E+02 -0.37598221001E+02  0.78865627040E+02  0.92128562682E+02  0.00000000000E+00 0. -1.
</event>
<event>
 7    1  0.4687179E-006  0.1457737E+03  0.7561462E-02  0.1205765E+00
         -2   -1    0    0    0  501 -0.00000000000E+00  0.00000000000E+00  0.29412693284E+02  0.29412693284E+02  0.00000000000E+00 0. -1.
          2   -1    0    0  501    0  0.00000000000E+00 -0.00000000000E+00 -0.91049745285E+03  0.91049745285E+03  0.00000000000E+00 0.  1.
         23    2    1    2    0    0  0.63031460944E+02 -0.89213809359E+02 -0.56772356102E+03  0.58526279827E+03  0.91051811885E+02 0.  0.
          5    1    1    2  502    0 -0.33672868815E+02 -0.25448247621E+02 -0.12643762252E+03  0.13336198930E+03  0.41800000000E+01 0. -1.
         -5    1    1    2    0  502 -0.29358592128E+02  0.11466205698E+03 -0.18692357602E+03  0.22128535856E+03  0.41800000000E+01 0. -1.
        -11    1    3    3    0    0  0.92699362551E+01 -0.74342449446E+02 -0.43324012596E+03  0.43967003337E+03  0.00000000000E+00 0.  1.
         11    1    3    3    0    0  0.53761524689E+02 -0.14871359913E+02 -0.13448343507E+03  0.14559276489E+03  0.00000000000E+00 0. -1.
</event>
<event>
 7    1  0.7316937E-006  0.1371927E+03  0.7561462E-02  0.1217157E+00
          2   -1    0    0  501    0  0.00000000000E+00  0.00000000000E+00  0.14475250748E+04  0.14475250748E+04  0.00000000000E+00 0. -1.
         -2   -1    0    0    0  501 -0.00000000000E+00 -0.00000000000E+00 -0.15924007559E+02  0.15924007559E+02  0.00000000000E+00 0.  1.
         23    2    1    2    0    0 -0.49892530712E+01 -0.10251595942E+03  0.78415455712E+03  0.79608900337E+03  0.91240984521E+02 0.  0.
          5    1    1    2  502    0  0.42690215769E+02  0.21995045399E+02  0.83359692407E+02  0.96294066601E+02  0.41800000000E+01 0. -1.
         -5    1    1    2    0  502 -0.37700962698E+02  0.80520914017E+02  0.56408681768E+03  0.57106601235E+03  0.41800000000E+01 0. -1.
        -11    1    3    3    0    0 -0.47625430553E+02 -0.63528607865E+02  0.47253066657E+03  0.47915477301E+03  0.00000000000E+00 0. -1.
         11    1    3    3    0    0  0.42636177482E+02 -0.38987351551E+02  0.31162389055E+03  0.31693423036E+03  0.00000000000E+00 0.  1.
</event>
<event>
 7    1  0.5047008E-006  0.2547714E+03  0.7561462E-02  0.1110326E+00
         -2   -1    0    0    0  501 -0.00000000000E+00  0.00000000000E+00  0.46251138380E+02  0.46251138380E+02  0.00000000000E+00 0.  1.
          2   -1    0    0  501    0  0.00000000000E+00 -0.00000000000E+00 -0.14750029275E+04  0.14750029275E+04  0.00000000000E+00 0. -1.
         23    2    1    2    0    0 -0.20071432445E+02 -0.23416275344E+03 -0.75779099845E+03  0.79940144901E+03  0.97777409662E+02 0.  0.
          5    1    1    2  502    0 -0.29933800357E+02  0.17681492446E+03 -0.36709573900E+03  0.40857839383E+03  0.41800000000E+01 0. -1.
         -5    1    1    2    0  502  0.50005232802E+02  0.57347828979E+02 -0.30386505169E+03  0.31327422306E+03  0.41800000000E+01 0. -1.
        -11    1    3    3    0    0 -0.59187891629E+02 -0.14031473542E+03 -0.48068042828E+03  0.50422723609E+03  0.00000000000E+00 0.  1.
         11    1    3    3    0    0  0.39116459183E+02 -0.93848018023E+02 -0.27711057018E+03  0.29517421291E+03  0.00000000000E+00 0. -1.
</event>
<event>
 7    1  0.4687179E-006  0.1791854E+03  0.7561462E-02  0.1168594E+00
         -1   -1    0    0    0  501 -0.00000000000E+00  0.00000000000E+00  0.40043806548E+03  0.40043806548E+03  0.00000000000E+00 0.  1.
          1   -1    0    0  501    0  0.00000000000E+00 -0.00000000000E+00 -0.99099234250E+02  0.99099234250E+02  0.00000000000E+00 0. -1.
         23    2    1    2    0    0 -0.11136829944E+03  0.12070418515E+03  0.10663330877E+03  0.21575840617E+03  0.90601483755E+02 0.  0.
          5    1    1    2  502    0  0.96349853617E+02 -0.41976004774E+02  0.16981756344E+03  0.19975173722E+03  0.41800000000E+01 0. -1.
         -5    1    1    2    0  502  0.15018445824E+02 -0.78728180374E+02  0.24887959020E+02  0.84027156349E+02  0.41800000000E+01 0. -1.
        -11    1    3    3    0    0 -0.41161164157E+02  0.84386455967E+02  0.98848238118E+02  0.13633154281E+03  0.00000000000E+00 0.  1.
         11    1    3    3    0    0 -0.70207135284E+02  0.36317729181E+02  0.77850706547E+01  0.79426863357E+02  0.00000000000E+00 0. -1.
</event>
<event>
 7    1  0.4687179E-006  0.1167875E+03  0.7561462E-02  0.1248493E+00
          4   -1    0    0  501    0  0.00000000000E+00  0.00000000000E+00  0.28896224407E+02  0.28896224407E+02  0.00000000000E+00 0.  1.
         -4   -1    0    0    0  501 -0.00000000000E+00 -0.00000000000E+00 -0.50786136887E+03  0.50786136887E+03  0.00000000000E+00 0. -1.
         23    2    1    2    0    0  0.49054197354E+02  0.16767964018E+02 -0.16327345661E+03  0.19326396456E+03  0.89472115590E+02 0.  0.
          5    1    1    2  502    0  0.27974391249E+01 -0.62701355150E+02 -0.11408319452E+03  0.13027560507E+03  0.41800000000E+01 0. -1.
         -5    1    1    2    0  502 -0.51851636479E+02  0.45933391132E+02 -0.20160849333E+03  0.21321802365E+03  0.41800000000E+01 0. -1.
        -11    1    3    3    0    0  0.48684666463E+02  0.48980845848E+02 -0.91892708394E+02  0.11495038001E+03  0.00000000000E+00 0.  1.
         11    1    3    3    0    0  0.36953089074E+00 -0.32212881830E+02 -0.71380748213E+02  0.78313584545E+02  0.00000000000E+00 0. -1.
</event>
<event>
 7    1  0.4687179E-006  0.7051946E+02  0.7561462E-02  0.1358335E+00
          1   -1    0    0  501    0  0.00000000000E+00  0.00000000000E+00  0.86477396260E+02  0.86477396260E+02  0.00000000000E+00 0. -1.
         -1   -1    0    0    0  501 -0.00000000000E+00 -0.00000000000E+00 -0.17785881736E+03  0.17785881736E+03  0.00000000000E+00 0.  1.
         23    2    1    2    0    0  0.51575622451E+02 -0.59998072753E+01 -0.29998787042E+01  0.10261171407E+03  0.88454067597E+02 0.  0.
          5    1    1    2  502    0  0.23002587829E+01 -0.19117845504E+01  0.30483233132E+02  0.30913524756E+02  0.41800000000E+01 0. -1.
         -5    1    1    2    0  502 -0.53875881234E+02  0.79115918257E+01 -0.11886477553E+03  0.13081097479E+03  0.41800000000E+01 0. -1.
        -11    1    3    3    0    0  0.50636142061E+02 -0.28941994218E+02  0.27461678707E+02  0.64465507906E+02  0.00000000000E+00 0. -1.
         11    1    3    3    0    0  0.93948039064E+00  0.22942186943E+02 -0.30461557411E+02  0.38146206169E+02  0.00000000000E+00 0.  1.
</event>
<event>
 7    1  0.4687179E-006  0.7888317E+02  0.7561462E-02  0.1332251E+00
         -4   -1    0    0    0  501 -0.00000000000E+00  0.00000000000E+00  0.11762048990E+04  0.11762048990E+04  0.00000000000E+00 0. -1.
          4   -1    0    0  501    0  0.00000000000E+00 -0.00000000000E+00 -0.14466177843E+02  0.14466177843E+02  0.00000000000E+00 0.  1.
         23    2    1    2    0    0  0.11042260443E+02  0.11917339168E+02  0.19593733549E+03  0.21666714208E+03  0.91045354246E+02 0.  0.
          5    1    1    2  502    0  0.33386165854E+02 -0.26754887282E+02  0.81285970974E+03  0.81399560207E+03  0.41800000000E+01 0. -1.
         -5    1    1    2    0  502 -0.44428426297E+02  0.14837548115E+02  0.15294167594E+03  0.16000833271E+03  0.41800000000E+01 0. -1.
        -11    1    3    3    0    0  0.38867945715E+02  0.72087280591E+01  0.17993184958E+03  0.18422310783E+03  0.00000000000E+00 0. -1.
         11    1    3    3    0    0 -0.27825685272E+02  0.47086111087E+01  0.16005485912E+02  0.32444034254E+02  0.00000000000E+00 0.  1.
</event>
<event>
 7    1  0.4687179E-006  0.9740423E+02  0.7561462E-02  0.1285851E+00
          2   -1    0    0  501    0  0.00000000000E+00  0.00000000000E+00  0.17863621680E+03  0.17863621680E+03  0.00000000000E+00 0. -1.
         -2   -1    0    0    0  501 -0.00000000000E+00 -0.00000000000E+00 -0.66120805001E+02  0.66120805001E+02  0.00000000000E+00 0.  1.
         23    2    1    2    0    0 -0.20404475020E+02  0.40259189394E+01  0.56939406248E+02  0.10630345384E+03  0.87325698906E+02 0.  0.
          5    1    1    2  502    0 -0.10818860468E+02  0.46761913020E+02 -0.10551789757E+02  0.49320755451E+02  0.41800000000E+01 0.  1.
         -5    1    1    2    0  502  0.31223335488E+02 -0.50787831960E+02  0.66127795304E+02  0.89132812510E+02  0.41800000000E+01 0.  1.
        -11    1    3    3    0    0 -0.51237161114E+02 -0.11247336962E+02  0.47142294589E+02  0.70527620170E+02  0.00000000000E+00 0.  1.
         11    1    3    3    0    0  0.30832686094E+02  0.15273255902E+02  0.97971116595E+01  0.35775833666E+02  0.00000000000E+00 0. -1.
</event>
<event>
 7    1  0.4687179E-006  0.1074721E+03  0.7561462E-02  0.1265324E+00
         -1   -1    0    0    0  501 -0.00000000000E+00  0.00000000000E+00  0.28398583671E+03  0.28398583671E+03  0.00000000000E+00 0.  1.
          1   -1    0    0  501    0  0.00000000000E+00 -0.00000000000E+00 -0.53699502289E+02  0.53699502289E+02  0.00000000000E+00 0. -1.
         23    2    1    2    0    0  0.55741364372E+02  0.11424168573E+02  0.74772065430E+02  0.13015165093E+03  0.90060974578E+02 0.  0.
          5    1    1    2  502    0 -0.90308189520E+02  0.74249398861E+01  0.13578677731E+03  0.16329794892E+03  0.41800000000E+01 0.  1.
         -5    1    1    2    0  502  0.34566825148E+02 -0.18849108459E+02  0.19727491678E+02  0.44235739153E+02  0.41800000000E+01 0.  1.
        -11    1    3    3    0    0  0.66688168916E+02 -0.27352270939E+01  0.86122697881E+02  0.10895830593E+03  0.00000000000E+00 0.  1.
         11    1    3    3    0    0 -0.10946804544E+02  0.14159395667E+02 -0.11350632451E+02  0.21193345003E+02  0.00000000000E+00 0. -1.
</event>
<event>
 7    1  0.4687179E-006  0.2329382E+03  0.7561462E-02  0.1124589E+00
          1   -1    0    0  501    0  0.00000000000E+00  0.00000000000E+00  0.18699309916E+03  0.18699309916E+03  0.00000000000E+00 0. -1.
         -1   -1    0    0    0  501 -0.00000000000E+00 -0.00000000000E+00 -0.32753917865E+03  0.32753917865E+03  0.00000000000E+00 0.  1.
         23    2    1    2    0    0  0.45161850006E+02 -0.21405922664E+03 -0.29972774653E+02  0.23932686497E+03  0.92293205978E+02 0.  0.
          5    1    1    2  502    0  0.13110411955E+02  0.10041947943E+03  0.69554479386E+01  0.10159628638E+03  0.41800000000E+01 0.  1.
         -5    1    1    2    0  502 -0.58272261961E+02  0.11363974721E+03 -0.11752875278E+03  0.17360912646E+03  0.41800000000E+01 0.  1.
        -11    1    3    3    0    0 -0.18879827744E+02 -0.12844087449E+03 -0.25577922657E+02  0.13231680265E+03  0.00000000000E+00 0.  1.
         11    1    3    3    0    0  0.64041677750E+02 -0.85618352150E+02 -0.43948519959E+01  0.10701006232E+03  0.00000000000E+00 0. -1.
</event>
<event>
 7    1  0.4687179E-006  0.1850102E+03  0.7561462E-02  0.1163040E+00
         -2   -1    0    0    0  501 -0.00000000000E+00  0.00000000000E+00  0.13201741478E+03  0.13201741478E+03  0.00000000000E+00 0.  1.
          2   -1    0    0  501    0  0.00000000000E+00 -0.00000000000E+00 -0.35873196709E+03  0.35873196709E+03  0.00000000000E+00 0. -1.
         23    2    1    2    0    0  0.12096102162E+02  0.38327759058E+01 -0.37910596710E+02  0.97677293626E+02  0.89121459192E+02 0.  0.
          5    1    1    2  502    0  0.70827828713E+02  0.11496120104E+03 -0.20681061707E+03  0.24702381018E+03  0.41800000000E+01 0. -1.
         -5    1    1    2    0  502 -0.82923930874E+02 -0.11879397694E+03  0.18006661472E+02  0.14604827807E+03  0.41800000000E+01 0.  1.
        -11    1    3    3    0    0 -0.18408475845E+02  0.39188579409E+02 -0.17046918497E+02  0.46531861872E+02  0.00000000000E+00 0. -1.
         11    1    3    3    0    0  0.30504578007E+02 -0.35355803503E+02 -0.20863678212E+02  0.51145431754E+02  0.00000000000E+00 0.  1.
</event>
<event>
 7    1  0.4687179E-006  0.8608032E+02  0.7561462E-02  0.1312631E+00
          2   -1    0    0  501    0  0.00000000000E+00  0.00000000000E+00  0.18306378468E+03  0.18306378468E+03  0.00000000000E+00 0. -1.
         -2   -1    0    0    0  501 -0.00000000000E+00 -0.00000000000E+00 -0.83110763010E+02  0.83110763010E+02  0.00000000000E+00 0.  1.
         23    2    1    2    0    0  0.61815620317E+01  0.18837448161E+02  0.10293752565E+03  0.13949004794E+03  0.92023247736E+02 0.  0.
          5    1    1    2  502    0 -0.50479086186E+02 -0.10563505421E+02 -0.42225069820E+02  0.66784389720E+02  0.41800000000E+01 0. -1.
         -5    1    1    2    0  502  0.44297524154E+02 -0.82739427408E+01  0.39240565842E+02  0.59900110036E+02  0.41800000000E+01 0. -1.
        -11    1    3    3    0    0 -0.24125766278E+02  0.33668741085E+02  0.96671651225E+02  0.10517150220E+03  0.00000000000E+00 0. -1.
         11    1    3    3    0    0  0.30307328310E+02 -0.14831292924E+02  0.62658744255E+01  0.34318545735E+02  0.00000000000E+00 0.  1.
</event>
<event>
 7    1  0.4687179E-006  0.1205097E+03  0.7561462E-02  0.1242259E+00
         -2   -1    0    0    0  501 -0.00000000000E+00  0.00000000000E+00  0.16192550279E+03  0.16192550279E+03  0.00000000000E+00 0.  1.
          2   -1    0    0  501    0  0.00000000000E+00 -0.00000000000E+00 -0.17809131447E+03  0.17809131447E+03  0.00000000000E+00 0. -1.
         23    2    1    2    0    0  0.54424369907E+02  0.10554037922E+03 -0.61307996584E+02  0.16173138591E+03  0.91091092083E+02 0.  0.
          5    1    1    2  502    0 -0.42256866204E+02 -0.55671755371E+02 -0.38615966191E+02  0.79960317235E+02  0.41800000000E+01 0.  1.
         -5    1    1    2    0  502 -0.12167503703E+02 -0.49868623850E+02  0.83758151092E+02  0.98325114114E+02  0.41800000000E+01 0.  1.
        -11    1    3    3    0    0  0.95787224520E+01  0.31632258192E+02  0.23558333101E+02  0.40587519518E+02  0.00000000000E+00 0.  1.
         11    1    3    3    0    0  0.44845647455E+02  0.73908121030E+02 -0.84866329685E+02  0.12114386639E+03  0.00000000000E+00 0. -1.
</event>
<event>
 7    1  0.4687179E-006  0.1036273E+03  0.7561462E-02  0.1272848E+00
         -1   -1    0    0    0  501 -0.00000000000E+00  0.00000000000E+00  0.18423780465E+03  0.18423780465E+03  0.00000000000E+00 0.  1.
          1   -1    0    0  501    0  0.00000000000E+00 -0.00000000000E+00 -0.87338773605E+02  0.87338773605E+02  0.00000000000E+00 0. -1.
         23    2    1    2    0    0  0.65152221497E+02  0.63550711254E+01  0.38868348418E+02  0.11893064129E+03  0.91370400208E+02 0.  0.
          5    1    1    2  502    0 -0.88122308777E+02 -0.41801668485E+02  0.49083504334E+02  0.10926840161E+03  0.41800000000E+01 0. -1.
         -5    1    1    2    0  502  0.22970087280E+02  0.35446597360E+02  0.89471782917E+01  0.43377535354E+02  0.41800000000E+01 0. -1.
        -11    1    3    3    0    0  0.38573074840E+02  0.11206219844E+02  0.68138515508E+02  0.79096894764E+02  0.00000000000E+00 0.  1.
         11    1    3    3    0    0  0.26579146657E+02 -0.48511487188E+01 -0.29270167090E+02  0.39833746527E+02  0.00000000000E+00 0. -1.
</event>
<event>
 7    1  0.4687179E-006  0.1214263E+03  0.7561462E-02  0.1240762E+00
          1   -1    0    0  501    0  0.00000000000E+00  0.00000000000E+00  0.11626534285E+03  0.11626534285E+03  0.00000000000E+00 0. -1.
         -1   -1    0    0    0  501 -0.00000000000E+00 -0.00000000000E+00 -0.17320099836E+03  0.17320099836E+03  0.00000000000E+00 0.  1.
         23    2    1    2    0    0  0.20263704543E+02 -0.87485761324E+02 -0.92696181478E+01  0.12827316648E+03  0.91124657814E+02 0.  0.
          5    1    1    2  502    0  0.35264100498E+02 -0.10966464115E+02 -0.27659042816E+02  0.46328340879E+02  0.41800000000E+01 0. -1.
         -5    1    1    2    0  502 -0.55527805041E+02  0.98452225439E+02 -0.20006994546E+02  0.11486483386E+03  0.41800000000E+01 0. -1.
        -11    1    3    3    0    0 -0.49816130430E+01 -0.12477026228E+02  0.35070389068E+02  0.37555623299E+02  0.00000000000E+00 0. -1.
         11    1    3    3    0    0  0.25245317586E+02 -0.75008735095E+02 -0.44340007216E+02  0.90717543179E+02  0.00000000000E+00 0.  1.
</event>
<event>
 7    1  0.4687179E-006  0.1261762E+03  0.7561462E-02  0.1233242E+00
          2   -1    0    0  501    0  0.00000000000E+00  0.00000000000E+00  0.38456446664E+03  0.38456446664E+03  0.00000000000E+00 0. -1.
         -2   -1    0    0    0  501 -0.00000000000E+00 -0.00000000000E+00 -0.57730483485E+02  0.57730483485E+02  0.00000000000E+00 0.  1.
         23    2    1    2    0    0  0.98842942115E+02  0.42129045058E+01  0.11235909854E+03  0.17502300449E+03  0.90668678757E+02 0.  0.
          5    1    1    2  502    0 -0.76618214496E+02 -0.55172052536E+02  0.88346078506E+02  0.12937081650E+03  0.41800000000E+01 0.  1.
         -5    1    1    2    0  502 -0.22224727620E+02  0.50959148030E+02  0.12612880611E+03  0.13790112913E+03  0.41800000000E+01 0.  1.
        -11    1    3    3    0    0  0.82712459355E+02 -0.61166544368E+01  0.26523479812E+02  0.87076169963E+02  0.00000000000E+00 0.  1.
         11    1    3    3    0    0  0.16130482760E+02  0.10329558943E+02  0.85835618724E+02  0.87946834530E+02  0.00000000000E+00 0. -1.
</event>
<event>
 7    1  0.4687179E-006  0.9638792E+02  0.7561462E-02  0.1288080E+00
          1   -1    0    0  501    0  0.00000000000E+00  0.00000000000E+00  0.19683218349E+03  0.19683218349E+03  0.00000000000E+00 0. -1.
         -1   -1    0    0    0  501 -0.00000000000E+00 -0.00000000000E+00 -0.13423724509E+03  0.13423724509E+03  0.00000000000E+00 0.  1.
         23    2    1    2    0    0  0.10043708581E+02 -0.89252464807E+02  0.11121274000E+03  0.16958408973E+03  0.91233828139E+02 0.  0.
          5    1    1    2  502    0 -0.20418310582E+02  0.10485603153E+02  0.37549478514E+02  0.44207363834E+02  0.41800000000E+01 0. -1.
         -5    1    1    2    0  502  0.10374602001E+02  0.78766861653E+02 -0.86167280113E+02  0.11727797501E+03  0.41800000000E+01 0. -1.
        -11    1    3    3    0    0  0.16276569254E+01 -0.29601389000E+02 -0.12352110231E+02  0.32116446332E+02  0.00000000000E+00 0.  1.
         11    1    3    3    0    0  0.84160516558E+01 -0.59651075806E+02  0.12356485023E+03  0.13746764340E+03  0.00000000000E+00 0. -1.
</event>
<event>
 7    1  0.4687179E-006  0.1825560E+03  0.7561462E-02  0.1165352E+00
         -2   -1    0    0    0  501 -0.00000000000E+00  0.00000000000E+00  0.54555549401E+02  0.54555549401E+02  0.00000000000E+00 0. -1.
          2   -1    0    0  501    0  0.00000000000E+00 -0.00000000000E+00 -0.73863952448E+03  0.73863952448E+03  0.00000000000E+00 0.  1.
         23    2    1    2    0    0 -0.14706934383E+03  0.72209322813E+02 -0.40527857459E+03  0.44646206312E+03  0.90741790749E+02 0.  0.
          5    1    1    2  502    0  0.33884022950E+02 -0.73982756095E+02 -0.62966075476E+02  0.10297462926E+03  0.41800000000E+01 0. -1.
         -5    1    1    2    0  502  0.11318532088E+03  0.17734332820E+01 -0.21583932502E+03  0.24375838150E+03  0.41800000000E+01 0. -1.
        -11    1    3    3    0    0 -0.60512364367E+02  0.55685650892E+02 -0.10413430790E+03  0.13268983397E+03  0.00000000000E+00 0.  1.
         11    1    3    3    0    0 -0.86556979466E+02  0.16523671922E+02 -0.30114426669E+03  0.31377222915E+03  0.00000000000E+00 0. -1.
</event>
<event>
 7    1  0.4687179E-006  0.1756399E+03  0.7561462E-02  0.1172091E+00
          1   -1    0    0  501    0  0.00000000000E+00  0.00000000000E+00  0.67169759982E+03  0.67169759982E+03  0.00000000000E+00 0. -1.
         -1   -1    0    0    0  501 -0.00000000000E+00 -0.00000000000E+00 -0.48458397885E+02  0.48458397885E+02  0.00000000000E+00 0.  1.
         23    2    1    2    0    0 -0.18145288095E+02 -0.14284963741E+03  0.30068145754E+03  0.34542073140E+03  0.90392877949E+02 0.  0.
          5    1    1    2  502    0  0.48943662791E+02  0.14278785833E+03  0.21466190068E+03  0.26245201203E+03  0.41800000000E+01 0. -1.
         -5    1    1    2    0  502 -0.30798374696E+02  0.61779075837E-01  0.10789584372E+03  0.11228325428E+03  0.41800000000E+01 0. -1.
        -11    1    3    3    0    0 -0.50349948008E+02 -0.50153258590E+02  0.10979675494E+03  0.13078912037E+03  0.00000000000E+00 0.  1.
         11    1    3    3    0    0  0.32204659914E+02 -0.92696378816E+02  0.19088470261E+03  0.21463161104E+03  0.00000000000E+00 0. -1.
</event>
<event>
 7    1  0.4687179E-006  0.9898362E+02  0.7561462E-02  0.1282448E+00
         -2   -1    0    0    0  501 -0.00000000000E+00  0.00000000000E+00  0.42985377184E+02  0.42985377184E+02  0.00000000000E+00 0.  1.
          2   -1    0    0  501    0  0.00000000000E+00 -0.00000000000E+00 -0.36608974133E+03  0.36608974133E+03  0.00000000000E+00 0. -1.
         23    2    1    2    0    0  0.68148477632E+01 -0.58821204915E+02 -0.17949925013E+03  0.20963304742E+03  0.90662326677E+02 0.  0.
          5    1    1    2  502    0  0.17356953163E+02 -0.19952405587E+02  0.70397461460E+01  0.27683799190E+02  0.41800000000E+01 0. -1.
         -5    1    1    2    0  502 -0.24171800926E+02  0.78773610502E+02 -0.15064486016E+03  0.17175827190E+03  0.41800000000E+01 0. -1.
        -11    1    3    3    0    0 -0.22333954655E+02 -0.54910556598E+02 -0.16783237653E+03  0.17799348687E+03  0.00000000000E+00 0. -1.
         11    1    3    3    0    0  0.29148802418E+02 -0.39106483168E+01 -0.11666873600E+02  0.31639560557E+02  0.00000000000E+00 0.  1.
</event>
<event>
 7    1  0.4687179E-006  0.4644708E+03  0.7561462E-02  0.1023492E+00
         -2   -1    0    0    0  501 -0.00000000000E+00  0.00000000000E+00  0.55032067157E+03  0.55032067157E+03  0.00000000000E+00 0.  1.
          2   -1    0    0  501    0  0.00000000000E+00 -0.00000000000E+00 -0.40367345934E+03  0.40367345934E+03  0.00000000000E+00 0. -1.
         23    2    1    2    0    0 -0.61838531490E+02 -0.45274951238E+03  0.21045283490E+02  0.46641596661E+03  0.91075929979E+02 0.  0.
          5    1    1    2  502    0  0.71426892118E+02  0.45461326509E+03  0.12524572359E+03  0.47694757090E+03  0.41800000000E+01 0. -1.
         -5    1    1    2    0  502 -0.95883606279E+01 -0.18637527108E+01  0.35620514535E+00  0.10630593389E+02  0.41800000000E+01 0.  1.
        -11    1    3    3    0    0 -0.33069997435E+02 -0.34508733080E+03 -0.21011590788E+02  0.34730444506E+03  0.00000000000E+00 0. -1.
         11    1    3    3    0    0 -0.28768534055E+02 -0.10766218157E+03  0.42056874279E+02  0.11911152155E+03  0.00000000000E+00 0.  1.
</event>
<event>
 7    1  0.4687179E-006  0.1509254E+03  0.7561462E-02  0.1199341E+00
         -2   -1    0    0    0  501 -0.00000000000E+00  0.00000000000E+00  0.43627487635E+02  0.43627487635E+02  0.00000000000E+00 0. -1.
          2   -1    0    0  501    0  0.00000000000E+00 -0.00000000000E+00 -0.81356371391E+03  0.81356371391E+03  0.00000000000E+00 0.  1.
         23    2    1    2    0    0  0.13900196805E+03  0.20197708059E+02 -0.50947765734E+03  0.53591916294E+03  0.88951511165E+02 0.  0.
          5    1    1    2  502    0 -0.23293701290E+02 -0.79596852064E+01 -0.17518560040E+03  0.17695598349E+03  0.41800000000E+01 0. -1.
         -5    1    1    2    0  502 -0.11570826676E+03 -0.12238022853E+02 -0.85272968536E+02  0.14431605511E+03  0.41800000000E+01 0. -1.
        -11    1    3    3    0    0  0.30243916554E+02  0.39754473589E+02 -0.23057034320E+03  0.23591904506E+03  0.00000000000E+00 0.  1.
         11    1    3    3    0    0  0.10875805150E+03 -0.19556765530E+02 -0.27890731414E+03  0.30000011788E+03  0.00000000000E+00 0. -1.
</event>
<event>
 7    1  0.4687179E-006  0.9302114E+02  0.7561462E-02  0.1295696E+00
         -1   -1    0    0    0  501 -0.00000000000E+00  0.00000000000E+00  0.64447478478E+02  0.64447478478E+02  0.00000000000E+00 0.  1.
          1   -1    0    0  501    0  0.00000000000E+00 -0.00000000000E+00 -0.19964490352E+03  0.19964490352E+03  0.00000000000E+00 0. -1.
         23    2    1    2    0    0  0.31865847480E+02 -0.51281090574E+01 -0.70457071530E+02  0.11958778331E+03  0.91078588321E+02 0.  0.
          5    1    1    2  502    0  0.33820741981E+02  0.26934599482E+02  0.78268225100E+01  0.44136683020E+02  0.41800000000E+01 0. -1.
         -5    1    1    2    0  502 -0.65686589462E+02 -0.21806490424E+02 -0.72567176023E+02  0.10036791567E+03  0.41800000000E+01 0. -1.
        -11    1    3    3    0    0  0.29980660308E+02 -0.33429051804E+02 -0.13919198521E+01  0.44925259463E+02  0.00000000000E+00 0.  1.
         11    1    3    3    0    0  0.18851871723E+01  0.28300942746E+02 -0.69065151678E+02  0.74662523847E+02  0.00000000000E+00 0. -1.
</event>
<event>
 7    1  0.4687179E-006  0.1352741E+03  0.7561462E-02  0.1219833E+00
          2   -1    0    0  501    0  0.00000000000E+00  0.00000000000E+00  0.37402411947E+02  0.37402411947E+02  0.00000000000E+00 0. -1.
         -2   -1    0    0    0  501 -0.00000000000E+00 -0.00000000000E+00 -0.50218382002E+03  0.50218382002E+03  0.00000000000E+00 0.  1.
         23    2    1    2    0    0 -0.80377319931E+02  0.97742490307E+01 -0.16963234304E+03  0.20895649312E+03  0.91277788686E+02 0.  0.
          5    1    1    2  502    0 -0.30812580549E+02 -0.19854725904E+02 -0.83988881569E+02  0.91734562123E+02  0.41800000000E+01 0.  1.
         -5    1    1    2    0  502  0.11118990048E+03  0.10080476874E+02 -0.21116018346E+03  0.23889517673E+03  0.41800000000E+01 0.  1.
        -11    1    3    3    0    0  0.19983001213E+02 -0.47106375020E+01 -0.25735123778E+02  0.32921224750E+02  0.00000000000E+00 0.  1.
         11    1    3    3    0    0 -0.10036032114E+03  0.14484886533E+02 -0.14389721926E+03  0.17603526837E+03  0.00000000000E+00 0. -1.
</event>
<event>
 7    1  0.4687179E-006  0.1651919E+03  0.7561462E-02  0.1182957E+00
          2   -1    0    0  501    0  0.00000000000E+00  0.00000000000E+00  0.12285369490E+03  0.12285369490E+03  0.00000000000E+00 0. -1.
         -2   -1    0    0    0  501 -0.00000000000E+00 -0.00000000000E+00 -0.22700978789E+03  0.22700978789E+03  0.00000000000E+00 0.  1.
         23    2    1    2    0    0 -0.66669807839E+02 -0.10553068444E+03 -0.30404211743E+02  0.15837691423E+03  0.92613402008E+02 0.  0.
          5    1    1    2  502    0  0.53276888040E+01 -0.27692249179E+02 -0.32250650416E+01  0.28690039685E+02  0.41800000000E+01 0.  1.
         -5    1    1    2    0  502  0.61342119035E+02  0.13322293362E+03 -0.70526816206E+02  0.16279652888E+03  0.41800000000E+01 0.  1.
        -11    1    3    3    0    0 -0.81314987007E+02 -0.45131983755E+02 -0.13540111567E+02  0.93980624018E+02  0.00000000000E+00 0. -1.
         11    1    3    3    0    0  0.14645179168E+02 -0.60398700689E+02 -0.16864100176E+02  0.64396290208E+02  0.00000000000E+00 0.  1.
</event>
<event>
 7    1  0.4687179E-006  0.9870110E+02  0.7561462E-02  0.1283051E+00
          2   -1    0    0  501    0  0.00000000000E+00  0.00000000000E+00  0.96780065807E+02  0.96780065807E+02  0.00000000000E+00 0. -1.
         -2   -1    0    0    0  501 -0.00000000000E+00 -0.00000000000E+00 -0.12361603322E+03  0.12361603322E+03  0.00000000000E+00 0.  1.
         23    2    1    2    0    0  0.87554463381E+00  0.28863851256E+02  0.16017794305E+02  0.97889971175E+02  0.92151984430E+02 0.  0.
          5    1    1    2  502    0  0.43282030540E+02  0.16758791930E+02 -0.35233355101E+02  0.58421340162E+02  0.41800000000E+01 0. -1.
         -5    1    1    2    0  502 -0.44157575174E+02 -0.45622643186E+02 -0.76204066184E+01  0.64084787692E+02  0.41800000000E+01 0.  1.
        -11    1    3    3    0    0 -0.11386960400E+02  0.56130490644E+02  0.30257299078E+02  0.64774987415E+02  0.00000000000E+00 0. -1.
         11    1    3    3    0    0  0.12262505034E+02 -0.27266639388E+02 -0.14239504773E+02  0.33114983760E+02  0.00000000000E+00 0.  1.
</event>
<event>
 7    1  0.4687179E-006  0.9455107E+02  0.7561462E-02  0.1292190E+00
         -1   -1    0    0    0  501 -0.00000000000E+00  0.00000000000E+00  0.13888916468E+02  0.13888916468E+02  0.00000000000E+00 0.  1.
          1   -1    0    0  501    0  0.00000000000E+00 -0.00000000000E+00 -0.10907602823E+04  0.10907602823E+04  0.00000000000E+00 0. -1.
         23    2    1    2    0    0 -0.24066217013E+02 -0.25023923673E+02 -0.51201351274E+03  0.52506574250E+03  0.11104421264E+03 0.  0.
          5    1    1    2  502    0  0.12093260842E+02  0.46378911283E+02 -0.54671037153E+03  0.54882324396E+03  0.41800000000E+01 0.  1.
         -5    1    1    2    0  502  0.11972956171E+02 -0.21354987610E+02 -0.18147481597E+02  0.30760212347E+02  0.41800000000E+01 0.  1.
        -11    1    3    3    0    0 -0.52166734235E+02 -0.54490795936E+02 -0.31791483396E+03  0.32674218683E+03  0.00000000000E+00 0. -1.
         11    1    3    3    0    0  0.28100517222E+02  0.29466872263E+02 -0.19409867878E+03  0.19832355567E+03  0.00000000000E+00 0.  1.
</event>
<event>
 7    1  0.4687179E-006  0.1140993E+03  0.7561462E-02  0.1253162E+00
          2   -1    0    0  501    0  0.00000000000E+00  0.00000000000E+00  0.26749860411E+03  0.26749860411E+03  0.00000000000E+00 0. -1.
         -2   -1    0    0    0  501 -0.00000000000E+00 -0.00000000000E+00 -0.78583266625E+02  0.78583266625E+02  0.00000000000E+00 0.  1.
         23    2    1    2    0    0  0.28626603697E+02  0.60714214809E+02  0.16714227126E+03  0.20246134297E+03  0.92457331967E+02 0.  0.
          5    1    1    2  502    0  0.43264584589E+02  0.24375550817E+01  0.19784511144E+02  0.47819088612E+02  0.41800000000E+01 0. -1.
         -5    1    1    2    0  502 -0.71891188286E+02 -0.63151769891E+02  0.19885550819E+01  0.95801439158E+02  0.41800000000E+01 0. -1.
        -11    1    3    3    0    0  0.45291151618E+02  0.55040922679E+02  0.17026456063E+03  0.18458280578E+03  0.00000000000E+00 0. -1.
         11    1    3    3    0    0 -0.16664547921E+02  0.56732921302E+01 -0.31222893667E+01  0.17878537186E+02  0.00000000000E+00 0.  1.
</event>
<event>
 7    1  0.4687179E-006  0.1411659E+03  0.7561462E-02  0.1211769E+00
         -2   -1    0    0    0  501 -0.00000000000E+00  0.00000000000E+00  0.16231071332E+03  0.16231071332E+03  0.00000000000E+00 0.  1.
          2   -1    0    0  501    0  0.00000000000E+00 -0.00000000000E+00 -0.14480667652E+03  0.14480667652E+03  0.00000000000E+00 0. -1.
         23    2    1    2    0    0  0.79200493874E+02 -0.49344339622E+01 -0.39876002278E+02  0.14825689518E+03  0.11871370831E+03 0.  0.
          5    1    1    2  502    0  0.22327418853E+02  0.35190975251E+02  0.20253026083E+02  0.46525002281E+02  0.41800000000E+01 0. -1.
         -5    1    1    2    0  502 -0.10152791273E+03 -0.30256541288E+02  0.37127012998E+02  0.11233549238E+03  0.41800000000E+01 0. -1.
        -11    1    3    3    0    0 -0.23320924712E+02 -0.20098685386E+02 -0.31869464932E+02  0.44311234227E+02  0.00000000000E+00 0.  1.
         11    1    3    3    0    0  0.10252141859E+03  0.15164251424E+02 -0.80065373461E+01  0.10394566095E+03  0.00000000000E+00 0. -1.
</event>
<event>
 7    1  0.4687179E-006  0.2490442E+03  0.7561462E-02  0.1113910E+00
          2   -1    0    0  501    0  0.00000000000E+00  0.00000000000E+00  0.18575652768E+04  0.18575652768E+04  0.00000000000E+00 0. -1.
         -2   -1    0    0    0  501 -0.00000000000E+00 -0.00000000000E+00 -0.42074363610E+02  0.42074363610E+02  0.00000000000E+00 0.  1.
         23    2    1    2    0    0  0.22353976309E+03  0.66717893444E+02  0.12539934099E+04  0.12788738272E+04  0.92722656246E+02 0.  0.
          5    1    1    2  502    0 -0.23303183792E+03 -0.77523351191E+02  0.54830157606E+03  0.60080429274E+03  0.41800000000E+01 0. -1.
         -5    1    1    2    0  502  0.94920748298E+01  0.10805457746E+02  0.13195927230E+02  0.19961520411E+02  0.41800000000E+01 0. -1.
        -11    1    3    3    0    0  0.44028177638E+02 -0.47246311085E+01  0.10828519792E+03  0.11698925871E+03  0.00000000000E+00 0.  1.
         11    1    3    3    0    0  0.17951158546E+03  0.71442524553E+02  0.11457082119E+04  0.11618845685E+04  0.00000000000E+00 0. -1.
</event>
<event>
 7    1  0.4687179E-006  0.1851717E+03  0.7561462E-02  0.1162890E+00
         -2   -1    0    0    0  501 -0.00000000000E+00  0.00000000000E+00  0.81575901452E+03  0.81575901452E+03  0.00000000000E+00 0.  1.
          2   -1    0    0  501    0  0.00000000000E+00 -0.00000000000E+00 -0.45395415875E+02  0.45395415875E+02  0.00000000000E+00 0. -1.
         23    2    1    2    0    0  0.15303867694E+03  0.16727362383E+02  0.27651077485E+03  0.32895224491E+03  0.89725857685E+02 0.  0.
          5    1    1    2  502    0  0.16100644566E+02  0.15450504227E+02  0.31611389938E+02  0.38919162506E+02  0.41800000000E+01 0. -1.
         -5    1    1    2    0  502 -0.16913932150E+03 -0.32177866610E+02  0.46224143387E+03  0.49328302298E+03  0.41800000000E+01 0. -1.
        -11    1    3    3    0    0  0.12671526581E+03 -0.21979337122E+02  0.17505900424E+03  0.21722224752E+03  0.00000000000E+00 0.  1.
         11    1    3    3    0    0  0.26323411127E+02  0.38706699505E+02  0.10145177060E+03  0.11172999740E+03  0.00000000000E+00 0. -1.
</event>
<event>
 7    1  0.4687179E-006  0.1082009E+03  0.7561462E-02  0.1263938E+00
         -2   -1    0    0    0  501 -0.00000000000E+00  0.00000000000E+00  0.23883105988E+02  0.23883105988E+02  0.00000000000E+00 0.  1.
          2   -1    0    0  501    0  0.00000000000E+00 -0.00000000000E+00 -0.57824492177E+03  0.57824492177E+03  0.00000000000E+00 0. -1.
         23    2    1    2    0    0 -0.87834176665E+01  0.79940961602E+01 -0.35001791232E+03  0.36225822346E+03  0.92614402312E+02 0.  0.
          5    1    1    2  502    0 -0.56686171904E+02 -0.96728714143E+01 -0.11881335385E+03  0.13206427216E+03  0.41800000000E+01 0. -1.
         -5    1    1    2    0  502  0.65469589571E+02  0.16787752542E+01 -0.85530549604E+02  0.10780553214E+03  0.41800000000E+01 0. -1.
        -11    1    3    3    0    0  0.41994716054E+02  0.40234434068E+01 -0.14540337524E+03  0.15139975497E+03  0.00000000000E+00 0.  1.
         11    1    3    3    0    0 -0.50778133721E+02  0.39706527534E+01 -0.20461453708E+03  0.21085846849E+03  0.00000000000E+00 0. -1.
</event>
<event>
 7    1  0.4687179E-006  0.7730550E+02  0.7561462E-02  0.1336877E+00
          1   -1    0    0  501    0  0.00000000000E+00  0.00000000000E+00  0.13402883492E+02  0.13402883492E+02  0.00000000000E+00 0. -1.
         -1   -1    0    0    0  501 -0.00000000000E+00 -0.00000000000E+00 -0.11682913888E+04  0.11682913888E+04  0.00000000000E+00 0.  1.
         23    2    1    2    0    0  0.26218341658E+02  0.42287997996E+02 -0.33516951812E+03  0.35099373406E+03  0.91555006715E+02 0.  0.
          5    1    1    2  502    0 -0.28034264516E+02 -0.19708039112E+02 -0.50705057992E+02  0.61341683206E+02  0.41800000000E+01 0.  1.
         -5    1    1    2    0  502  0.18159228588E+01 -0.22579958884E+02 -0.76901392920E+03  0.76935885504E+03  0.41800000000E+01 0.  1.
        -11    1    3    3    0    0  0.55259610475E+01  0.65628693472E+02 -0.15927435220E+03  0.17235423093E+03  0.00000000000E+00 0. -1.
         11    1    3    3    0    0  0.20692380610E+02 -0.23340695476E+02 -0.17589516592E+03  0.17863950312E+03  0.00000000000E+00 0.  1.
</event>
<event>
 7    1  0.4687179E-006  0.2405644E+03  0.7561462E-02  0.1119417E+00
          1   -1    0    0  501    0  0.00000000000E+00  0.00000000000E+00  0.68800301104E+03  0.68800301104E+03  0.00000000000E+00 0. -1.
         -1   -1    0    0    0  501 -0.00000000000E+00 -0.00000000000E+00 -0.95890621691E+02  0.95890621691E+02  0.00000000000E+00 0.  1.
         23    2    1    2    0    0  0.75425066119E+02  0.21035592491E+03  0.38429038667E+03  0.45408042117E+03  0.92581703721E+02 0.  0.
          5    1    1    2  502    0 -0.94989942763E+02 -0.17011342161E+03  0.11398422934E+03  0.22576878078E+03  0.41800000000E+01 0.  1.
         -5    1    1    2    0  502  0.19564876644E+02 -0.40242503292E+02  0.93837773346E+02  0.10404443078E+03  0.41800000000E+01 0.  1.
        -11    1    3    3    0    0  0.95246221335E+02  0.14913131542E+03  0.26742861480E+03  0.32067125835E+03  0.00000000000E+00 0. -1.
         11    1    3    3    0    0 -0.19821155216E+02  0.61224609485E+02  0.11686177187E+03  0.13340916282E+03  0.00000000000E+00 0.  1.
</event>
<event>
 7    1  0.4687179E-006  0.3518343E+03  0.7561462E-02  0.1061865E+00
         -2   -1    0    0    0  501 -0.00000000000E+00  0.00000000000E+00  0.59012134652E+02  0.59012134652E+02  0.00000000000E+00 0.  1.
          2   -1    0    0  501    0  0.00000000000E+00 -0.00000000000E+00 -0.21651156809E+04  0.21651156809E+04  0.00000000000E+00 0. -1.
         23    2    1    2    0    0 -0.34000033498E+03  0.12417969469E+02 -0.10699188340E+04  0.11263676119E+04  0.90682147463E+02 0.  0.
          5    1    1    2  502    0  0.86611440456E+02  0.51840035010E+02 -0.29396578872E+03  0.31084125882E+03  0.41800000000E+01 0. -1.
         -5    1    1    2    0  502  0.25338889453E+03 -0.64258004478E+02 -0.74221892354E+03  0.78691894491E+03  0.41800000000E+01 0. -1.
        -11    1    3    3    0    0 -0.70447779745E+02 -0.78579595902E+01 -0.35596983439E+03  0.36295889601E+03  0.00000000000E+00 0. -1.
         11    1    3    3    0    0 -0.26955255524E+03  0.20275929059E+02 -0.71394899964E+03  0.76340871584E+03  0.00000000000E+00 0.  1.
</event>
<event>
 7    1  0.4687179E-006  0.1235587E+03  0.7561462E-02  0.1237339E+00
         -2   -1    0    0    0  501 -0.00000000000E+00  0.00000000000E+00  0.87420853094E+02  0.87420853094E+02  0.00000000000E+00 0.  1.
          2   -1    0    0  501    0  0.00000000000E+00 -0.00000000000E+00 -0.27602712755E+03  0.27602712755E+03  0.00000000000E+00 0. -1.
         23    2    1    2    0    0 -0.70839350543E+02 -0.58348487348E+02 -0.16106552303E+03  0.20587734731E+03  0.89557913476E+02 0.  0.
          5    1    1    2  502    0 -0.97892831139E+01  0.70476279230E+02  0.40746503698E+00  0.71276745336E+02  0.41800000000E+01 0. -1.
         -5    1    1    2    0  502  0.80628633657E+02 -0.12127791882E+02 -0.27948216458E+02  0.86293887991E+02  0.41800000000E+01 0. -1.
        -11    1    3    3    0    0 -0.39572346386E+02 -0.18877385785E+02 -0.14728311554E+03  0.15367056458E+03  0.00000000000E+00 0. -1.
         11    1    3    3    0    0 -0.31267004158E+02 -0.39471101563E+02 -0.13782407486E+02  0.52206782737E+02  0.00000000000E+00 0.  1.
</event>
<event>
 7    1  0.4687179E-006  0.1500482E+03  0.7561462E-02  0.1200414E+00
         -1   -1    0    0    0  501 -0.00000000000E+00  0.00000000000E+00  0.20196312734E+02  0.20196312734E+02  0.00000000000E+00 0.  1.
          1   -1    0    0  501    0  0.00000000000E+00 -0.00000000000E+00 -0.14167343502E+04  0.14167343502E+04  0.00000000000E+00 0. -1.
         23    2    1    2    0    0 -0.42707065939E+02 -0.12097273624E+03 -0.57806824153E+03  0.59907721818E+03  0.90952323151E+02 0.  0.
          5    1    1    2  502    0  0.31589347880E+02 -0.18807375713E+01 -0.48551393297E+02  0.58104511567E+02  0.41800000000E+01 0.  1.
         -5    1    1    2    0  502  0.11117718059E+02  0.12285347381E+03 -0.76991840269E+03  0.77974893323E+03  0.41800000000E+01 0.  1.
        -11    1    3    3    0    0 -0.58469317814E+02 -0.11266270369E+03 -0.55793450841E+03  0.57219093108E+03  0.00000000000E+00 0.  1.
         11    1    3    3    0    0  0.15762251875E+02 -0.83100325500E+01 -0.20133733116E+02  0.26886287106E+02  0.00000000000E+00 0. -1.
</event>
<event>
 7    1  0.4687179E-006  0.7005199E+02  0.7561462E-02  0.1359916E+00
          2   -1    0    0  501    0  0.00000000000E+00  0.00000000000E+00  0.32974442550E+03  0.32974442550E+03  0.00000000000E+00 0.  1.
         -2   -1    0    0    0  501 -0.00000000000E+00 -0.00000000000E+00 -0.45916892302E+02  0.45916892302E+02  0.00000000000E+00 0. -1.
         23    2    1    2    0    0 -0.46181694516E+02 -0.35270369471E+02  0.11705392425E+03  0.15930970102E+03  0.91110986091E+02 0.  0.
          5    1    1    2  502    0  0.42521983966E+02  0.37786927726E+02  0.81587228996E+01  0.57619512205E+02  0.41800000000E+01 0.  1.
         -5    1    1    2    0  502  0.36597105497E+01 -0.25165582550E+01  0.15861488605E+03  0.15873210457E+03  0.41800000000E+01 0.  1.
        -11    1    3    3    0    0 -0.40656730217E+01  0.12580185424E+02 -0.10388521185E+02  0.16814045760E+02  0.00000000000E+00 0. -1.
         11    1    3    3    0    0 -0.42116021494E+02 -0.47850554895E+02  0.12744244543E+03  0.14249565526E+03  0.00000000000E+00 0.  1.
</event>
<event>
 7    1  0.4687179E-006  0.1630362E+03  0.7561462E-02  0.1185311E+00
          1   -1    0    0  501    0  0.00000000000E+00  0.00000000000E+00  0.11110748917E+04  0.11110748917E+04  0.00000000000E+00 0. -1.
         -1   -1    0    0    0  501 -0.00000000000E+00 -0.00000000000E+00 -0.28381983915E+02  0.28381983915E+02  0.00000000000E+00 0.  1.
         23    2    1    2    0    0  0.12090464549E+03  0.61652482882E+02  0.64040419809E+03  0.66020163003E+03  0.85613628694E+02 0.  0.
          5    1    1    2  502    0 -0.86106928858E+02  0.90641590973E+01  0.33518499839E+03  0.34621238817E+03  0.41800000000E+01 0. -1.
         -5    1    1    2    0  502 -0.34797716627E+02 -0.70716641979E+02  0.10710371134E+03  0.13304285745E+03  0.41800000000E+01 0. -1.
        -11    1    3    3    0    0  0.11438194862E+03  0.17358120693E+02  0.46227389346E+03  0.47653088788E+03  0.00000000000E+00 0.  1.
         11    1    3    3    0    0  0.65226968612E+01  0.44294362189E+02  0.17813030462E+03  0.18367074215E+03  0.00000000000E+00 0. -1.
</event>
<event>
 7    1  0.4687179E-006  0.2948988E+03  0.7561462E-02  0.1087819E+00
         -1   -1    0    0    0  501 -0.00000000000E+00  0.00000000000E+00  0.32922165384E+03  0.32922165384E+03  0.00000000000E+00 0.  1.
          1   -1    0    0  501    0  0.00000000000E+00 -0.00000000000E+00 -0.39592161861E+03  0.39592161861E+03  0.00000000000E+00 0. -1.
         23    2    1    2    0    0  0.87359421739E+02 -0.27168379926E+03 -0.22620023970E+03  0.37509849622E+03  0.89936522515E+02 0.  0.
          5    1    1    2  502    0 -0.91942378963E+02  0.20785921521E+03  0.66080197453E+02  0.23673385751E+03  0.41800000000E+01 0.  1.
         -5    1    1    2    0  502  0.45829572244E+01  0.63824584053E+02  0.93420077470E+02  0.11331091872E+03  0.41800000000E+01 0.  1.
        -11    1    3    3    0    0  0.99693247528E+02 -0.17936125585E+03 -0.16859736566E+03  0.26558289744E+03  0.00000000000E+00 0. -1.
         11    1    3    3    0    0 -0.12333825790E+02 -0.92322543404E+02 -0.57602874033E+02  0.10951559878E+03  0.00000000000E+00 0.  1.
</event>
<event>
 7    1  0.4687179E-006  0.1243342E+03  0.7561462E-02  0.1236113E+00
         -3   -1    0    0    0  501 -0.00000000000E+00  0.00000000000E+00  0.60743265533E+02  0.60743265533E+02  0.00000000000E+00 0.  1.
          3   -1    0    0  501    0  0.00000000000E+00 -0.00000000000E+00 -0.30121799455E+03  0.30121799455E+03  0.00000000000E+00 0. -1.
         23    2    1    2    0    0 -0.68885925484E+02  0.37562479769E+02 -0.13393981750E+03  0.17988038678E+03  0.90889318512E+02 0.  0.
          5    1    1    2  502    0  0.70123518371E+02  0.28334123272E+02 -0.31263373022E+02  0.81945111282E+02  0.41800000000E+01 0.  1.
         -5    1    1    2    0  502 -0.12375928877E+01 -0.65896603041E+02 -0.75271538502E+02  0.10013576203E+03  0.41800000000E+01 0.  1.
        -11    1    3    3    0    0 -0.43505283482E+02  0.59242705588E+02 -0.48261502744E+02  0.87929406363E+02  0.00000000000E+00 0.  1.
         11    1    3    3    0    0 -0.25380642002E+02 -0.21680225819E+02 -0.85678314754E+02  0.91950980414E+02  0.00000000000E+00 0. -1.
</event>
<event>
 7    1  0.4687179E-006  0.1261639E+03  0.7561462E-02  0.1233262E+00
          1   -1    0    0  501    0  0.00000000000E+00  0.00000000000E+00  0.31768560065E+03  0.31768560065E+03  0.00000000000E+00 0. -1.
         -1   -1    0    0    0  501 -0.00000000000E+00 -0.00000000000E+00 -0.84523365961E+02  0.84523365961E+02  0.00000000000E+00 0.  1.
         23    2    1    2    0    0  0.27619779410E+02  0.92749690213E+02  0.19967402086E+03  0.24054882275E+03  0.92890603769E+02 0.  0.
          5    1    1    2  502    0 -0.28659376982E+02  0.21572445470E+02  0.30415687416E+02  0.47215640773E+02  0.41800000000E+01 0.  1.
         -5    1    1    2    0  502  0.10395975726E+01 -0.11432213568E+03  0.30725264152E+01  0.11444450310E+03  0.41800000000E+01 0.  1.
        -11    1    3    3    0    0 -0.68739543985E+01  0.22880091703E+02  0.14099570535E+03  0.14300538022E+03  0.00000000000E+00 0. -1.
         11    1    3    3    0    0  0.34493733808E+02  0.69869598510E+02  0.58678315509E+02  0.97543442521E+02  0.00000000000E+00 0.  1.
</event>
<event>
 7    1  0.4687179E-006  0.1401126E+03  0.7561462E-02  0.1213177E+00
          2   -1    0    0  501    0  0.00000000000E+00  0.00000000000E+00  0.12656574466E+03  0.12656574466E+03  0.00000000000E+00 0. -1.
         -2   -1    0    0    0  501 -0.00000000000E+00 -0.00000000000E+00 -0.18762415596E+03  0.18762415596E+03  0.00000000000E+00 0.  1.
         23    2    1    2    0    0  0.10897449525E+02  0.10551619357E+03 -0.12878300957E+01  0.13962508140E+03  0.90780412748E+02 0.  0.
          5    1    1    2  502    0  0.53338575504E+02 -0.21494091025E+02 -0.14566331571E+02  0.59469740215E+02  0.41800000000E+01 0.  1.
         -5    1    1    2    0  502 -0.64236025029E+02 -0.84022102545E+02 -0.45204249633E+02  0.11509507901E+03  0.41800000000E+01 0.  1.
        -11    1    3    3    0    0 -0.19082634735E+02  0.51821508498E+02 -0.38889925966E+02  0.67542890322E+02  0.00000000000E+00 0.  1.
         11    1    3    3    0    0  0.29980084260E+02  0.53694685072E+02  0.37602095870E+02  0.72082191081E+02  0.00000000000E+00 0. -1.
</event>
<event>
 7    1  0.4687179E-006  0.7650641E+02  0.7561462E-02  0.1339269E+00
         -1   -1    0    0    0  501 -0.00000000000E+00  0.00000000000E+00  0.24273335713E+03  0.24273335713E+03  0.00000000000E+00 0.  1.
          1   -1    0    0  501    0  0.00000000000E+00 -0.00000000000E+00 -0.52320074450E+02  0.52320074450E+02  0.00000000000E+00 0. -1.
         23    2    1    2    0    0 -0.69573369258E+01 -0.34091005303E+02  0.77286696955E+02  0.12283898938E+03  0.88913343239E+02 0.  0.
          5    1    1    2  502    0  0.85279021847E+01 -0.26525414037E+02 -0.13884095478E+02  0.31409603830E+02  0.41800000000E+01 0.  1.
         -5    1    1    2    0  502 -0.15705652589E+01  0.60616419340E+02  0.12701068120E+03  0.14080483837E+03  0.41800000000E+01 0.  1.
        -11    1    3    3    0    0  0.22509165612E+02 -0.24018383394E+02 -0.64111611696E+01  0.33535775895E+02  0.00000000000E+00 0. -1.
         11    1    3    3    0    0 -0.29466502537E+02 -0.10072621909E+02  0.83697858125E+02  0.89303213484E+02  0.00000000000E+00 0.  1.
</event>
<event>
 7    1  0.4687179E-006  0.3305392E+03  0.7561462E-02  0.1070899E+00
          2   -1    0    0  501    0  0.00000000000E+00  0.00000000000E+00  0.77654774104E+03  0.77654774104E+03  0.00000000000E+00 0. -1.
         -2   -1    0    0    0  501 -0.00000000000E+00 -0.00000000000E+00 -0.15824810750E+03  0.15824810750E+03  0.00000000000E+00 0.  1.
         23    2    1    2    0    0  0.83911437611E+02 -0.31748296261E+03  0.37760607738E+03  0.50886243349E+03  0.92293367229E+02 0.  0.
          5    1    1    2  502    0  0.44470576433E+01  0.49131771930E+01 -0.12031505097E+02  0.14357755629E+02  0.41800000000E+01 0. -1.
         -5    1    1    2    0  502 -0.88358495255E+02  0.31256978542E+03  0.25272506125E+03  0.41157565942E+03  0.41800000000E+01 0. -1.
        -11    1    3    3    0    0  0.71680121045E+02 -0.26702811742E+03  0.25667617523E+03  0.37725947858E+03  0.00000000000E+00 0.  1.
         11    1    3    3    0    0  0.12231316566E+02 -0.50454845191E+02  0.12092990215E+03  0.13160295491E+03  0.00000000000E+00 0. -1.
</event>
<event>
 7    1  0.4687179E-006  0.1138946E+03  0.7561462E-02  0.1253523E+00
         -1   -1    0    0    0  501 -0.00000000000E+00  0.00000000000E+00  0.33817740246E+03  0.33817740246E+03  0.00000000000E+00 0.  1.
          1   -1    0    0  501    0  0.00000000000E+00 -0.00000000000E+00 -0.71939036598E+02  0.71939036598E+02  0.00000000000E+00 0. -1.
         23    2    1    2    0    0 -0.72918710834E+02  0.64048798684E+02  0.58222476604E+02  0.14870251209E+03  0.96453062761E+02 0.  0.
          5    1    1    2  502    0  0.45649570673E+02 -0.14220116101E+02  0.19781180107E+03  0.20355116322E+03  0.41800000000E+01 0.  1.
         -5    1    1    2    0  502  0.27269140161E+02 -0.49828682583E+02  0.10204088181E+02  0.57862763749E+02  0.41800000000E+01 0.  1.
        -11    1    3    3    0    0 -0.59921086458E+01 -0.16826574524E+02 -0.12785494306E+02  0.21966061114E+02  0.00000000000E+00 0. -1.
         11    1    3    3    0    0 -0.66926602188E+02  0.80875373207E+02  0.71007970910E+02  0.12673645097E+03  0.00000000000E+00 0.  1.
</event>
<event>
 7    1  0.4687179E-006  0.8723097E+02  0.7561462E-02  0.1309699E+00
          1   -1    0    0  501    0  0.00000000000E+00  0.00000000000E+00  0.30488552315E+03  0.30488552315E+03  0.00000000000E+00 0. -1.
         -1   -1    0    0    0  501 -0.00000000000E+00 -0.00000000000E+00 -0.41603662757E+02  0.41603662757E+02  0.00000000000E+00 0.  1.
         23    2    1    2    0    0 -0.26974806720E+01 -0.90721977229E+01  0.15600859628E+03  0.18142923049E+03  0.92131983515E+02 0.  0.
          5    1    1    2  502    0 -0.93308641104E+01 -0.44815458177E+02  0.18789387919E+01  0.46005359771E+02  0.41800000000E+01 0.  1.
         -5    1    1    2    0  502  0.12028344782E+02  0.53887655900E+02  0.10539432532E+03  0.11905459565E+03  0.41800000000E+01 0.  1.
        -11    1    3    3    0    0 -0.29388253864E+02 -0.27850503678E+02  0.27753896849E+02  0.49087664546E+02  0.00000000000E+00 0.  1.
         11    1    3    3    0    0  0.26690773192E+02  0.18778305955E+02  0.12825469944E+03  0.13234156594E+03  0.00000000000E+00 0. -1.
</event>
<event>
 7    1  0.4687179E-006  0.1153612E+03  0.7561462E-02  0.1250952E+00
         -1   -1    0    0    0  501 -0.00000000000E+00  0.00000000000E+00  0.24959958272E+02  0.24959958272E+02  0.00000000000E+00 0.  1.
          1   -1    0    0  501    0  0.00000000000E+00 -0.00000000000E+00 -0.86187880721E+03  0.86187880721E+03  0.00000000000E+00 0. -1.
         23    2    1    2    0    0  0.65806611773E+02  0.13192960294E+02 -0.59795556340E+03  0.60889049882E+03  0.93232072856E+02 0.  0.
          5    1    1    2  502    0 -0.49452812006E+02  0.37806107366E+02 -0.45641221900E+02  0.77301202488E+02  0.41800000000E+01 0. -1.
         -5    1    1    2    0  502 -0.16353799767E+02 -0.50999067660E+02 -0.19332206364E+03  0.20064706417E+03  0.41800000000E+01 0. -1.
        -11    1    3    3    0    0 -0.20749963686E+02  0.18630553022E+02 -0.12849056817E+03  0.13148187939E+03  0.00000000000E+00 0. -1.
         11    1    3    3    0    0  0.86556575459E+02 -0.54375927282E+01 -0.46946499522E+03  0.47740861943E+03  0.00000000000E+00 0.  1.
</event>
<event>
 7    1  0.4687179E-006  0.9537561E+02  0.7561462E-02  0.1290332E+00
         -3   -1    0    0    0  501 -0.00000000000E+00  0.00000000000E+00  0.53558528520E+02  0.53558528520E+02  0.00000000000E+00 0.  1.
          3   -1    0    0  501    0  0.00000000000E+00 -0.00000000000E+00 -0.21297545915E+03  0.21297545915E+03  0.00000000000E+00 0. -1.
         23    2    1    2    0    0  0.10980947421E+02 -0.49821117453E+01 -0.10324868610E+03  0.13800046356E+03  0.90765820204E+02 0.  0.
          5    1    1    2  502    0 -0.29404857806E+02 -0.44161769595E+02 -0.23909860163E+01  0.53273790653E+02  0.41800000000E+01 0. -1.
         -5    1    1    2    0  502  0.18423910385E+02  0.49143881341E+02 -0.53777258521E+02  0.75259733464E+02  0.41800000000E+01 0.  1.
        -11    1    3    3    0    0  0.14178751665E+02 -0.43745502819E+02 -0.81128680977E+02  0.93255396052E+02  0.00000000000E+00 0. -1.
         11    1    3    3    0    0 -0.31978042440E+01  0.38763391074E+02 -0.22120005121E+02  0.44745067505E+02  0.00000000000E+00 0.  1.
</event>
<event>
 7    1  0.4687179E-006  0.1610610E+03  0.7561462E-02  0.1187504E+00
          1   -1    0    0  501    0  0.00000000000E+00  0.00000000000E+00  0.41446577128E+03  0.41446577128E+03  0.00000000000E+00 0. -1.
         -1   -1    0    0    0  501 -0.00000000000E+00 -0.00000000000E+00 -0.90527274278E+02  0.90527274278E+02  0.00000000000E+00 0.  1.
         23    2    1    2    0    0  0.47395022907E+02  0.15223584419E+03  0.17284689081E+03  0.25222279184E+03  0.91204433061E+02 0.  0.
          5    1    1    2  502    0 -0.25398515658E+02 -0.12398653742E+03  0.17006810661E+03  0.21203391084E+03  0.41800000000E+01 0.  1.
         -5    1    1    2    0  502 -0.21996507249E+02 -0.28249306762E+02 -0.18976500411E+02  0.40736342884E+02  0.41800000000E+01 0.  1.
        -11    1    3    3    0    0  0.41883596037E+02  0.13548112991E+03  0.18327661093E+03  0.23173193196E+03  0.00000000000E+00 0.  1.
         11    1    3    3    0    0  0.55114268703E+01  0.16754714273E+02 -0.10429720121E+02  0.20490859873E+02  0.00000000000E+00 0. -1.
</event>
<event>
 7    1  0.4687179E-006  0.1572740E+03  0.7561462E-02  0.1191809E+00
         -1   -1    0    0    0  501 -0.00000000000E+00  0.00000000000E+00  0.37837998632E+03  0.37837998632E+03  0.00000000000E+00 0.  1.
          1   -1    0    0  501    0  0.00000000000E+00 -0.00000000000E+00 -0.86049105666E+02  0.86049105666E+02  0.00000000000E+00 0. -1.
         23    2    1    2    0    0 -0.72904091660E+02  0.12243854327E+03  0.12248778854E+03  0.20986783066E+03  0.93461460211E+02 0.  0.
          5    1    1    2  502    0  0.66944016523E+02 -0.96978366634E+02  0.43831478746E+02  0.12579736036E+03  0.41800000000E+01 0. -1.
         -5    1    1    2    0  502  0.59600751372E+01 -0.25460176636E+02  0.12601161336E+03  0.12876390097E+03  0.41800000000E+01 0. -1.
        -11    1    3    3    0    0 -0.55574595247E+02  0.10098670900E+02  0.35249367464E+02  0.66581053592E+02  0.00000000000E+00 0.  1.
         11    1    3    3    0    0 -0.17329496413E+02  0.11233987237E+03  0.87238421076E+02  0.14328677707E+03  0.00000000000E+00 0. -1.
</event>
<event>
 7    1  0.4687179E-006  0.1068076E+03  0.7561462E-02  0.1266599E+00
         -2   -1    0    0    0  501 -0.00000000000E+00  0.00000000000E+00  0.34719008595E+02  0.34719008595E+02  0.00000000000E+00 0.  1.
          2   -1    0    0  501    0  0.00000000000E+00 -0.00000000000E+00 -0.53512839411E+03  0.53512839411E+03  0.00000000000E+00 0. -1.
         23    2    1    2    0    0  0.70610291608E+02  0.36504497099E+02 -0.27245079269E+03  0.29794556465E+03  0.90684802862E+02 0.  0.
          5    1    1    2  502    0 -0.41935113543E+02 -0.49407012453E+02 -0.23107662989E+03  0.24002809816E+03  0.41800000000E+01 0.  1.
         -5    1    1    2    0  502 -0.28675178065E+02  0.12902515353E+02  0.31180370602E+01  0.31873739891E+02  0.41800000000E+01 0.  1.
        -11    1    3    3    0    0  0.15434255984E+02 -0.28060855765E+02 -0.45640378350E+02  0.55755466279E+02  0.00000000000E+00 0.  1.
         11    1    3    3    0    0  0.55176035624E+02  0.64565352865E+02 -0.22681041434E+03  0.24219009837E+03  0.00000000000E+00 0. -1.
</event>
<event>
 7    1  0.4687179E-006  0.1035788E+03  0.7561462E-02  0.1272945E+00
          2   -1    0    0  501    0  0.00000000000E+00  0.00000000000E+00  0.68347804892E+02  0.68347804892E+02  0.00000000000E+00 0. -1.
         -2   -1    0    0    0  501 -0.00000000000E+00 -0.00000000000E+00 -0.19820335805E+03  0.19820335805E+03  0.00000000000E+00 0.  1.
         23    2    1    2    0    0  0.15350856255E+02  0.46231148520E+02 -0.33370646480E+02  0.11016767724E+03  0.93007253374E+02 0.  0.
          5    1    1    2  502    0  0.46379932012E+01  0.34364536849E+02 -0.50410560426E+02  0.61328047224E+02  0.41800000000E+01 0. -1.
         -5    1    1    2    0  502 -0.19988849456E+02 -0.80595685369E+02 -0.46074346257E+02  0.95055438486E+02  0.41800000000E+01 0.  1.
        -11    1    3    3    0    0  0.44305487116E+02  0.15686237120E+02  0.11768517912E+02  0.48451338861E+02  0.00000000000E+00 0. -1.
         11    1    3    3    0    0 -0.28954630860E+02  0.30544911400E+02 -0.45139164392E+02  0.61716338377E+02  0.00000000000E+00 0.  1.
</event>
<event>
 7    1  0.4687179E-006  0.2363350E+03  0.7561462E-02  0.1122259E+00
         -3   -1    0    0    0  501 -0.00000000000E+00  0.00000000000E+00  0.18092164374E+03  0.18092164374E+03  0.00000000000E+00 0.  1.
          3   -1    0    0  501    0  0.00000000000E+00 -0.00000000000E+00 -0.34630884501E+03  0.34630884501E+03  0.00000000000E+00 0. -1.
         23    2    1    2    0    0 -0.18873250001E+03  0.10500210062E+03 -0.14656917692E+03  0.27648483041E+03  0.91191776652E+02 0.  0.
          5    1    1    2  502    0  0.97491402589E+02 -0.12290548176E+03 -0.13724308671E+02  0.15753145741E+03  0.41800000000E+01 0.  1.
         -5    1    1    2    0  502  0.91241097425E+02  0.17903381148E+02 -0.50937156847E+01  0.93214200931E+02  0.41800000000E+01 0.  1.
        -11    1    3    3    0    0 -0.14310669792E+03  0.50898027694E+02 -0.56776507076E+02  0.16215334708E+03  0.00000000000E+00 0.  1.
         11    1    3    3    0    0 -0.45625802093E+02  0.54104072922E+02 -0.89792669843E+02  0.11433148333E+03  0.00000000000E+00 0. -1.
</event>
<event>
 7    1  0.4687179E-006  0.1118926E+03  0.7561462E-02  0.1257105E+00
          1   -1    0    0  501    0  0.00000000000E+00  0.00000000000E+00  0.13069359426E+03  0.13069359426E+03  0.00000000000E+00 0. -1.
         -1   -1    0    0    0  501 -0.00000000000E+00 -0.00000000000E+00 -0.12081398736E+03  0.12081398736E+03  0.00000000000E+00 0.  1.
         23    2    1    2    0    0 -0.20006699151E+02 -0.59790931649E+02  0.53429309489E+01  0.11135385700E+03  0.91629204077E+02 0.  0.
          5    1    1    2  502    0 -0.35596842080E+02  0.56423756968E+02  0.36121977446E+02  0.75980557850E+02  0.41800000000E+01 0.  1.
         -5    1    1    2    0  502  0.55603541231E+02  0.33671746809E+01 -0.31585301496E+02  0.64173166771E+02  0.41800000000E+01 0.  1.
        -11    1    3    3    0    0 -0.10067290872E+02 -0.78899474792E+02 -0.15887680349E+02  0.81110393014E+02  0.00000000000E+00 0.  1.
         11    1    3    3    0    0 -0.99394082786E+01  0.19108543143E+02  0.21230611298E+02  0.30243463989E+02  0.00000000000E+00 0. -1.
</event>
<event>
 7    1  0.4687179E-006  0.1862564E+03  0.7561462E-02  0.1161882E+00
         -1   -1    0    0    0  501 -0.00000000000E+00  0.00000000000E+00  0.59351372887E+02  0.59351372887E+02  0.00000000000E+00 0.  1.
          1   -1    0    0  501    0  0.00000000000E+00 -0.00000000000E+00 -0.76441447474E+03  0.76441447474E+03  0.00000000000E+00 0. -1.
         23    2    1    2    0    0 -0.12549776186E+03  0.12243342706E+03 -0.44430701367E+03  0.48556345649E+03  0.87312745857E+02 0.  0.
          5    1    1    2  502    0  0.13941555965E+02  0.10466173005E+02  0.68900101583E+01  0.19205530455E+02  0.41800000000E+01 0.  1.
         -5    1    1    2    0  502  0.11155620589E+03 -0.13289960006E+03 -0.26764609834E+03  0.31899686068E+03  0.41800000000E+01 0.  1.
        -11    1    3    3    0    0 -0.80499086201E+02  0.10603118249E+03 -0.39497204412E+03  0.41680406689E+03  0.00000000000E+00 0. -1.
         11    1    3    3    0    0 -0.44998675654E+02  0.16402244570E+02 -0.49334969548E+02  0.68759389598E+02  0.00000000000E+00 0.  1.
</event>
<event>
 7    1  0.4687179E-006  0.1100418E+03  0.7561462E-02  0.1260493E+00
          2   -1    0    0  501    0  0.00000000000E+00  0.00000000000E+00  0.20347725167E+03  0.20347725167E+03  0.00000000000E+00 0.  1.
         -2   -1    0    0    0  501 -0.00000000000E+00 -0.00000000000E+00 -0.83216098336E+02  0.83216098336E+02  0.00000000000E+00 0. -1.
         23    2    1    2    0    0  0.78140145346E+00  0.55937028463E+02  0.10274628116E+03  0.14854800418E+03  0.91543156554E+02 0.  0.
          5    1    1    2  502    0 -0.51811025301E+02 -0.35976033732E+02 -0.25695511358E+02  0.68237739190E+02  0.41800000000E+01 0.  1.
         -5    1    1    2    0  502  0.51029623848E+02 -0.19960994731E+02  0.43210383532E+02  0.69907606637E+02  0.41800000000E+01 0.  1.
        -11    1    3    3    0    0 -0.32038296955E+01  0.78720316495E+02  0.96525865766E+02  0.12459693221E+03  0.00000000000E+00 0.  1.
         11    1    3    3    0    0  0.39852311490E+01 -0.22783288032E+02  0.62204153935E+01  0.23951071971E+02  0.00000000000E+00 0. -1.
</event>
<event>
 7    1  0.4687179E-006  0.7691807E+02  0.7561462E-02  0.1338032E+00
         -1   -1    0    0    0  501 -0.00000000000E+00  0.00000000000E+00  0.11543981218E+03  0.11543981218E+03  0.00000000000E+00 0.  1.
          1   -1    0    0  501    0  0.00000000000E+00 -0.00000000000E+00 -0.11127140387E+03  0.11127140387E+03  0.00000000000E+00 0. -1.
         23    2    1    2    0    0  0.13836475657E+02  0.77363126080E+01  0.10655059944E+02  0.10045279083E+03  0.98620151546E+02 0.  0.
          5    1    1    2  502    0 -0.59512287231E+02 -0.96828177012E+01  0.30132464962E+02  0.67534488484E+02  0.41800000000E+01 0. -1.
         -5    1    1    2    0  502  0.45675811573E+02  0.19465050932E+01 -0.36619116597E+02  0.58723936732E+02  0.41800000000E+01 0. -1.
        -11    1    3    3    0    0  0.23563890359E+02 -0.11283139476E+02 -0.38688329423E+02  0.46683540984E+02  0.00000000000E+00 0. -1.
         11    1    3    3    0    0 -0.97274147018E+01  0.19019452084E+02  0.49343389367E+02  0.53769249842E+02  0.00000000000E+00 0.  1.
</event>
<event>
 7    1  0.4687179E-006  0.6176355E+02  0.7561462E-02  0.1390576E+00
         -2   -1    0    0    0  501 -0.00000000000E+00  0.00000000000E+00  0.11059995495E+03  0.11059995495E+03  0.00000000000E+00 0. -1.
          2   -1    0    0  501    0  0.00000000000E+00 -0.00000000000E+00 -0.13197971885E+03  0.13197971885E+03  0.00000000000E+00 0.  1.
         23    2    1    2    0    0  0.51407930689E+02  0.40087566989E+01 -0.22948618681E+02  0.10727095899E+03  0.91222662070E+02 0.  0.
          5    1    1    2  502    0 -0.30072446092E+01 -0.20042713830E+02  0.56544425023E+02  0.60212110899E+02  0.41800000000E+01 0. -1.
         -5    1    1    2    0  502 -0.48400686079E+02  0.16033957131E+02 -0.54975570245E+02  0.75096603905E+02  0.41800000000E+01 0. -1.
        -11    1    3    3    0    0  0.28635750900E+02  0.54508682248E+00  0.34816231791E+02  0.45082960699E+02  0.00000000000E+00 0. -1.
         11    1    3    3    0    0  0.22772179788E+02  0.34636698764E+01 -0.57764850472E+02  0.62187998290E+02  0.00000000000E+00 0.  1.
</event>
<event>
 6    1  0.4687179E-006  0.9581673E+02  0.7561462E-02  0.1289347E+00
         -2   -1    0    0    0  501 -0.00000000000E+00  0.00000000000E+00  0.82687770268E+02  0.82687770268E+02  0.00000000000E+00 0.  1.
          2   -1    0    0  501    0  0.00000000000E+00 -0.00000000000E+00 -0.14480850999E+03  0.14480850999E+03  0.00000000000E+00 0. -1.
          5    1    1    2  502    0 -0.61507018854E+02  0.43670583913E+02 -0.66044324106E+02  0.10034718937E+03  0.41800000000E+01 0. -1.
         -5    1    1    2    0  502 -0.10157591223E+02 -0.40236697390E+02  0.26232005858E+02  0.49272294524E+02  0.41800000000E+01 0. -1.
        -11    1    1    2    0    0  0.27647199339E+02  0.82159113541E+01 -0.11696540174E+02  0.31123590454E+02  0.00000000000E+00 0.  1.
         11    1    1    2    0    0  0.44017410739E+02 -0.11649797877E+02 -0.10611881304E+02  0.46753205917E+02  0.00000000000E+00 0. -1.
</event>
<event>
 7    1  0.4687179E-006  0.1348376E+03  0.7561462E-02  0.1220449E+00
          2   -1    0    0  501    0  0.00000000000E+00  0.00000000000E+00  0.73573868560E+03  0.73573868560E+03  0.00000000000E+00 0. -1.
         -2   -1    0    0    0  501 -0.00000000000E+00 -0.00000000000E+00 -0.25687163272E+02  0.25687163272E+02  0.00000000000E+00 0.  1.
         23    2    1    2    0    0  0.67637075811E+02  0.51380832910E+02  0.29855761082E+03  0.32303217224E+03  0.89433625166E+02 0.  0.
          5    1    1    2  502    0 -0.61229071423E+02 -0.89900708900E+02  0.25943555724E+03  0.28134572577E+03  0.41800000000E+01 0.  1.
         -5    1    1    2    0  502 -0.64080043876E+01  0.38519875990E+02  0.15205835428E+03  0.15704795087E+03  0.41800000000E+01 0.  1.
        -11    1    3    3    0    0  0.20653606868E+02  0.68500347139E+02  0.14797532216E+03  0.16436412323E+03  0.00000000000E+00 0. -1.
         11    1    3    3    0    0  0.46983468943E+02 -0.17119514229E+02  0.15058228866E+03  0.15866804902E+03  0.00000000000E+00 0.  1.
</event>
<event>
 7    1  0.4687179E-006  0.8412226E+02  0.7561462E-02  0.1317744E+00
         -2   -1    0    0    0  501 -0.00000000000E+00  0.00000000000E+00  0.14978867804E+03  0.14978867804E+03  0.00000000000E+00 0.  1.
          2   -1    0    0  501    0  0.00000000000E+00 -0.00000000000E+00 -0.11008773239E+03  0.11008773239E+03  0.00000000000E+00 0. -1.
         23    2    1    2    0    0 -0.93493384598E+01 -0.51848889137E+02 -0.30753997710E+02  0.10694698456E+03  0.87841514655E+02 0.  0.
          5    1    1    2  502    0  0.13411335028E+02  0.59582123817E+02 -0.18108644338E+02  0.63837988577E+02  0.41800000000E+01 0. -1.
         -5    1    1    2    0  502 -0.40619965681E+01 -0.77332346805E+01  0.88563587690E+02  0.89091437295E+02  0.41800000000E+01 0. -1.
        -11    1    3    3    0    0 -0.25536022479E+02 -0.69112887425E+02 -0.79922702447E+01  0.74111780682E+02  0.00000000000E+00 0.  1.
         11    1    3    3    0    0  0.16186684019E+02  0.17263998288E+02 -0.22761727465E+02  0.32835203877E+02  0.00000000000E+00 0. -1.
</event>
<event>
 7    1  0.4687179E-006  0.1194698E+03  0.7561462E-02  0.1243974E+00
          2   -1    0    0  501    0  0.00000000000E+00  0.00000000000E+00  0.19444948746E+03  0.19444948746E+03  0.00000000000E+00 0. -1.
         -2   -1    0    0    0  501 -0.00000000000E+00 -0.00000000000E+00 -0.91498102674E+02  0.91498102674E+02  0.00000000000E+00 0.  1.
         23    2    1    2    0    0  0.76354360868E+02 -0.16234192479E+02  0.60915220866E+02  0.13261893620E+03  0.88224603583E+02 0.  0.
          5    1    1    2  502    0 -0.97352390494E+02 -0.23179662473E+02  0.15898511323E+02  0.10141508640E+03  0.41800000000E+01 0. -1.
         -5    1    1    2    0  502  0.20998029626E+02  0.39413854952E+02  0.26137652593E+02  0.51913567528E+02  0.41800000000E+01 0. -1.
        -11    1    3    3    0    0  0.37350124702E+02 -0.34508892268E+02 -0.78733446262E+01  0.51457604069E+02  0.00000000000E+00 0.  1.
         11    1    3    3    0    0  0.39004236165E+02  0.18274699789E+02  0.68788565492E+02  0.81161332134E+02  0.00000000000E+00 0. -1.
</event>
<event>
 7    1  0.4687179E-006  0.1154944E+03  0.7561462E-02  0.1250721E+00
         -2   -1    0    0    0  501 -0.00000000000E+00  0.00000000000E+00  0.10780217250E+03  0.10780217250E+03  0.00000000000E+00 0.  1.
          2   -1    0    0  501    0  0.00000000000E+00 -0.00000000000E+00 -0.15535551260E+03  0.15535551260E+03  0.00000000000E+00 0. -1.
         23    2    1    2    0    0 -0.31550231779E+01 -0.69422685601E+02 -0.32345673928E+02  0.11923708279E+03  0.91333322740E+02 0.  0.
          5    1    1    2  502    0 -0.44951269398E+02  0.35170957337E+02 -0.49359672139E+02  0.75574218449E+02  0.41800000000E+01 0. -1.
         -5    1    1    2    0  502  0.48106292576E+02  0.34251728264E+02  0.34152005966E+02  0.68346383854E+02  0.41800000000E+01 0. -1.
        -11    1    3    3    0    0  0.43752470034E+02 -0.39304049070E+02 -0.20187254864E+02  0.62182088790E+02  0.00000000000E+00 0.  1.
         11    1    3    3    0    0 -0.46907493212E+02 -0.30118636531E+02 -0.12158419064E+02  0.57054993998E+02  0.00000000000E+00 0. -1.
</event>
<event>
 7    1  0.4687179E-006  0.1950736E+03  0.7561462E-02  0.1153963E+00
          1   -1    0    0  501    0  0.00000000000E+00  0.00000000000E+00  0.64995595720E+02  0.64995595720E+02  0.00000000000E+00 0. -1.
         -1   -1    0    0    0  501 -0.00000000000E+00 -0.00000000000E+00 -0.84046107406E+03  0.84046107406E+03  0.00000000000E+00 0.  1.
         23    2    1    2    0    0  0.10767984249E+03 -0.13742727897E+03 -0.16407836425E+03  0.25744175070E+03  0.94198407132E+02 0.  0.
          5    1    1    2  502    0 -0.70177725178E+02  0.15443260641E+03 -0.43707627272E+03  0.46885763682E+03  0.41800000000E+01 0. -1.
         -5    1    1    2    0  502 -0.37502117315E+02 -0.17005327437E+02 -0.17431084137E+03  0.17915728225E+03  0.41800000000E+01 0. -1.
        -11    1    3    3    0    0  0.10635137752E+03 -0.11510830016E+03 -0.91447677450E+02  0.18144755159E+03  0.00000000000E+00 0. -1.
         11    1    3    3    0    0  0.13284649700E+01 -0.22318978812E+02 -0.72630686797E+02  0.75994199115E+02  0.00000000000E+00 0.  1.
</event>
<event>
 7    1  0.4687179E-006  0.1153479E+03  0.7561462E-02  0.1250975E+00
          2   -1    0    0  501    0  0.00000000000E+00  0.00000000000E+00  0.11874766850E+03  0.11874766850E+03  0.00000000000E+00 0. -1.
         -2   -1    0    0    0  501 -0.00000000000E+00 -0.00000000000E+00 -0.12156498810E+03  0.12156498810E+03  0.00000000000E+00 0.  1.
         23    2    1    2    0    0 -0.55744954600E+01  0.49061738113E+02  0.12295787263E+02  0.10498275428E+03  0.91826266207E+02 0.  0.
          5    1    1    2  502    0  0.46769478460E+02 -0.66825144016E+02 -0.31284757955E+02  0.87459661950E+02  0.41800000000E+01 0.  1.
         -5    1    1    2    0  502 -0.41194983000E+02  0.17763405902E+02  0.16171651091E+02  0.47870240365E+02  0.41800000000E+01 0.  1.
        -11    1    3    3    0    0  0.14026751046E+02  0.72252981417E+02  0.12269530488E+02  0.74617588053E+02  0.00000000000E+00 0. -1.
         11    1    3    3    0    0 -0.19601246506E+02 -0.23191243303E+02  0.26256774909E-01  0.30365166227E+02  0.00000000000E+00 0.  1.
</event>
<event>
 7    1  0.4687179E-006  0.2059898E+03  0.7561462E-02  0.1144782E+00
         -1   -1    0    0    0  501 -0.00000000000E+00  0.00000000000E+00  0.86305341610E+02  0.86305341610E+02  0.00000000000E+00 0.  1.
          1   -1    0    0  501    0  0.00000000000E+00 -0.00000000000E+00 -0.65532564287E+03  0.65532564287E+03  0.00000000000E+00 0. -1.
         23    2    1    2    0    0  0.16971028278E+03 -0.86229605230E+02 -0.41479501947E+03  0.46654956961E+03  0.96832163208E+02 0.  0.
          5    1    1    2  502    0 -0.11049949642E+03  0.88629889702E+02 -0.16192219009E+03  0.21517821474E+03  0.41800000000E+01 0. -1.
         -5    1    1    2    0  502 -0.59210786366E+02 -0.24002844716E+01  0.76969082948E+01  0.59903200122E+02  0.41800000000E+01 0. -1.
        -11    1    3    3    0    0  0.13025854761E+03 -0.10486793821E+03 -0.35612652009E+03  0.39343445706E+03  0.00000000000E+00 0.  1.
         11    1    3    3    0    0  0.39451735172E+02  0.18638332985E+02 -0.58668499378E+02  0.73115112554E+02  0.00000000000E+00 0. -1.
</event>
<event>
 7    1  0.4687179E-006  0.1180524E+03  0.7561462E-02  0.1246345E+00
          1   -1    0    0  501    0  0.00000000000E+00  0.00000000000E+00  0.53038162206E+03  0.53038162206E+03  0.00000000000E+00 0. -1.
         -1   -1    0    0    0  501 -0.00000000000E+00 -0.00000000000E+00 -0.47409858555E+02  0.47409858555E+02  0.00000000000E+00 0.  1.
         23    2    1    2    0    0  0.64671354614E+02 -0.12675036657E+02  0.40865953806E+03  0.42446003441E+03  0.93918380024E+02 0.  0.
          5    1    1    2  502    0  0.94352354437E+01  0.48547510919E+02  0.41152515965E+02  0.64473920732E+02  0.41800000000E+01 0. -1.
         -5    1    1    2    0  502 -0.74106590057E+02 -0.35872474262E+02  0.33159709482E+02  0.88857525470E+02  0.41800000000E+01 0.  1.
        -11    1    3    3    0    0  0.63111579775E+02 -0.41263068048E+02  0.36157794266E+03  0.36935663106E+03  0.00000000000E+00 0. -1.
         11    1    3    3    0    0  0.15597748389E+01  0.28588031391E+02  0.47081595397E+02  0.55103403357E+02  0.00000000000E+00 0.  1.
</event>
<event>
 7    1  0.4687179E-006  0.1020197E+03  0.7561462E-02  0.1276105E+00
          2   -1    0    0  501    0  0.00000000000E+00  0.00000000000E+00  0.51161622122E+03  0.51161622122E+03  0.00000000000E+00 0. -1.
         -2   -1    0    0    0  501 -0.00000000000E+00 -0.00000000000E+00 -0.54162342299E+02  0.54162342299E+02  0.00000000000E+00 0.  1.
         23    2    1    2    0    0  0.43845008723E+01 -0.95942155284E+02  0.35289321504E+03  0.37655840801E+03  0.89657640047E+02 0.  0.
          5    1    1    2  502    0  0.20492837575E+02  0.24439931306E+02 -0.23884873657E+02  0.40065274537E+02  0.41800000000E+01 0. -1.
         -5    1    1    2    0  502 -0.24877338448E+02  0.71502223978E+02  0.12844553754E+03  0.14915488097E+03  0.41800000000E+01 0. -1.
        -11    1    3    3    0    0  0.73809549402E+00 -0.28661894742E+02  0.15678767435E+02  0.32678322225E+02  0.00000000000E+00 0.  1.
         11    1    3    3    0    0  0.36464053783E+01 -0.67280260541E+02  0.33721444760E+03  0.34388008579E+03  0.00000000000E+00 0. -1.
</event>
<event>
 7    1  0.4687179E-006  0.1039311E+03  0.7561462E-02  0.1272240E+00
          2   -1    0    0  501    0  0.00000000000E+00  0.00000000000E+00  0.25908308978E+03  0.25908308978E+03  0.00000000000E+00 0. -1.
         -2   -1    0    0    0  501 -0.00000000000E+00 -0.00000000000E+00 -0.58705588686E+02  0.58705588686E+02  0.00000000000E+00 0.  1.
         23    2    1    2    0    0  0.57342106943E+02  0.10463899347E+01  0.10496562326E+03  0.15033646545E+03  0.91071722387E+02 0.  0.
          5    1    1    2  502    0  0.15800662796E+01 -0.32848585952E+02  0.94728374969E+02  0.10036166416E+03  0.41800000000E+01 0.  1.
         -5    1    1    2    0  502 -0.58922173223E+02  0.31802196017E+02  0.68350286268E+00  0.67090548850E+02  0.41800000000E+01 0.  1.
        -11    1    3    3    0    0 -0.24622593658E+02 -0.60425844609E+01  0.25088052648E+02  0.35667847301E+02  0.00000000000E+00 0.  1.
         11    1    3    3    0    0  0.81964700601E+02  0.70889743955E+01  0.79877570610E+02  0.11466861815E+03  0.00000000000E+00 0. -1.
</event>
<event>
 7    1  0.4687179E-006  0.1692962E+03  0.7561462E-02  0.1178584E+00
          2   -1    0    0  501    0  0.00000000000E+00  0.00000000000E+00  0.10924893340E+04  0.10924893340E+04  0.00000000000E+00 0. -1.
         -2   -1    0    0    0  501 -0.00000000000E+00 -0.00000000000E+00 -0.32702254855E+02  0.32702254855E+02  0.00000000000E+00 0.  1.
         23    2    1    2    0    0 -0.81453676006E+01 -0.13656836909E+03  0.71545864318E+03  0.73413057260E+03  0.91374838316E+02 0.  0.
          5    1    1    2  502    0 -0.15614816808E+02 -0.20414111333E+02  0.38997810399E+02  0.46892004237E+02  0.41800000000E+01 0.  1.
         -5    1    1    2    0  502  0.23760184409E+02  0.15698248043E+03  0.30533062558E+03  0.34416901203E+03  0.41800000000E+01 0.  1.
        -11    1    3    3    0    0 -0.34560641874E+02 -0.36642826729E+02  0.12628577103E+03  0.13596040115E+03  0.00000000000E+00 0.  1.
         11    1    3    3    0    0  0.26415274273E+02 -0.99925542365E+02  0.58917287215E+03  0.59817017145E+03  0.00000000000E+00 0. -1.
</event>
<event>
 7    1  0.4687179E-006  0.1043738E+03  0.7561462E-02  0.1271358E+00
         -2   -1    0    0    0  501 -0.00000000000E+00  0.00000000000E+00  0.10532095693E+03  0.10532095693E+03  0.00000000000E+00 0.  1.
          2   -1    0    0  501    0  0.00000000000E+00 -0.00000000000E+00 -0.15340660267E+03  0.15340660267E+03  0.00000000000E+00 0. -1.
         23    2    1    2    0    0  0.64222740927E+02 -0.11206140834E+02 -0.22466644994E+02  0.11535236770E+03  0.92473134217E+02 0.  0.
          5    1    1    2  502    0 -0.44304005653E+02 -0.36833568948E+02  0.31678550868E+02  0.65882924217E+02  0.41800000000E+01 0. -1.
         -5    1    1    2    0  502 -0.19918735274E+02  0.48039709781E+02 -0.57297551615E+02  0.77492267691E+02  0.41800000000E+01 0. -1.
        -11    1    3    3    0    0 -0.12244641985E+02  0.13711048942E+02 -0.29352240037E+02  0.34633482580E+02  0.00000000000E+00 0. -1.
         11    1    3    3    0    0  0.76467382912E+02 -0.24917189776E+02  0.68855950430E+01  0.80718885119E+02  0.00000000000E+00 0.  1.
</event>
<event>
 7    1  0.4687179E-006  0.8304497E+02  0.7561462E-02  0.1320626E+00
         -1   -1    0    0    0  501 -0.00000000000E+00  0.00000000000E+00  0.73749929587E+02  0.73749929587E+02  0.00000000000E+00 0.  1.
          1   -1    0    0  501    0  0.00000000000E+00 -0.00000000000E+00 -0.16244783237E+03  0.16244783237E+03  0.00000000000E+00 0. -1.
         23    2    1    2    0    0 -0.14983379203E+02  0.52241130112E+01 -0.37008347989E+02  0.99923037318E+02  0.91450547056E+02 0.  0.
          5    1    1    2  502    0 -0.16387895422E+02  0.27885992081E+02  0.28901603041E+02  0.43577135393E+02  0.41800000000E+01 0. -1.
         -5    1    1    2    0  502  0.31371274625E+02 -0.33110105092E+02 -0.80591157833E+02  0.92697589244E+02  0.41800000000E+01 0. -1.
        -11    1    3    3    0    0 -0.50064812946E+02  0.13032387700E+02 -0.53161090279E+01  0.52005669303E+02  0.00000000000E+00 0.  1.
         11    1    3    3    0    0  0.35081433743E+02 -0.78082746891E+01 -0.31692238961E+02  0.47917368015E+02  0.00000000000E+00 0. -1.
</event>
<event>
 7    1  0.4687179E-006  0.6512004E+02  0.7561462E-02  0.1377521E+00
         -1   -1    0    0    0  501 -0.00000000000E+00  0.00000000000E+00  0.57809425325E+03  0.57809425325E+03  0.00000000000E+00 0.  1.
          1   -1    0    0  501    0  0.00000000000E+00 -0.00000000000E+00 -0.26638054727E+02  0.26638054727E+02  0.00000000000E+00 0. -1.
         23    2    1    2    0    0 -0.21859695164E+02 -0.14467641676E+01  0.10642101117E+03  0.14193375652E+03  0.91322616153E+02 0.  0.
          5    1    1    2  502    0 -0.10107797005E+02  0.35685765464E+02  0.38755984807E+02  0.53806506813E+02  0.41800000000E+01 0.  1.
         -5    1    1    2    0  502  0.31967492169E+02 -0.34239001296E+02  0.40627920254E+03  0.40899204464E+03  0.41800000000E+01 0.  1.
        -11    1    3    3    0    0 -0.29363064300E+01 -0.19507987079E+02  0.11320350806E+03  0.11490960661E+03  0.00000000000E+00 0.  1.
         11    1    3    3    0    0 -0.18923388734E+02  0.18061222911E+02 -0.67824968829E+01  0.27024149907E+02  0.00000000000E+00 0. -1.
</event>
<event>
 7    1  0.7523242E-006  0.2510967E+03  0.7561462E-02  0.1112614E+00
         -2   -1    0    0    0  501 -0.00000000000E+00  0.00000000000E+00  0.19828902536E+03  0.19828902536E+03  0.00000000000E+00 0.  1.
          2   -1    0    0  501    0  0.00000000000E+00 -0.00000000000E+00 -0.34300688969E+03  0.34300688969E+03  0.00000000000E+00 0. -1.
         23    2    1    2    0    0 -0.23476948515E+03  0.93495557434E+01 -0.10214011224E+03  0.27173224482E+03  0.90563154729E+02 0.  0.
          5    1    1    2  502    0  0.14363406142E+03 -0.57034200517E+02 -0.58697197226E+02  0.16536770238E+03  0.41800000000E+01 0.  1.
         -5    1    1    2    0  502  0.91135423737E+02  0.47684644774E+02  0.16119445134E+02  0.10419596786E+03  0.41800000000E+01 0.  1.
        -11    1    3    3    0    0 -0.17537001659E+03 -0.23234363324E+02 -0.43603256977E+02  0.18219693295E+03  0.00000000000E+00 0. -1.
         11    1    3    3    0    0 -0.59399468566E+02  0.32583919068E+02 -0.58536855262E+02  0.89535311870E+02  0.00000000000E+00 0.  1.
</event>
<event>
 7    1  0.4687179E-006  0.4515938E+03  0.7561462E-02  0.1027248E+00
          2   -1    0    0  501    0  0.00000000000E+00  0.00000000000E+00  0.15577302900E+04  0.15577302900E+04  0.00000000000E+00 0. -1.
         -2   -1    0    0    0  501 -0.00000000000E+00 -0.00000000000E+00 -0.13596056755E+03  0.13596056755E+03  0.00000000000E+00 0.  1.
         23    2    1    2    0    0 -0.39149768911E+03  0.20765296109E+03  0.81539591793E+03  0.93242531940E+03  0.90312127876E+02 0.  0.
          5    1    1    2  502    0  0.75586066967E+02 -0.80537804396E+02  0.22017866543E+03  0.24636499055E+03  0.41800000000E+01 0.  1.
         -5    1    1    2    0  502  0.31591162215E+03 -0.12711515670E+03  0.38619513906E+03  0.51490054759E+03  0.41800000000E+01 0.  1.
        -11    1    3    3    0    0 -0.20831566999E+03  0.16043450670E+03  0.46179850791E+03  0.53140616407E+03  0.00000000000E+00 0. -1.
         11    1    3    3    0    0 -0.18318201912E+03  0.47218454392E+02  0.35359741002E+03  0.40101915532E+03  0.00000000000E+00 0.  1.
</event>
<event>
 7    1  0.4687179E-006  0.1171381E+03  0.7561462E-02  0.1247894E+00
          2   -1    0    0  501    0  0.00000000000E+00  0.00000000000E+00  0.81771421594E+02  0.81771421594E+02  0.00000000000E+00 0. -1.
         -2   -1    0    0    0  501 -0.00000000000E+00 -0.00000000000E+00 -0.29023115658E+03  0.29023115658E+03  0.00000000000E+00 0.  1.
         23    2    1    2    0    0 -0.64768836639E+02 -0.74245156947E+01  0.95540564609E+01  0.11232607075E+03  0.90971097298E+02 0.  0.
          5    1    1    2  502    0  0.56097567814E+02  0.55989024137E+02 -0.78468023395E+02  0.11160829285E+03  0.41800000000E+01 0.  1.
         -5    1    1    2    0  502  0.86712688252E+01 -0.48564508442E+02 -0.13954576805E+03  0.14806821456E+03  0.41800000000E+01 0.  1.
        -11    1    3    3    0    0 -0.84157449038E+02 -0.13160163062E+02 -0.79931894285E+01  0.85554410743E+02  0.00000000000E+00 0.  1.
         11    1    3    3    0    0  0.19388612399E+02  0.57356473674E+01  0.17547245889E+02  0.26771660012E+02  0.00000000000E+00 0. -1.
</event>
<event>
 7    1  0.4687179E-006  0.2632900E+03  0.7561462E-02  0.1105183E+00
         -1   -1    0    0    0  501 -0.00000000000E+00  0.00000000000E+00  0.17057983386E+03  0.17057983386E+03  0.00000000000E+00 0.  1.
          1   -1    0    0  501    0  0.00000000000E+00 -0.00000000000E+00 -0.48272993189E+03  0.48272993189E+03  0.00000000000E+00 0. -1.
         23    2    1    2    0    0 -0.24897379144E+03  0.61927929667E+02 -0.23063788312E+03  0.35646782627E+03  0.89735504351E+02 0.  0.
          5    1    1    2  502    0  0.13174230080E+03 -0.50150089861E+01  0.17588685855E+02  0.13307147856E+03  0.41800000000E+01 0.  1.
         -5    1    1    2    0  502  0.11723149064E+03 -0.56912920681E+02 -0.99100900767E+02  0.16377046093E+03  0.41800000000E+01 0.  1.
        -11    1    3    3    0    0 -0.17062933724E+03  0.11278443411E+02 -0.10751380733E+03  0.20199206118E+03  0.00000000000E+00 0.  1.
         11    1    3    3    0    0 -0.78344454198E+02  0.50649486256E+02 -0.12312407579E+03  0.15447576509E+03  0.00000000000E+00 0. -1.
</event>
<event>
 7    1  0.4687179E-006  0.1848261E+03  0.7561462E-02  0.1163212E+00
         -1   -1    0    0    0  501 -0.00000000000E+00  0.00000000000E+00  0.80240391074E+02  0.80240391074E+02  0.00000000000E+00 0.  1.
          1   -1    0    0  501    0  0.00000000000E+00 -0.00000000000E+00 -0.51062056513E+03  0.51062056513E+03  0.00000000000E+00 0. -1.
         23    2    1    2    0    0 -0.31215513038E+02  0.12621262080E+03 -0.26619374039E+03  0.30964517316E+03  0.90094350170E+02 0.  0.
          5    1    1    2  502    0  0.10684750463E+03 -0.10189250919E+03 -0.93620847777E+02  0.17487369217E+03  0.41800000000E+01 0. -1.
         -5    1    1    2    0  502 -0.75631991591E+02 -0.24320111608E+02 -0.70565585887E+02  0.10634209088E+03  0.41800000000E+01 0.  1.
        -11    1    3    3    0    0 -0.93974358681E+01  0.11906469522E+03 -0.15274321398E+03  0.19389482424E+03  0.00000000000E+00 0.  1.
         11    1    3    3    0    0 -0.21818077170E+02  0.71479255728E+01 -0.11345052641E+03  0.11575034892E+03  0.00000000000E+00 0. -1.
</event>
<event>
 7    1  0.4687179E-006  0.3054747E+03  0.7561462E-02  0.1082535E+00
          1   -1    0    0  501    0  0.00000000000E+00  0.00000000000E+00  0.12695222438E+03  0.12695222438E+03  0.00000000000E+00 0. -1.
         -1   -1    0    0    0  501 -0.00000000000E+00 -0.00000000000E+00 -0.83530651480E+03  0.83530651480E+03  0.00000000000E+00 0.  1.
         23    2    1    2    0    0  0.49805356394E+02  0.27323508246E+03 -0.21875912749E+03  0.36836517178E+03  0.10343771123E+03 0.  0.
          5    1    1    2  502    0  0.73200286040E+00  0.19854418905E+02 -0.10890219653E+03  0.11077858362E+03  0.41800000000E+01 0. -1.
         -5    1    1    2    0  502 -0.50537359254E+02 -0.29308950137E+03 -0.38069296639E+03  0.48311498378E+03  0.41800000000E+01 0.  1.
        -11    1    3    3    0    0  0.50861376147E+02  0.54803556712E+02 -0.80428933766E+02  0.10981403735E+03  0.00000000000E+00 0.  1.
         11    1    3    3    0    0 -0.10560197536E+01  0.21843152575E+03 -0.13833019373E+03  0.25855113443E+03  0.00000000000E+00 0. -1.
</event>
<event>
 7    1  0.4687179E-006  0.1505665E+03  0.7561462E-02  0.1199779E+00
          2   -1    0    0  501    0  0.00000000000E+00  0.00000000000E+00  0.27836899096E+03  0.27836899096E+03  0.00000000000E+00 0.  1.
         -2   -1    0    0    0  501 -0.00000000000E+00 -0.00000000000E+00 -0.99407846062E+02  0.99407846062E+02  0.00000000000E+00 0. -1.
         23    2    1    2    0    0 -0.11666146268E+03  0.38725771611E+00  0.14219934956E+03  0.20282877026E+03  0.85491567928E+02 0.  0.
          5    1    1    2  502    0  0.14139539025E+03 -0.42397834702E+01  0.44607221017E+02  0.14838432772E+03  0.41800000000E+01 0.  1.
         -5    1    1    2    0  502 -0.24733927565E+02  0.38525257541E+01 -0.78454256810E+01  0.26563739036E+02  0.41800000000E+01 0.  1.
        -11    1    3    3    0    0 -0.44476095595E+02 -0.32324785571E+02  0.22801135007E+02  0.59522320176E+02  0.00000000000E+00 0. -1.
         11    1    3    3    0    0 -0.72185367087E+02  0.32712043287E+02  0.11939821455E+03  0.14330645008E+03  0.00000000000E+00 0.  1.
</event>
<event>
 7    1  0.4687179E-006  0.1082855E+03  0.7561462E-02  0.1263778E+00
          1   -1    0    0  501    0  0.00000000000E+00  0.00000000000E+00  0.21350120349E+03  0.21350120349E+03  0.00000000000E+00 0. -1.
         -1   -1    0    0    0  501 -0.00000000000E+00 -0.00000000000E+00 -0.70139975648E+02  0.70139975648E+02  0.00000000000E+00 0.  1.
         23    2    1    2    0    0  0.18049327353E+02  0.45275280576E+02  0.94608657546E+02  0.14081432225E+03  0.92207624523E+02 0.  0.
          5    1    1    2  502    0 -0.17209934574E+02 -0.79226430126E+02 -0.24782479800E+01  0.81219598568E+02  0.41800000000E+01 0. -1.
         -5    1    1    2    0  502 -0.83939277878E+00  0.33951149550E+02  0.51230818277E+02  0.61607258317E+02  0.41800000000E+01 0. -1.
        -11    1    3    3    0    0 -0.35559359783E+02  0.26583448924E+02  0.24872858906E+02  0.50890145756E+02  0.00000000000E+00 0.  1.
         11    1    3    3    0    0  0.53608687136E+02  0.18691831652E+02  0.69735798640E+02  0.89924176498E+02  0.00000000000E+00 0. -1.
</event>
<event>
 7    1  0.4687179E-006  0.1278043E+03  0.7561462E-02  0.1230751E+00
         -1   -1    0    0    0  501 -0.00000000000E+00  0.00000000000E+00  0.37910000849E+02  0.37910000849E+02  0.00000000000E+00 0.  1.
          1   -1    0    0  501    0  0.00000000000E+00 -0.00000000000E+00 -0.50793678609E+03  0.50793678609E+03  0.00000000000E+00 0. -1.
         23    2    1    2    0    0  0.77514267747E+02  0.37898832774E+02 -0.22199266004E+03  0.25498417581E+03  0.91057155513E+02 0.  0.
          5    1    1    2  502    0 -0.10781602180E+03 -0.41678390887E+02 -0.15882772002E+03  0.19648180544E+03  0.41800000000E+01 0.  1.
         -5    1    1    2    0  502  0.30301754049E+02  0.37795581131E+01 -0.89206405179E+02  0.94380805691E+02  0.41800000000E+01 0.  1.
        -11    1    3    3    0    0  0.69786423295E+02 -0.66527788984E+00 -0.73433451380E+02  0.10130675818E+03  0.00000000000E+00 0.  1.
         11    1    3    3    0    0  0.77278444511E+01  0.38564110663E+02 -0.14855920866E+03  0.15367741763E+03  0.00000000000E+00 0. -1.
</event>
<event>
 7    1  0.4687179E-006  0.1394899E+03  0.7561462E-02  0.1214017E+00
          1   -1    0    0  501    0  0.00000000000E+00  0.00000000000E+00  0.10839746740E+03  0.10839746740E+03  0.00000000000E+00 0. -1.
         -1   -1    0    0    0  501 -0.00000000000E+00 -0.00000000000E+00 -0.24198270451E+03  0.24198270451E+03  0.00000000000E+00 0.  1.
         23    2    1    2    0    0  0.10279425270E+03 -0.44826735964E+02 -0.18415548965E+02  0.14669613344E+03  0.92760597653E+02 0.  0.
          5    1    1    2  502    0 -0.97942218812E+01 -0.21132889410E+02  0.16958299505E+02  0.29113263630E+02  0.41800000000E+01 0.  1.
         -5    1    1    2    0  502 -0.93000030816E+02  0.65959625374E+02 -0.13212798764E+03  0.17457077485E+03  0.41800000000E+01 0.  1.
        -11    1    3    3    0    0  0.92845419567E+02  0.24826880708E+01 -0.28815577182E+02  0.97245941627E+02  0.00000000000E+00 0.  1.
         11    1    3    3    0    0  0.99488331308E+01 -0.47309424035E+02  0.10400028217E+02  0.49450191810E+02  0.00000000000E+00 0. -1.
</event>
<event>
 7    1  0.4687179E-006  0.9038975E+02  0.7561462E-02  0.1301911E+00
          3   -1    0    0  501    0  0.00000000000E+00  0.00000000000E+00  0.11620051372E+03  0.11620051372E+03  0.00000000000E+00 0. -1.
         -3   -1    0    0    0  501 -0.00000000000E+00 -0.00000000000E+00 -0.15162806651E+03  0.15162806651E+03  0.00000000000E+00 0.  1.
         23    2    1    2    0    0 -0.47702128839E+02  0.51004904103E+02  0.13280430718E+02  0.11650276064E+03  0.92301300410E+02 0.  0.
          5    1    1    2  502    0 -0.87231857878E+01 -0.53051144959E+02 -0.72126455366E+02  0.90056737202E+02  0.41800000000E+01 0. -1.
         -5    1    1    2    0  502  0.56425314627E+02  0.20462408554E+01  0.23418471862E+02  0.61269082389E+02  0.41800000000E+01 0. -1.
        -11    1    3    3    0    0 -0.17193772724E+02  0.23797304042E+02  0.52309250192E+02  0.59984957746E+02  0.00000000000E+00 0. -1.
         11    1    3    3    0    0 -0.30508356116E+02  0.27207600061E+02 -0.39028819474E+02  0.56517802890E+02  0.00000000000E+00 0.  1.
</event>
<event>
 7    1  0.4687179E-006  0.1336406E+03  0.7561462E-02  0.1222152E+00
          1   -1    0    0  501    0  0.00000000000E+00  0.00000000000E+00  0.49475686834E+02  0.49475686834E+02  0.00000000000E+00 0. -1.
         -1   -1    0    0    0  501 -0.00000000000E+00 -0.00000000000E+00 -0.53242804015E+03  0.53242804015E+03  0.00000000000E+00 0.  1.
         23    2    1    2    0    0 -0.88926285997E+02 -0.22643116709E+02 -0.84594871922E+02  0.15440351021E+03  0.90904106250E+02 0.  0.
          5    1    1    2  502    0  0.10076810483E+03 -0.19945237877E+02 -0.20783842695E+03  0.23187562955E+03  0.41800000000E+01 0.  1.
         -5    1    1    2    0  502 -0.11841818830E+02  0.42588354586E+02 -0.19051905445E+03  0.19562458722E+03  0.41800000000E+01 0.  1.
        -11    1    3    3    0    0 -0.45431743984E+02 -0.50882983742E+02 -0.19048179385E+02  0.70823403857E+02  0.00000000000E+00 0. -1.
         11    1    3    3    0    0 -0.43494542012E+02  0.28239867034E+02 -0.65546692536E+02  0.83580106349E+02  0.00000000000E+00 0.  1.
</event>
<event>
 7    1  0.4687179E-006  0.1834479E+03  0.7561462E-02  0.1164507E+00
          3   -1    0    0  501    0  0.00000000000E+00  0.00000000000E+00  0.27746005262E+03  0.27746005262E+03  0.00000000000E+00 0. -1.
         -3   -1    0    0    0  501 -0.00000000000E+00 -0.00000000000E+00 -0.16043902532E+03  0.16043902532E+03  0.00000000000E+00 0.  1.
         23    2    1    2    0    0 -0.14915259950E+03 -0.87894683476E+02  0.10953145262E+03  0.22418082257E+03  0.91038062229E+02 0.  0.
          5    1    1    2  502    0 -0.69911173108E+00  0.16804902973E+02  0.40949462714E+02  0.44465991698E+02  0.41800000000E+01 0.  1.
         -5    1    1    2    0  502  0.14985171123E+03  0.71089780503E+02 -0.33459888043E+02  0.16925226367E+03  0.41800000000E+01 0.  1.
        -11    1    3    3    0    0 -0.60223558212E+02 -0.23672556596E+01  0.16615561906E+01  0.60292965029E+02  0.00000000000E+00 0. -1.
         11    1    3    3    0    0 -0.88929041285E+02 -0.85527427816E+02  0.10786989643E+03  0.16388785754E+03  0.00000000000E+00 0.  1.
</event>
<event>
 7    1  0.4687179E-006  0.1517307E+03  0.7561462E-02  0.1198362E+00
         -2   -1    0    0    0  501 -0.00000000000E+00  0.00000000000E+00  0.19116046535E+02  0.19116046535E+02  0.00000000000E+00 0. -1.
          2   -1    0    0  501    0  0.00000000000E+00 -0.00000000000E+00 -0.12916168478E+04  0.12916168478E+04  0.00000000000E+00 0.  1.
         23    2    1    2    0    0 -0.15014856509E+02  0.10908591321E+03 -0.70093044293E+03  0.71536187915E+03  0.91180863868E+02 0.  0.
          5    1    1    2  502    0  0.13744683506E+02  0.23755387170E+02 -0.17325359089E+03  0.17546371107E+03  0.41800000000E+01 0. -1.
         -5    1    1    2    0  502  0.12701730031E+01 -0.13284130038E+03 -0.39831676746E+03  0.41990730413E+03  0.41800000000E+01 0. -1.
        -11    1    3    3    0    0 -0.53516137989E+02  0.59910635828E+02 -0.41198178498E+03  0.41974069670E+03  0.00000000000E+00 0.  1.
         11    1    3    3    0    0  0.38501281480E+02  0.49175277385E+02 -0.28894865795E+03  0.29562118244E+03  0.00000000000E+00 0. -1.
</event>
<event>
 7    1  0.4687179E-006  0.4177998E+03  0.7561462E-02  0.1037785E+00
         -2   -1    0    0    0  501 -0.00000000000E+00  0.00000000000E+00  0.16422887914E+03  0.16422887914E+03  0.00000000000E+00 0.  1.
          2   -1    0    0  501    0  0.00000000000E+00 -0.00000000000E+00 -0.11375973643E+04  0.11375973643E+04  0.00000000000E+00 0. -1.
         23    2    1    2    0    0  0.25678879595E+03  0.31520437908E+03 -0.33328454917E+03  0.53328877319E+03  0.89576998066E+02 0.  0.
          5    1    1    2  502    0 -0.25413232070E+03 -0.32512683475E+03 -0.63203182854E+03  0.75483269655E+03  0.41800000000E+01 0.  1.
         -5    1    1    2    0  502 -0.26564752418E+01  0.99224556691E+01 -0.80521074236E+01  0.13704773664E+02  0.41800000000E+01 0.  1.
        -11    1    3    3    0    0  0.32831783741E+02  0.12170433248E+02 -0.53600691523E+02  0.64024054861E+02  0.00000000000E+00 0. -1.
         11    1    3    3    0    0  0.22395701221E+03  0.30303394583E+03 -0.27968385765E+03  0.46926471833E+03  0.00000000000E+00 0.  1.
</event>
<event>
 7    1  0.4687179E-006  0.1927329E+03  0.7561462E-02  0.1156019E+00
          2   -1    0    0  501    0  0.00000000000E+00  0.00000000000E+00  0.36213781474E+03  0.36213781474E+03  0.00000000000E+00 0. -1.
         -2   -1    0    0    0  501 -0.00000000000E+00 -0.00000000000E+00 -0.30620501946E+03  0.30620501946E+03  0.00000000000E+00 0.  1.
         23    2    1    2    0    0 -0.16877129177E+03 -0.60851215750E+02  0.28677571442E+03  0.35034451082E+03  0.91183038431E+02 0.  0.
          5    1    1    2  502    0  0.15580994197E+03  0.42848981670E+02 -0.24338451057E+03  0.29217505991E+03  0.41800000000E+01 0. -1.
         -5    1    1    2    0  502  0.12961349799E+02  0.18002234080E+02  0.12541591424E+02  0.25823263464E+02  0.41800000000E+01 0. -1.
        -11    1    3    3    0    0 -0.15498419673E+03 -0.17757093513E+02  0.22327814041E+03  0.27237573972E+03  0.00000000000E+00 0.  1.
         11    1    3    3    0    0 -0.13787095040E+02 -0.43094122237E+02  0.63497574018E+02  0.77968771102E+02  0.00000000000E+00 0. -1.
</event>
<event>
 7    1  0.4687179E-006  0.1330318E+03  0.7561462E-02  0.1223025E+00
         -2   -1    0    0    0  501 -0.00000000000E+00  0.00000000000E+00  0.29459753164E+02  0.29459753164E+02  0.00000000000E+00 0.  1.
          2   -1    0    0  501    0  0.00000000000E+00 -0.00000000000E+00 -0.63787201659E+03  0.63787201659E+03  0.00000000000E+00 0. -1.
         23    2    1    2    0    0 -0.65919162466E+02 -0.52235620949E+02 -0.25847593686E+03  0.28631138049E+03  0.89947210000E+02 0.  0.
          5    1    1    2  502    0  0.38137333997E+02 -0.36482170849E+02 -0.84206040695E+02  0.99466249169E+02  0.41800000000E+01 0. -1.
         -5    1    1    2    0  502  0.27781828469E+02  0.88717791798E+02 -0.26573028588E+03  0.28155414010E+03  0.41800000000E+01 0. -1.
        -11    1    3    3    0    0 -0.81336099588E+02 -0.61594160845E+02 -0.23845571439E+03  0.25936562894E+03  0.00000000000E+00 0. -1.
         11    1    3    3    0    0  0.15416937122E+02  0.93585398959E+01 -0.20020222462E+02  0.26945751551E+02  0.00000000000E+00 0.  1.
</event>
<event>
 7    1  0.4687179E-006  0.1348067E+03  0.7561462E-02  0.1220493E+00
         -1   -1    0    0    0  501 -0.00000000000E+00  0.00000000000E+00  0.13084079867E+02  0.13084079867E+02  0.00000000000E+00 0.  1.
          1   -1    0    0  501    0  0.00000000000E+00 -0.00000000000E+00 -0.14196596803E+04  0.14196596803E+04  0.00000000000E+00 0. -1.
         23    2    1    2    0    0  0.72250869247E+02 -0.16563192165E+02 -0.68466682584E+03  0.69633776781E+03  0.10306840946E+03 0.  0.
          5    1    1    2  502    0 -0.51565535547E+02  0.68962251652E+02 -0.36421103381E+03  0.37427522782E+03  0.41800000000E+01 0.  1.
         -5    1    1    2    0  502 -0.20685333700E+02 -0.52399059487E+02 -0.35769774074E+03  0.36213076450E+03  0.41800000000E+01 0.  1.
        -11    1    3    3    0    0  0.71242240768E+02  0.32170948308E+02 -0.43030067445E+03  0.43734322587E+03  0.00000000000E+00 0.  1.
         11    1    3    3    0    0  0.10086284784E+01 -0.48734140473E+02 -0.25436615139E+03  0.25899454193E+03  0.00000000000E+00 0. -1.
</event>
<event>
 7    1  0.4687179E-006  0.1771373E+03  0.7561462E-02  0.1170603E+00
          2   -1    0    0  501    0  0.00000000000E+00  0.00000000000E+00  0.48361227773E+03  0.48361227773E+03  0.00000000000E+00 0. -1.
         -2   -1    0    0    0  501 -0.00000000000E+00 -0.00000000000E+00 -0.79538226559E+02  0.79538226559E+02  0.00000000000E+00 0.  1.
         23    2    1    2    0    0 -0.12129598550E+03  0.10758024902E+03  0.19594450447E+03  0.27117652522E+03  0.94107560367E+02 0.  0.
          5    1    1    2  502    0  0.59728146909E+02 -0.17245904024E+02  0.16140404109E+03  0.17301332209E+03  0.41800000000E+01 0. -1.
         -5    1    1    2    0  502  0.61567838593E+02 -0.90334344998E+02  0.46725505608E+02  0.11896065698E+03  0.41800000000E+01 0. -1.
        -11    1    3    3    0    0  0.12025223736E+02  0.19050382306E+02  0.48910399376E+02  0.53849329049E+02  0.00000000000E+00 0. -1.
         11    1    3    3    0    0 -0.13332120924E+03  0.88529866715E+02  0.14703410509E+03  0.21732719617E+03  0.00000000000E+00 0.  1.
</event>
<event>
 7    1  0.4687179E-006  0.9494653E+02  0.7561462E-02  0.1291297E+00
         -1   -1    0    0    0  501 -0.00000000000E+00  0.00000000000E+00  0.51196151753E+02  0.51196151753E+02  0.00000000000E+00 0.  1.
          1   -1    0    0  501    0  0.00000000000E+00 -0.00000000000E+00 -0.34467718356E+03  0.34467718356E+03  0.00000000000E+00 0. -1.
         23    2    1    2    0    0  0.17093640467E+02 -0.61033642702E+01 -0.13961743457E+03  0.16743926500E+03  0.90628007971E+02 0.  0.
          5    1    1    2  502    0  0.45101573469E+02 -0.41031380591E+01 -0.15869547276E+03  0.16508395787E+03  0.41800000000E+01 0. -1.
         -5    1    1    2    0  502 -0.62195213936E+02  0.10206502329E+02  0.48318755136E+01  0.63350112449E+02  0.41800000000E+01 0.  1.
        -11    1    3    3    0    0  0.30233591080E+02  0.30142887261E+02 -0.32682164688E+02  0.53766044775E+02  0.00000000000E+00 0.  1.
         11    1    3    3    0    0 -0.13139950612E+02 -0.36246251532E+02 -0.10693526988E+03  0.11367322023E+03  0.00000000000E+00 0. -1.
</event>
<event>
 7    1  0.4687179E-006  0.5773740E+02  0.7561462E-02  0.1407580E+00
         -1   -1    0    0    0  501 -0.00000000000E+00  0.00000000000E+00  0.13825645707E+03  0.13825645707E+03  0.00000000000E+00 0.  1.
          1   -1    0    0  501    0  0.00000000000E+00 -0.00000000000E+00 -0.99338371607E+02  0.99338371607E+02  0.00000000000E+00 0. -1.
         23    2    1    2    0    0 -0.19663719361E+02 -0.92948939648E+01 -0.24120711462E+02  0.95840446449E+02  0.90169426865E+02 0.  0.
          5    1    1    2  502    0 -0.11864238869E+02 -0.27918868713E+01  0.94524026827E+02  0.95398211953E+02  0.41800000000E+01 0.  1.
         -5    1    1    2    0  502  0.31527958230E+02  0.12086780836E+02 -0.31485229898E+02  0.46356170278E+02  0.41800000000E+01 0.  1.
        -11    1    3    3    0    0  0.40294750138E+01 -0.34057314965E+02 -0.44335261085E+02  0.56051340278E+02  0.00000000000E+00 0. -1.
         11    1    3    3    0    0 -0.23693194375E+02  0.24762421000E+02  0.20214549623E+02  0.39789106171E+02  0.00000000000E+00 0.  1.
</event>
<event>
 7    1  0.4687179E-006  0.1097503E+03  0.7561462E-02  0.1261033E+00
         -1   -1    0    0    0  501 -0.00000000000E+00  0.00000000000E+00  0.31037078162E+03  0.31037078162E+03  0.00000000000E+00 0.  1.
          1   -1    0    0  501    0  0.00000000000E+00 -0.00000000000E+00 -0.65374700731E+02  0.65374700731E+02  0.00000000000E+00 0. -1.
         23    2    1    2    0    0  0.34399195140E+02  0.59010053332E+02  0.52526144727E+02  0.13625957348E+03  0.10555654629E+03 0.  0.
          5    1    1    2  502    0 -0.13067165331E+02 -0.89075018720E+02  0.17827787225E+03  0.19976381530E+03  0.41800000000E+01 0.  1.
         -5    1    1    2    0  502 -0.21332029809E+02  0.30064965388E+02  0.14192063910E+02  0.39722093570E+02  0.41800000000E+01 0.  1.
        -11    1    3    3    0    0  0.52333608649E+02  0.49216913201E+02  0.76375280139E+02  0.10485368165E+03  0.00000000000E+00 0.  1.
         11    1    3    3    0    0 -0.17934413510E+02  0.97931401312E+01 -0.23849135412E+02  0.31405891827E+02  0.00000000000E+00 0. -1.
</event>
<event>
 7    1  0.4687179E-006  0.2381973E+03  0.7561462E-02  0.1121000E+00
         -1   -1    0    0    0  501 -0.00000000000E+00  0.00000000000E+00  0.39868311051E+03  0.39868311051E+03  0.00000000000E+00 0.  1.
          1   -1    0    0  501    0  0.00000000000E+00 -0.00000000000E+00 -0.17031077178E+03  0.17031077178E+03  0.00000000000E+00 0. -1.
         23    2    1    2    0    0  0.71779499307E+02  0.20934150248E+03  0.18183089171E+02  0.23914257741E+03  0.88782804737E+02 0.  0.
          5    1    1    2  502    0  0.11631799508E+02  0.69571411952E+01  0.39406212938E+02  0.41881052894E+02  0.41800000000E+01 0. -1.
         -5    1    1    2    0  502 -0.83411298814E+02 -0.21629864368E+03  0.17078303663E+03  0.28797025198E+03  0.41800000000E+01 0. -1.
        -11    1    3    3    0    0  0.51049846848E+02  0.56655367033E+02 -0.22985490729E+02  0.79650802010E+02  0.00000000000E+00 0.  1.
         11    1    3    3    0    0  0.20729652459E+02  0.15268613545E+03  0.41168579901E+02  0.15949177540E+03  0.00000000000E+00 0. -1.
</event>
<event>
 7    1  0.4687179E-006  0.1010616E+03  0.7561462E-02  0.1278079E+00
         -3   -1    0    0    0  501 -0.00000000000E+00  0.00000000000E+00  0.28622270181E+03  0.28622270181E+03  0.00000000000E+00 0.  1.
          3   -1    0    0  501    0  0.00000000000E+00 -0.00000000000E+00 -0.45999652384E+02  0.45999652384E+02  0.00000000000E+00 0. -1.
         23    2    1    2    0    0 -0.39072489669E+02 -0.93392205094E+01  0.81169182162E+02  0.12592312851E+03  0.87488957424E+02 0.  0.
          5    1    1    2  502    0  0.28046054783E+02  0.63129747964E+02  0.54346567759E+02  0.87994136703E+02  0.41800000000E+01 0. -1.
         -5    1    1    2    0  502  0.11026434886E+02 -0.53790527455E+02  0.10470729951E+03  0.11830508899E+03  0.41800000000E+01 0. -1.
        -11    1    3    3    0    0 -0.29982537582E+02  0.27026213515E+02  0.45435131929E+01  0.40620343289E+02  0.00000000000E+00 0.  1.
         11    1    3    3    0    0 -0.90899520874E+01 -0.36365434025E+02  0.76625668969E+02  0.85302785216E+02  0.00000000000E+00 0. -1.
</event>
<event>
 7    1  0.4687179E-006  0.1567196E+03  0.7561462E-02  0.1192451E+00
          2   -1    0    0  501    0  0.00000000000E+00  0.00000000000E+00  0.97845356979E+03  0.97845356979E+03  0.00000000000E+00 0.  1.
         -2   -1    0    0    0  501 -0.00000000000E+00 -0.00000000000E+00 -0.53503219355E+02  0.53503219355E+02  0.00000000000E+00 0. -1.
         23    2    1    2    0    0  0.10356035857E+03 -0.10025655322E+03  0.76247931069E+03  0.78131143957E+03  0.91086453707E+02 0.  0.
          5    1    1    2  502    0 -0.82509363053E+02  0.76809316990E+02  0.33294997713E+02  0.11761588090E+03  0.41800000000E+01 0. -1.
         -5    1    1    2    0  502 -0.21050995517E+02  0.23447236233E+02  0.12917604203E+03  0.13302946867E+03  0.41800000000E+01 0. -1.
        -11    1    3    3    0    0 -0.90344104663E+01 -0.40268784937E+02  0.14324337969E+03  0.14906998839E+03  0.00000000000E+00 0.  1.
         11    1    3    3    0    0  0.11259476904E+03 -0.59987768285E+02  0.61923593099E+03  0.63224145118E+03  0.00000000000E+00 0. -1.
</event>
<event>
 7    1  0.4687179E-006  0.1164693E+03  0.7561462E-02  0.1249038E+00
         -1   -1    0    0    0  501 -0.00000000000E+00  0.00000000000E+00  0.42668292618E+02  0.42668292618E+02  0.00000000000E+00 0.  1.
          1   -1    0    0  501    0  0.00000000000E+00 -0.00000000000E+00 -0.36977256599E+03  0.36977256599E+03  0.00000000000E+00 0. -1.
         23    2    1    2    0    0 -0.51653615891E+01 -0.46014257375E+02 -0.21255656191E+03  0.23662386390E+03  0.93094404315E+02 0.  0.
          5    1    1    2  502    0 -0.52211161177E+02  0.48541192092E+02 -0.85250085170E+02  0.11120837245E+03  0.41800000000E+01 0.  1.
         -5    1    1    2    0  502  0.57376522766E+02 -0.25269347172E+01 -0.29297626292E+02  0.64608622258E+02  0.41800000000E+01 0.  1.
        -11    1    3    3    0    0 -0.42594395803E+02 -0.50703687086E+02 -0.13258802326E+03  0.14820502808E+03  0.00000000000E+00 0. -1.
         11    1    3    3    0    0  0.37429034214E+02  0.46894297113E+01 -0.79968538651E+02  0.88418835817E+02  0.00000000000E+00 0.  1.
</event>
<event>
 7    1  0.4687179E-006  0.6274503E+02  0.7561462E-02  0.1386660E+00
          2   -1    0    0  501    0  0.00000000000E+00  0.00000000000E+00  0.15308287075E+03  0.15308287075E+03  0.00000000000E+00 0. -1.
         -2   -1    0    0    0  501 -0.00000000000E+00 -0.00000000000E+00 -0.79820422979E+02  0.79820422979E+02  0.00000000000E+00 0.  1.
         23    2    1    2    0    0 -0.21136294689E+02 -0.14865481573E+02  0.34027885408E+02  0.99281018005E+02  0.89616393898E+02 0.  0.
          5    1    1    2  502    0 -0.30117953033E+02 -0.34724378912E+00  0.66748365844E+02  0.73348676989E+02  0.41800000000E+01 0. -1.
         -5    1    1    2    0  502  0.51254247722E+02  0.15212725362E+02 -0.27513803480E+02  0.60273598735E+02  0.41800000000E+01 0. -1.
        -11    1    3    3    0    0 -0.17641719741E+02 -0.25077165144E+02  0.62071989819E+02  0.69231686439E+02  0.00000000000E+00 0. -1.
         11    1    3    3    0    0 -0.34945749478E+01  0.10211683571E+02 -0.28044104411E+02  0.30049331567E+02  0.00000000000E+00 0.  1.
</event>
<event>
 7    1  0.4687179E-006  0.1030454E+03  0.7561462E-02  0.1274019E+00
         -2   -1    0    0    0  501 -0.00000000000E+00  0.00000000000E+00  0.56703115409E+02  0.56703115409E+02  0.00000000000E+00 0.  1.
          2   -1    0    0  501    0  0.00000000000E+00 -0.00000000000E+00 -0.27533707258E+03  0.27533707258E+03  0.00000000000E+00 0. -1.
         23    2    1    2    0    0 -0.24292719192E+02  0.29489607117E+02 -0.16377755809E+03  0.19020551442E+03  0.88855365893E+02 0.  0.
          5    1    1    2  502    0  0.33697186237E+02 -0.73001557975E+02 -0.54312774658E+02  0.97118884456E+02  0.41800000000E+01 0.  1.
         -5    1    1    2    0  502 -0.94044670448E+01  0.43511950857E+02 -0.54362441460E+00  0.44715789105E+02  0.41800000000E+01 0.  1.
        -11    1    3    3    0    0  0.22499618637E+02  0.25344459770E+02 -0.20931012498E+02  0.39833174165E+02  0.00000000000E+00 0.  1.
         11    1    3    3    0    0 -0.46792337829E+02  0.41451473478E+01 -0.14284654560E+03  0.15037234026E+03  0.00000000000E+00 0. -1.
</event>
<event>
 7    1  0.4687179E-006  0.1525943E+03  0.7561462E-02  0.1197321E+00
         -1   -1    0    0    0  501 -0.00000000000E+00  0.00000000000E+00  0.59240382402E+03  0.59240382402E+03  0.00000000000E+00 0.  1.
          1   -1    0    0  501    0  0.00000000000E+00 -0.00000000000E+00 -0.63627422393E+02  0.63627422393E+02  0.00000000000E+00 0. -1.
         23    2    1    2    0    0  0.90098376098E+02  0.99686000748E+02  0.10202713405E+03  0.19146980175E+03  0.90532495709E+02 0.  0.
          5    1    1    2  502    0 -0.67832949217E+01  0.73741868343E+01 -0.50214000804E+01  0.11961545896E+02  0.41800000000E+01 0. -1.
         -5    1    1    2    0  502 -0.83315081176E+02 -0.10706018758E+03  0.43177066765E+03  0.45259989876E+03  0.41800000000E+01 0. -1.
        -11    1    3    3    0    0  0.61613636643E+02  0.74352297479E+01  0.21284995312E+02  0.65609251537E+02  0.00000000000E+00 0. -1.
         11    1    3    3    0    0  0.28484739454E+02  0.92250771000E+02  0.80742138742E+02  0.12586055022E+03  0.00000000000E+00 0.  1.
</event>
<event>
 7    1  0.4687179E-006  0.1077701E+03  0.7561462E-02  0.1264756E+00
          1   -1    0    0  501    0  0.00000000000E+00  0.00000000000E+00  0.10710507259E+03  0.10710507259E+03  0.00000000000E+00 0. -1.
         -1   -1    0    0    0  501 -0.00000000000E+00 -0.00000000000E+00 -0.15170677294E+03  0.15170677294E+03  0.00000000000E+00 0.  1.
         23    2    1    2    0    0  0.64380397424E+02  0.17996061287E+02 -0.11298570462E+02  0.11312851354E+03  0.90563287739E+02 0.  0.
          5    1    1    2  502    0 -0.14282436016E+02 -0.52303998602E+02 -0.58445714719E+02  0.79831511431E+02  0.41800000000E+01 0. -1.
         -5    1    1    2    0  502 -0.50097961408E+02  0.34307937316E+02  0.25142584832E+02  0.65851820568E+02  0.41800000000E+01 0. -1.
        -11    1    3    3    0    0  0.53986880036E+02  0.45684530334E+02 -0.31388915982E+02  0.77375212920E+02  0.00000000000E+00 0.  1.
         11    1    3    3    0    0  0.10393517387E+02 -0.27688469047E+02  0.20090345520E+02  0.35753300616E+02  0.00000000000E+00 0. -1.
</event>
<event>
 7    1  0.4687179E-006  0.1082875E+03  0.7561462E-02  0.1263774E+00
          2   -1    0    0  501    0  0.00000000000E+00  0.00000000000E+00  0.34190883527E+03  0.34190883527E+03  0.00000000000E+00 0. -1.
         -2   -1    0    0    0  501 -0.00000000000E+00 -0.00000000000E+00 -0.65424637162E+02  0.65424637162E+02  0.00000000000E+00 0.  1.
         23    2    1    2    0    0 -0.96265966058E+02  0.40762374574E+01  0.17618586796E+03  0.22019165515E+03  0.90328029945E+02 0.  0.
          5    1    1    2  502    0  0.74803020370E+02  0.28370101830E+02  0.67899679373E+00  0.80114218283E+02  0.41800000000E+01 0.  1.
         -5    1    1    2    0  502  0.21462945687E+02 -0.32446339288E+02  0.99619333351E+02  0.10702759900E+03  0.41800000000E+01 0.  1.
        -11    1    3    3    0    0 -0.30007313600E+02 -0.51272251909E+01  0.14169558881E+03  0.14492883493E+03  0.00000000000E+00 0. -1.
         11    1    3    3    0    0 -0.66258652457E+02  0.92034626483E+01  0.34490279153E+02  0.75262820212E+02  0.00000000000E+00 0.  1.
</event>
<event>
 7    1  0.4687179E-006  0.7611031E+02  0.7561462E-02  0.1340467E+00
          1   -1    0    0  501    0  0.00000000000E+00  0.00000000000E+00  0.27642288575E+03  0.27642288575E+03  0.00000000000E+00 0. -1.
         -1   -1    0    0    0  501 -0.00000000000E+00 -0.00000000000E+00 -0.44755776994E+02  0.44755776994E+02  0.00000000000E+00 0.  1.
         23    2    1    2    0    0  0.10453039218E+02 -0.21284047687E+02  0.93116601924E+02  0.13301149093E+03  0.91973248560E+02 0.  0.
          5    1    1    2  502    0  0.17082484455E+02 -0.95730274106E+01 -0.17550829249E+02  0.26626267787E+02  0.41800000000E+01 0.  1.
         -5    1    1    2    0  502 -0.27535523673E+02  0.30857075097E+02  0.15610133608E+03  0.16154090402E+03  0.41800000000E+01 0.  1.
        -11    1    3    3    0    0 -0.38392031189E+02 -0.31255044136E+01  0.20508040134E+02  0.43638246376E+02  0.00000000000E+00 0.  1.
         11    1    3    3    0    0  0.48845070407E+02 -0.18158543273E+02  0.72608561790E+02  0.89373244553E+02  0.00000000000E+00 0. -1.
</event>
<event>
 7    1  0.4687179E-006  0.7449725E+02  0.7561462E-02  0.1345435E+00
          2   -1    0    0  501    0  0.00000000000E+00  0.00000000000E+00  0.15224043438E+03  0.15224043438E+03  0.00000000000E+00 0. -1.
         -2   -1    0    0    0  501 -0.00000000000E+00 -0.00000000000E+00 -0.98723776751E+02  0.98723776751E+02  0.00000000000E+00 0.  1.
         23    2    1    2    0    0  0.39941380565E+02 -0.37919814798E+02  0.38498305111E+02  0.11346093032E+03  0.91422300214E+02 0.  0.
          5    1    1    2  502    0 -0.32577400886E+02  0.60922474128E+02 -0.38097370547E+02  0.79004537496E+02  0.41800000000E+01 0.  1.
         -5    1    1    2    0  502 -0.73639796782E+01 -0.23002659330E+02  0.53115723061E+02  0.58498743314E+02  0.41800000000E+01 0.  1.
        -11    1    3    3    0    0  0.63815631165E+01 -0.85869235888E+01 -0.29936538505E+02  0.31790815375E+02  0.00000000000E+00 0.  1.
         11    1    3    3    0    0  0.33559817448E+02 -0.29332891209E+02  0.68434843617E+02  0.81670114942E+02  0.00000000000E+00 0. -1.
</event>
<event>
 7    1  0.4687179E-006  0.1274424E+03  0.7561462E-02  0.1231301E+00
         -1   -1    0    0    0  501 -0.00000000000E+00  0.00000000000E+00  0.24754398598E+03  0.24754398598E+03  0.00000000000E+00 0.  1.
          1   -1    0    0  501    0  0.00000000000E+00 -0.00000000000E+00 -0.77779607473E+02  0.77779607473E+02  0.00000000000E+00 0. -1.
         23    2    1    2    0    0  0.31627759977E+02  0.71174235640E+02  0.88306581941E+02  0.15695645170E+03  0.10378433551E+03 0.  0.
          5    1    1    2  502    0 -0.51204390221E+02  0.69685358765E+01 -0.25413447060E+01  0.51907426281E+02  0.41800000000E+01 0. -1.
         -5    1    1    2    0  502  0.19576630244E+02 -0.78142771517E+02  0.83999141271E+02  0.11645971547E+03  0.41800000000E+01 0. -1.
        -11    1    3    3    0    0 -0.17778761495E+02 -0.14854072402E+02 -0.13952030694E+01  0.23209360586E+02  0.00000000000E+00 0.  1.
         11    1    3    3    0    0  0.49406521472E+02  0.86028308043E+02  0.89701785010E+02  0.13374709112E+03  0.00000000000E+00 0. -1.
</event>
<event>
 7    1  0.4687179E-006  0.9628568E+02  0.7561462E-02  0.1288306E+00
         -1   -1    0    0    0  501 -0.00000000000E+00  0.00000000000E+00  0.49007743816E+02  0.49007743816E+02  0.00000000000E+00 0. -1.
          1   -1    0    0  501    0  0.00000000000E+00 -0.00000000000E+00 -0.29288425207E+03  0.29288425207E+03  0.00000000000E+00 0.  1.
         23    2    1    2    0    0 -0.21533234918E+02 -0.47172035831E+02 -0.11050938745E+03  0.15183028285E+03  0.90284156448E+02 0.  0.
          5    1    1    2  502    0  0.47550108123E+02  0.50930502982E+02 -0.14506662652E+03  0.16098673066E+03  0.41800000000E+01 0.  1.
         -5    1    1    2    0  502 -0.26016873205E+02 -0.37584671503E+01  0.11699505713E+02  0.29074982384E+02  0.41800000000E+01 0.  1.
        -11    1    3    3    0    0 -0.35543697312E+02 -0.64634751213E+02 -0.55105932239E+02  0.92074259437E+02  0.00000000000E+00 0. -1.
         11    1    3    3    0    0  0.14010462394E+02  0.17462715382E+02 -0.55403455207E+02  0.59756023410E+02  0.00000000000E+00 0.  1.
</event>
<event>
 6    1  0.4687179E-006  0.9294218E+02  0.7561462E-02  0.1295879E+00
         -1   -1    0    0    0  501 -0.00000000000E+00  0.00000000000E+00  0.25123204210E+03  0.25123204210E+03  0.00000000000E+00 0.  1.
          1   -1    0    0  501    0  0.00000000000E+00 -0.00000000000E+00 -0.44485739258E+02  0.44485739258E+02  0.00000000000E+00 0. -1.
          5    1    1    2  502    0  0.81552814956E+02 -0.19482824469E+02  0.13197771729E+03  0.15641621507E+03  0.41800000000E+01 0.  1.
         -5    1    1    2    0  502 -0.45040817860E+02 -0.16042884353E+02  0.41549622958E+02  0.63481438073E+02  0.41800000000E+01 0.  1.
        -11    1    1    2    0    0 -0.15246729224E+02  0.37475329675E+01 -0.96083149017E+01  0.18407239626E+02  0.00000000000E+00 0. -1.
         11    1    1    2    0    0 -0.21265267871E+02  0.31778175854E+02  0.42827277497E+02  0.57412888588E+02  0.00000000000E+00 0.  1.
</event>
<event>
 7    1  0.4687179E-006  0.1277742E+03  0.7561462E-02  0.1230796E+00
         -1   -1    0    0    0  501 -0.00000000000E+00  0.00000000000E+00  0.17300239274E+03  0.17300239274E+03  0.00000000000E+00 0.  1.
          1   -1    0    0  501    0  0.00000000000E+00 -0.00000000000E+00 -0.13257587180E+03  0.13257587180E+03  0.00000000000E+00 0. -1.
         23    2    1    2    0    0 -0.78831782513E+02 -0.42664206329E+02 -0.37437699408E+02  0.13310313651E+03  0.90995489863E+02 0.  0.
          5    1    1    2  502    0 -0.17279287499E+02 -0.97563235593E+01 -0.17835599876E+02  0.27006307574E+02  0.41800000000E+01 0.  1.
         -5    1    1    2    0  502  0.96111070012E+02  0.52420529888E+02  0.95699820227E+02  0.14546882045E+03  0.41800000000E+01 0.  1.
        -11    1    3    3    0    0  0.25910574236E+01 -0.44199361583E+02 -0.20877060022E+01  0.44324436367E+02  0.00000000000E+00 0.  1.
         11    1    3    3    0    0 -0.81422839936E+02  0.15351552537E+01 -0.35349993405E+02  0.88778700141E+02  0.00000000000E+00 0. -1.
</event>
<event>
 7    1  0.4687179E-006  0.1324928E+03  0.7561462E-02  0.1223803E+00
         -4   -1    0    0    0  501 -0.00000000000E+00  0.00000000000E+00  0.12716622104E+03  0.12716622104E+03  0.00000000000E+00 0.  1.
          4   -1    0    0  501    0  0.00000000000E+00 -0.00000000000E+00 -0.22095374855E+03  0.22095374855E+03  0.00000000000E+00 0. -1.
         23    2    1    2    0    0  0.88607873979E+02 -0.37059574005E+02 -0.12765558225E+03  0.18681263343E+03  0.96841339175E+02 0.  0.
          5    1    1    2  502    0 -0.85536065466E+02 -0.54762209810E+01 -0.24181485813E+02  0.89155056771E+02  0.41800000000E+01 0.  1.
         -5    1    1    2    0  502 -0.30718085129E+01  0.42535794986E+02  0.58049540555E+02  0.72152279391E+02  0.41800000000E+01 0.  1.
        -11    1    3    3    0    0  0.10904999724E+03 -0.38938532025E+02 -0.11054487847E+03  0.16008835476E+03  0.00000000000E+00 0. -1.
         11    1    3    3    0    0 -0.20442123259E+02  0.18789580201E+01 -0.17110703776E+02  0.26724278667E+02  0.00000000000E+00 0.  1.
</event>
<event>
 7    1  0.4687179E-006  0.1106530E+03  0.7561462E-02  0.1259365E+00
         -1   -1    0    0    0  501 -0.00000000000E+00  0.00000000000E+00  0.88539283168E+02  0.88539283168E+02  0.00000000000E+00 0.  1.
          1   -1    0    0  501    0  0.00000000000E+00 -0.00000000000E+00 -0.20302110613E+03  0.20302110613E+03  0.00000000000E+00 0. -1.
         23    2    1    2    0    0 -0.38099725446E+02  0.47112161038E+02 -0.11532262709E+03  0.15860182003E+03  0.90465928400E+02 0.  0.
          5    1    1    2  502    0  0.49961139943E+02  0.24871963730E+02 -0.15513396334E+02  0.58076397530E+02  0.41800000000E+01 0. -1.
         -5    1    1    2    0  502 -0.11861414497E+02 -0.71984124768E+02  0.16354200456E+02  0.74882171744E+02  0.41800000000E+01 0.  1.
        -11    1    3    3    0    0  0.20462157365E+02  0.15840224343E+02 -0.78564750711E+02  0.82716580234E+02  0.00000000000E+00 0.  1.
         11    1    3    3    0    0 -0.58561882811E+02  0.31271936695E+02 -0.36757876376E+02  0.75885239794E+02  0.00000000000E+00 0. -1.
</event>
<event>
 7    1  0.4687179E-006  0.1044375E+03  0.7561462E-02  0.1271232E+00
         -1   -1    0    0    0  501 -0.00000000000E+00  0.00000000000E+00  0.13867547678E+03  0.13867547678E+03  0.00000000000E+00 0.  1.
          1   -1    0    0  501    0  0.00000000000E+00 -0.00000000000E+00 -0.13661001947E+03  0.13661001947E+03  0.00000000000E+00 0. -1.
         23    2    1    2    0    0 -0.66773518250E+01  0.54661285897E+02 -0.62933881618E+02  0.12406549016E+03  0.91646763119E+02 0.  0.
          5    1    1    2  502    0  0.52124059595E+02 -0.28454206013E+02 -0.92136957492E+01  0.60240551275E+02  0.41800000000E+01 0.  1.
         -5    1    1    2    0  502 -0.45446707770E+02 -0.26207079884E+02  0.74213034674E+02  0.90979454816E+02  0.41800000000E+01 0.  1.
        -11    1    3    3    0    0 -0.41353411720E+02  0.14895859334E+02 -0.27662904684E+01  0.44041385641E+02  0.00000000000E+00 0. -1.
         11    1    3    3    0    0  0.34676059895E+02  0.39765426563E+02 -0.60167591149E+02  0.80024104521E+02  0.00000000000E+00 0.  1.
</event>
<event>
 7    1  0.4687179E-006  0.1157152E+03  0.7561462E-02  0.1250338E+00
          1   -1    0    0  501    0  0.00000000000E+00  0.00000000000E+00  0.72078979432E+03  0.72078979432E+03  0.00000000000E+00 0. -1.
         -1   -1    0    0    0  501 -0.00000000000E+00 -0.00000000000E+00 -0.23836864427E+02  0.23836864427E+02  0.00000000000E+00 0.  1.
         23    2    1    2    0    0 -0.72924184699E+02 -0.56049558186E+01  0.33106385543E+03  0.35108957209E+03  0.91166106737E+02 0.  0.
          5    1    1    2  502    0  0.97995372072E+01  0.40806149981E+02  0.34955626476E+02  0.54777194416E+02  0.41800000000E+01 0.  1.
         -5    1    1    2    0  502  0.63124647492E+02 -0.35201194162E+02  0.33093344799E+03  0.33875989224E+03  0.41800000000E+01 0.  1.
        -11    1    3    3    0    0 -0.32065514385E+02  0.42823002465E+02  0.15473842984E+03  0.16372534447E+03  0.00000000000E+00 0. -1.
         11    1    3    3    0    0 -0.40858670314E+02 -0.48427958283E+02  0.17632542559E+03  0.18736422762E+03  0.00000000000E+00 0.  1.
</event>
<event>
 7    1  0.4687179E-006  0.1045052E+03  0.7561462E-02  0.1271097E+00
          1   -1    0    0  501    0  0.00000000000E+00  0.00000000000E+00  0.17525274894E+03  0.17525274894E+03  0.00000000000E+00 0. -1.
         -1   -1    0    0    0  501 -0.00000000000E+00 -0.00000000000E+00 -0.73250815056E+02  0.73250815056E+02  0.00000000000E+00 0.  1.
         23    2    1    2    0    0 -0.26739445909E+02  0.13082410070E+02  0.60935815066E+02  0.11351898435E+03  0.91034272829E+02 0.  0.
          5    1    1    2  502    0 -0.45006101687E+02  0.11729561152E+02  0.35673168074E+02  0.58763756809E+02  0.41800000000E+01 0. -1.
         -5    1    1    2    0  502  0.71745547596E+02 -0.24811971222E+02  0.53929507408E+01  0.76220822834E+02  0.41800000000E+01 0. -1.
        -11    1    3    3    0    0 -0.37059717738E+02 -0.26382794867E+02  0.72061074243E+01  0.46058685696E+02  0.00000000000E+00 0.  1.
         11    1    3    3    0    0  0.10320271829E+02  0.39465204937E+02  0.53729707642E+02  0.67460298654E+02  0.00000000000E+00 0. -1.
</event>
<event>
 7    1  0.4687179E-006  0.1600708E+03  0.7561462E-02  0.1188617E+00
         -1   -1    0    0    0  501 -0.00000000000E+00  0.00000000000E+00  0.16175881643E+03  0.16175881643E+03  0.00000000000E+00 0.  1.
          1   -1    0    0  501    0  0.00000000000E+00 -0.00000000000E+00 -0.17906945620E+03  0.17906945620E+03  0.00000000000E+00 0. -1.
         23    2    1    2    0    0 -0.97788619181E+02  0.87684960335E+02 -0.23421141476E+02  0.15934855283E+03  0.87132916337E+02 0.  0.
          5    1    1    2  502    0  0.12075681551E+03 -0.39356531944E+02 -0.26111755865E+01  0.12710403509E+03  0.41800000000E+01 0.  1.
         -5    1    1    2    0  502 -0.22968196328E+02 -0.48328428391E+02  0.87216772998E+01  0.54375684714E+02  0.41800000000E+01 0.  1.
        -11    1    3    3    0    0 -0.73535283755E+02  0.35097255129E+02 -0.50031874273E+02  0.95616126871E+02  0.00000000000E+00 0. -1.
         11    1    3    3    0    0 -0.24253335426E+02  0.52587705206E+02  0.26610732797E+02  0.63732425955E+02  0.00000000000E+00 0.  1.
</event>
<event>
 7    1  0.4687179E-006  0.9136210E+02  0.7561462E-02  0.1299586E+00
          1   -1    0    0  501    0  0.00000000000E+00  0.00000000000E+00  0.44613467421E+03  0.44613467421E+03  0.00000000000E+00 0. -1.
         -1   -1    0    0    0  501 -0.00000000000E+00 -0.00000000000E+00 -0.28525043988E+02  0.28525043988E+02  0.00000000000E+00 0.  1.
         23    2    1    2    0    0  0.24546220933E+02  0.24221214368E+02  0.15535241177E+03  0.18205965378E+03  0.88442984495E+02 0.  0.
          5    1    1    2  502    0  0.26393320260E+02 -0.44641394757E+02  0.45995192787E+02  0.69444162027E+02  0.41800000000E+01 0.  1.
         -5    1    1    2    0  502 -0.50939541193E+02  0.20420180389E+02  0.21626202567E+03  0.22315590239E+03  0.41800000000E+01 0.  1.
        -11    1    3    3    0    0  0.46713658263E+02  0.25922835932E+02  0.46089614985E+02  0.70557862075E+02  0.00000000000E+00 0.  1.
         11    1    3    3    0    0 -0.22167437330E+02 -0.17016215645E+01  0.10926279678E+03  0.11150179171E+03  0.00000000000E+00 0. -1.
</event>
<event>
 7    1  0.4687179E-006  0.1896567E+03  0.7561462E-02  0.1158771E+00
         -1   -1    0    0    0  501 -0.00000000000E+00  0.00000000000E+00  0.12534323691E+03  0.12534323691E+03  0.00000000000E+00 0.  1.
          1   -1    0    0  501    0  0.00000000000E+00 -0.00000000000E+00 -0.36236156235E+03  0.36236156235E+03  0.00000000000E+00 0. -1.
         23    2    1    2    0    0  0.15592170126E+03 -0.40266601689E+02 -0.21370941687E+03  0.28246317358E+03  0.90447517577E+02 0.  0.
          5    1    1    2  502    0  0.86238398014E+01  0.30602667584E+02 -0.24498582156E+02  0.40355257449E+02  0.41800000000E+01 0.  1.
         -5    1    1    2    0  502 -0.16454554106E+03  0.96639341047E+01  0.11896735849E+01  0.16488636823E+03  0.41800000000E+01 0.  1.
        -11    1    3    3    0    0  0.93570590062E+02  0.19958686972E+02 -0.89624892064E+02  0.13109700907E+03  0.00000000000E+00 0.  1.
         11    1    3    3    0    0  0.62351111194E+02 -0.60225288661E+02 -0.12408452481E+03  0.15136616451E+03  0.00000000000E+00 0. -1.
</event>
<event>
 7    1  0.4687179E-006  0.8225550E+02  0.7561462E-02  0.1322770E+00
         -1   -1    0    0    0  501 -0.00000000000E+00  0.00000000000E+00  0.42139486974E+02  0.42139486974E+02  0.00000000000E+00 0.  1.
          1   -1    0    0  501    0  0.00000000000E+00 -0.00000000000E+00 -0.27573137625E+03  0.27573137625E+03  0.00000000000E+00 0. -1.
         23    2    1    2    0    0  0.91467907210E+00 -0.15168645230E+01 -0.12156997203E+03  0.14994272571E+03  0.87752067661E+02 0.  0.
          5    1    1    2  502    0 -0.24122026648E+02  0.56193027027E+02 -0.35032946100E+02  0.70599632921E+02  0.41800000000E+01 0. -1.
         -5    1    1    2    0  502  0.23207347575E+02 -0.54676162504E+02 -0.76988971146E+02  0.97328504591E+02  0.41800000000E+01 0. -1.
        -11    1    3    3    0    0  0.18980615651E+02  0.10770648654E+02  0.42553024786E+01  0.22234618101E+02  0.00000000000E+00 0.  1.
         11    1    3    3    0    0 -0.18065936579E+02 -0.12287513177E+02 -0.12582527451E+03  0.12770810761E+03  0.00000000000E+00 0. -1.
</event>
<event>
 7    1  0.4687179E-006  0.1111738E+03  0.7561462E-02  0.1258412E+00
         -2   -1    0    0    0  501 -0.00000000000E+00  0.00000000000E+00  0.13216039333E+03  0.13216039333E+03  0.00000000000E+00 0.  1.
          2   -1    0    0  501    0  0.00000000000E+00 -0.00000000000E+00 -0.14201634887E+03  0.14201634887E+03  0.00000000000E+00 0. -1.
         23    2    1    2    0    0  0.53961221129E+02 -0.63114216367E+02 -0.15426033804E+02  0.12364732881E+03  0.90307705704E+02 0.  0.
          5    1    1    2  502    0  0.17605431265E+02 -0.18197135351E+02  0.29929522058E+02  0.39425063547E+02  0.41800000000E+01 0. -1.
         -5    1    1    2    0  502 -0.71566652393E+02  0.81311351719E+02 -0.24359443788E+02  0.11110434985E+03  0.41800000000E+01 0. -1.
        -11    1    3    3    0    0  0.21231258620E+02 -0.47482102787E+02  0.34148273076E+02  0.62220743983E+02  0.00000000000E+00 0.  1.
         11    1    3    3    0    0  0.32729962508E+02 -0.15632113581E+02 -0.49574306881E+02  0.61426584827E+02  0.00000000000E+00 0. -1.
</event>
<event>
 7    1  0.4687179E-006  0.1007739E+03  0.7561462E-02  0.1278677E+00
         -1   -1    0    0    0  501 -0.00000000000E+00  0.00000000000E+00  0.52599999505E+02  0.52599999505E+02  0.00000000000E+00 0.  1.
          1   -1    0    0  501    0  0.00000000000E+00 -0.00000000000E+00 -0.28054928489E+03  0.28054928489E+03  0.00000000000E+00 0. -1.
         23    2    1    2    0    0  0.91518698311E+01  0.26392777122E+02 -0.16410992376E+03  0.18996090646E+03  0.91502696675E+02 0.  0.
          5    1    1    2  502    0  0.18616619837E+02 -0.71835526053E+02 -0.42851269031E+02  0.85794084848E+02  0.41800000000E+01 0. -1.
         -5    1    1    2    0  502 -0.27768489668E+02  0.45442748931E+02 -0.20988092595E+02  0.57394293093E+02  0.41800000000E+01 0. -1.
        -11    1    3    3    0    0 -0.13687099982E+02 -0.18748157619E+02 -0.60298537994E+01  0.23983103570E+02  0.00000000000E+00 0.  1.
         11    1    3    3    0    0  0.22838969813E+02  0.45140934741E+02 -0.15808006996E+03  0.16597780288E+03  0.00000000000E+00 0. -1.
</event>
<event>
 7    1  0.4687179E-006  0.1791526E+03  0.7561462E-02  0.1168626E+00
         -3   -1    0    0    0  501 -0.00000000000E+00  0.00000000000E+00  0.37282154450E+03  0.37282154450E+03  0.00000000000E+00 0.  1.
          3   -1    0    0  501    0  0.00000000000E+00 -0.00000000000E+00 -0.11027606730E+03  0.11027606730E+03  0.00000000000E+00 0. -1.
         23    2    1    2    0    0 -0.79160628517E+02 -0.15122177807E+03  0.10599770953E+03  0.21986843942E+03  0.89287092883E+02 0.  0.
          5    1    1    2  502    0 -0.13261380511E+02  0.43201712537E+02 -0.76234390832E+01  0.46020010893E+02  0.41800000000E+01 0.  1.
         -5    1    1    2    0  502  0.92422009028E+02  0.10802006553E+03  0.16417120674E+03  0.21720916149E+03  0.41800000000E+01 0.  1.
        -11    1    3    3    0    0 -0.29760674382E+02 -0.55034233358E+02  0.91390202275E+02  0.11075483580E+03  0.00000000000E+00 0.  1.
         11    1    3    3    0    0 -0.49399954134E+02 -0.96187544713E+02  0.14607507259E+02  0.10911360362E+03  0.00000000000E+00 0. -1.
</event>
<event>
 7    1  0.4687179E-006  0.1056616E+03  0.7561462E-02  0.1268822E+00
         -1   -1    0    0    0  501 -0.00000000000E+00  0.00000000000E+00  0.18785618601E+03  0.18785618601E+03  0.00000000000E+00 0.  1.
          1   -1    0    0  501    0  0.00000000000E+00 -0.00000000000E+00 -0.20983273879E+03  0.20983273879E+03  0.00000000000E+00 0. -1.
         23    2    1    2    0    0  0.21088295902E+02 -0.16103719172E+02 -0.17397673126E+03  0.19905361606E+03  0.93007489221E+02 0.  0.
          5    1    1    2  502    0 -0.72830516267E+02 -0.10600294117E+01  0.92889129453E+02  0.11811549658E+03  0.41800000000E+01 0.  1.
         -5    1    1    2    0  502  0.51742220365E+02  0.17163748584E+02  0.59111049024E+02  0.80519812161E+02  0.41800000000E+01 0.  1.
        -11    1    3    3    0    0  0.41768378907E+02  0.16641575485E+02 -0.42054344653E+02  0.61563848283E+02  0.00000000000E+00 0.  1.
         11    1    3    3    0    0 -0.20680083006E+02 -0.32745294657E+02 -0.13192238660E+03  0.13748976777E+03  0.00000000000E+00 0. -1.
</event>
<event>
 7    1  0.4687179E-006  0.1002719E+03  0.7561462E-02  0.1279725E+00
         -1   -1    0    0    0  501 -0.00000000000E+00  0.00000000000E+00  0.59095417956E+02  0.59095417956E+02  0.00000000000E+00 0.  1.
          1   -1    0    0  501    0  0.00000000000E+00 -0.00000000000E+00 -0.21886553168E+03  0.21886553168E+03  0.00000000000E+00 0. -1.
         23    2    1    2    0    0  0.77745528918E+01 -0.27001092754E+02 -0.45920474792E+02  0.10650421763E+03  0.91896439999E+02 0.  0.
          5    1    1    2  502    0  0.24693289741E+02  0.69766679146E+02 -0.60958986522E+02  0.95971967340E+02  0.41800000000E+01 0.  1.
         -5    1    1    2    0  502 -0.32467842633E+02 -0.42765586392E+02 -0.52890652405E+02  0.75484764665E+02  0.41800000000E+01 0.  1.
        -11    1    3    3    0    0 -0.22972120560E+02  0.94802855564E+01  0.15074675449E+02  0.29066131101E+02  0.00000000000E+00 0.  1.
         11    1    3    3    0    0  0.30746673452E+02 -0.36481378311E+02 -0.60995150241E+02  0.77438086526E+02  0.00000000000E+00 0. -1.
</event>
<event>
 7    1  0.4687179E-006  0.9689688E+02  0.7561462E-02  0.1286960E+00
         -4   -1    0    0    0  501 -0.00000000000E+00  0.00000000000E+00  0.12145582701E+03  0.12145582701E+03  0.00000000000E+00 0.  1.
          4   -1    0    0  501    0  0.00000000000E+00 -0.00000000000E+00 -0.12416217949E+03  0.12416217949E+03  0.00000000000E+00 0. -1.
         23    2    1    2    0    0 -0.47712789085E+02  0.11988373149E+02 -0.30652261296E+02  0.10832522248E+03  0.91512629559E+02 0.  0.
          5    1    1    2  502    0  0.76193865747E+00  0.33431904670E+02 -0.33495950762E+02  0.47515512391E+02  0.41800000000E+01 0. -1.
         -5    1    1    2    0  502  0.46950850427E+02 -0.45420277818E+02  0.61441859575E+02  0.89777271628E+02  0.41800000000E+01 0. -1.
        -11    1    3    3    0    0 -0.29993667314E+02  0.46791873221E+02  0.45254728883E+01  0.55763602676E+02  0.00000000000E+00 0.  1.
         11    1    3    3    0    0 -0.17719121771E+02 -0.34803500073E+02 -0.35177734184E+02  0.52561619800E+02  0.00000000000E+00 0. -1.
</event>
<event>
 7    1  0.4687179E-006  0.1767111E+03  0.7561462E-02  0.1171025E+00
         -2   -1    0    0    0  501 -0.00000000000E+00  0.00000000000E+00  0.50506389296E+02  0.50506389296E+02  0.00000000000E+00 0.  1.
          2   -1    0    0  501    0  0.00000000000E+00 -0.00000000000E+00 -0.76168336723E+03  0.76168336723E+03  0.00000000000E+00 0. -1.
         23    2    1    2    0    0  0.63807167506E+02 -0.15054982822E+03 -0.33578842074E+03  0.38405240331E+03  0.89475022081E+02 0.  0.
          5    1    1    2  502    0 -0.47434121457E+02  0.14028982442E+03 -0.18633706350E+03  0.23805504479E+03  0.41800000000E+01 0. -1.
         -5    1    1    2    0  502 -0.16373046049E+02  0.10260003805E+02 -0.18905149369E+03  0.19008230843E+03  0.41800000000E+01 0. -1.
        -11    1    3    3    0    0  0.70125858473E+01  0.11677028567E+02 -0.16115504464E+02  0.21100683414E+02  0.00000000000E+00 0.  1.
         11    1    3    3    0    0  0.56794581659E+02 -0.16222685679E+03 -0.31967291628E+03  0.36295171989E+03  0.00000000000E+00 0. -1.
</event>
<event>
 7    1  0.4687179E-006  0.1049406E+03  0.7561462E-02  0.1270237E+00
          1   -1    0    0  501    0  0.00000000000E+00  0.00000000000E+00  0.31550985743E+03  0.31550985743E+03  0.00000000000E+00 0. -1.
         -1   -1    0    0    0  501 -0.00000000000E+00 -0.00000000000E+00 -0.47723396436E+02  0.47723396436E+02  0.00000000000E+00 0.  1.
         23    2    1    2    0    0  0.17285807944E+02  0.50742949098E+02  0.14807430359E+03  0.18198260269E+03  0.91203192139E+02 0.  0.
          5    1    1    2  502    0 -0.37951077974E+02  0.11108037160E+02 -0.53733023246E+01  0.40125024446E+02  0.41800000000E+01 0. -1.
         -5    1    1    2    0  502  0.20665270030E+02 -0.61850986257E+02  0.12508545972E+03  0.14112562673E+03  0.41800000000E+01 0. -1.
        -11    1    3    3    0    0  0.45715484944E+02 -0.10072423250E+01  0.77304321721E+02  0.89815801826E+02  0.00000000000E+00 0. -1.
         11    1    3    3    0    0 -0.28429677001E+02  0.51750191423E+02  0.70769981871E+02  0.92166800859E+02  0.00000000000E+00 0.  1.
</event>
<event>
 7    1  0.4687179E-006  0.1532845E+03  0.7561462E-02  0.1196494E+00
          2   -1    0    0  501    0  0.00000000000E+00  0.00000000000E+00  0.73435784349E+03  0.73435784349E+03  0.00000000000E+00 0. -1.
         -2   -1    0    0    0  501 -0.00000000000E+00 -0.00000000000E+00 -0.43023621212E+02  0.43023621212E+02  0.00000000000E+00 0.  1.
         23    2    1    2    0    0 -0.15758586199E+02  0.18935489291E+02  0.23132005141E+03  0.24987475529E+03  0.91222482708E+02 0.  0.
          5    1    1    2  502    0 -0.32531358465E+02  0.89323047423E+02  0.35997364429E+03  0.37233774059E+03  0.41800000000E+01 0. -1.
         -5    1    1    2    0  502  0.48289944664E+02 -0.10825853671E+03  0.10004052657E+03  0.15516896881E+03  0.41800000000E+01 0.  1.
        -11    1    3    3    0    0  0.37540982672E+02  0.84119298421E+01  0.11978770423E+03  0.12581406928E+03  0.00000000000E+00 0.  1.
         11    1    3    3    0    0 -0.53299568871E+02  0.10523559448E+02  0.11153234718E+03  0.12406068601E+03  0.00000000000E+00 0. -1.
</event>
<event>
 7    1  0.4687179E-006  0.1050128E+03  0.7561462E-02  0.1270094E+00
          2   -1    0    0  501    0  0.00000000000E+00  0.00000000000E+00  0.40555832708E+03  0.40555832708E+03  0.00000000000E+00 0. -1.
         -2   -1    0    0    0  501 -0.00000000000E+00 -0.00000000000E+00 -0.36959194441E+02  0.36959194441E+02  0.00000000000E+00 0.  1.
         23    2    1    2    0    0  0.13259430916E+02  0.56727729178E+02  0.15265584748E+03  0.18624900932E+03  0.89392605608E+02 0.  0.
          5    1    1    2  502    0 -0.50496914678E+02 -0.36214281461E+02  0.20191995293E+03  0.21130677312E+03  0.41800000000E+01 0.  1.
         -5    1    1    2    0  502  0.37237483762E+02 -0.20513447717E+02  0.14023332223E+02  0.44961739077E+02  0.41800000000E+01 0.  1.
        -11    1    3    3    0    0  0.28374783809E+02  0.75656664042E+02  0.10223663507E+03  0.13031265756E+03  0.00000000000E+00 0.  1.
         11    1    3    3    0    0 -0.15115352893E+02 -0.18928934864E+02  0.50419212412E+02  0.55936351761E+02  0.00000000000E+00 0. -1.
</event>
<event>
 7    1  0.4687179E-006  0.2022928E+03  0.7561462E-02  0.1147819E+00
         -2   -1    0    0    0  501 -0.00000000000E+00  0.00000000000E+00  0.20111859975E+03  0.20111859975E+03  0.00000000000E+00 0.  1.
          2   -1    0    0  501    0  0.00000000000E+00 -0.00000000000E+00 -0.25217780319E+03  0.25217780319E+03  0.00000000000E+00 0. -1.
         23    2    1    2    0    0  0.69038056704E+02 -0.17361381797E+03 -0.86215010529E+02  0.22571965355E+03  0.92781048154E+02 0.  0.
          5    1    1    2  502    0 -0.73143168970E+00  0.13186906840E+03  0.58148321736E+02  0.14418282115E+03  0.41800000000E+01 0. -1.
         -5    1    1    2    0  502 -0.68306625014E+02  0.41744749565E+02 -0.22992514643E+02  0.83393928236E+02  0.41800000000E+01 0. -1.
        -11    1    3    3    0    0  0.70533957603E+02 -0.12253278605E+03 -0.99538816868E+02  0.17290835404E+03  0.00000000000E+00 0. -1.
         11    1    3    3    0    0 -0.14959008993E+01 -0.51081031913E+02  0.13323806339E+02  0.52811299512E+02  0.00000000000E+00 0.  1.
</event>
<event>
 7    1  0.4687179E-006  0.9753436E+02  0.7561462E-02  0.1285568E+00
         -1   -1    0    0    0  501 -0.00000000000E+00  0.00000000000E+00  0.56207548239E+02  0.56207548239E+02  0.00000000000E+00 0. -1.
          1   -1    0    0  501    0  0.00000000000E+00 -0.00000000000E+00 -0.27818353815E+03  0.27818353815E+03  0.00000000000E+00 0.  1.
         23    2    1    2    0    0 -0.48832478559E+02  0.14610345635E+02 -0.14393608433E+03  0.17839225716E+03  0.92239513657E+02 0.  0.
          5    1    1    2  502    0  0.68768917392E+02 -0.17288727479E+02  0.42732623954E+01  0.71160363045E+02  0.41800000000E+01 0.  1.
         -5    1    1    2    0  502 -0.19936438833E+02  0.26783818436E+01 -0.82313167980E+02  0.84838466190E+02  0.41800000000E+01 0.  1.
        -11    1    3    3    0    0 -0.29257775519E+02  0.52920708395E+02 -0.10027342354E+03  0.11709559460E+03  0.00000000000E+00 0.  1.
         11    1    3    3    0    0 -0.19574703040E+02 -0.38310362759E+02 -0.43662660786E+02  0.61296662558E+02  0.00000000000E+00 0. -1.
</event>
<event>
 7    1  0.4687179E-006  0.8719519E+02  0.7561462E-02  0.1309790E+00
         -2   -1    0    0    0  501 -0.00000000000E+00  0.00000000000E+00  0.42813700289E+03  0.42813700289E+03  0.00000000000E+00 0. -1.
          2   -1    0    0  501    0  0.00000000000E+00 -0.00000000000E+00 -0.29519996708E+02  0.29519996708E+02  0.00000000000E+00 0.  1.
         23    2    1    2    0    0  0.71846308964E+01  0.21283832982E+02  0.12256453506E+03  0.15375371178E+03  0.90075069610E+02 0.  0.
          5    1    1    2  502    0  0.44768617386E+02  0.90448697748E+01  0.20791461224E+03  0.21291312114E+03  0.41800000000E+01 0. -1.
         -5    1    1    2    0  502 -0.51953248283E+02 -0.30328702757E+02  0.68137858883E+02  0.90990166673E+02  0.41800000000E+01 0. -1.
        -11    1    3    3    0    0 -0.14470051062E+02 -0.18163790335E+02  0.10139882652E+03  0.10402416871E+03  0.00000000000E+00 0. -1.
         11    1    3    3    0    0  0.21654681959E+02  0.39447623317E+02  0.21165708544E+02  0.49729543073E+02  0.00000000000E+00 0.  1.
</event>
<event>
 7    1  0.4687179E-006  0.8657838E+02  0.7561462E-02  0.1311356E+00
          1   -1    0    0  501    0  0.00000000000E+00  0.00000000000E+00  0.37669714707E+03  0.37669714707E+03  0.00000000000E+00 0. -1.
         -1   -1    0    0    0  501 -0.00000000000E+00 -0.00000000000E+00 -0.34844613951E+02  0.34844613951E+02  0.00000000000E+00 0.  1.
         23    2    1    2    0    0  0.28255571683E+02  0.25053470576E+02  0.18844437968E+03  0.21002706780E+03  0.84699653219E+02 0.  0.
          5    1    1    2  502    0 -0.53944849670E+02 -0.46893405068E+02  0.15140265896E+03  0.16747918016E+03  0.41800000000E+01 0. -1.
         -5    1    1    2    0  502  0.25689277987E+02  0.21839934492E+02  0.20054944821E+01  0.34035513074E+02  0.41800000000E+01 0. -1.
        -11    1    3    3    0    0  0.24824982867E+02  0.42814718345E+02  0.18513670578E+03  0.19163762603E+03  0.00000000000E+00 0. -1.
         11    1    3    3    0    0  0.34305888157E+01 -0.17761247769E+02  0.33076738955E+01  0.18389441768E+02  0.00000000000E+00 0.  1.
</event>
<event>
 7    1  0.4687179E-006  0.1732756E+03  0.7561462E-02  0.1174474E+00
          2   -1    0    0  501    0  0.00000000000E+00  0.00000000000E+00  0.43446839281E+03  0.43446839281E+03  0.00000000000E+00 0. -1.
         -2   -1    0    0    0  501 -0.00000000000E+00 -0.00000000000E+00 -0.18857992563E+03  0.18857992563E+03  0.00000000000E+00 0.  1.
         23    2    1    2    0    0 -0.98905108574E+02 -0.10850385638E+03  0.35905841646E+03  0.39941854095E+03  0.95167836358E+02 0.  0.
          5    1    1    2  502    0  0.12161777320E+03  0.91599300182E+02 -0.12035238170E+03  0.19412233960E+03  0.41800000000E+01 0.  1.
         -5    1    1    2    0  502 -0.22712664622E+02  0.16904556199E+02  0.71824324314E+01  0.29507437879E+02  0.41800000000E+01 0.  1.
        -11    1    3    3    0    0 -0.31602473169E+02 -0.90633355583E+02  0.26877932941E+03  0.28540401079E+03  0.00000000000E+00 0.  1.
         11    1    3    3    0    0 -0.67302635405E+02 -0.17870500799E+02  0.90279087047E+02  0.11401453017E+03  0.00000000000E+00 0. -1.
</event>
<event>
 7    1  0.4687179E-006  0.1390006E+03  0.7561462E-02  0.1214680E+00
         -2   -1    0    0    0  501 -0.00000000000E+00  0.00000000000E+00  0.29835681414E+02  0.29835681414E+02  0.00000000000E+00 0.  1.
          2   -1    0    0  501    0  0.00000000000E+00 -0.00000000000E+00 -0.70984550795E+03  0.70984550795E+03  0.00000000000E+00 0. -1.
         23    2    1    2    0    0 -0.73958904662E+02 -0.50174691449E+02 -0.40230272218E+03  0.42226087091E+03  0.92029036640E+02 0.  0.
          5    1    1    2  502    0  0.10806336456E+03  0.36223763297E+02 -0.18202568156E+03  0.21480380103E+03  0.41800000000E+01 0.  1.
         -5    1    1    2    0  502 -0.34104459900E+02  0.13950928153E+02 -0.95681422800E+02  0.10261651743E+03  0.41800000000E+01 0.  1.
        -11    1    3    3    0    0 -0.94628626748E+02 -0.47934700699E+02 -0.31003458760E+03  0.32767935248E+03  0.00000000000E+00 0.  1.
         11    1    3    3    0    0  0.20669722086E+02 -0.22399907502E+01 -0.92268134576E+02  0.94581518426E+02  0.00000000000E+00 0. -1.
</event>
<event>
 7    1  0.4687179E-006  0.9833151E+02  0.7561462E-02  0.1283844E+00
          2   -1    0    0  501    0  0.00000000000E+00  0.00000000000E+00  0.42863140474E+02  0.42863140474E+02  0.00000000000E+00 0. -1.
         -2   -1    0    0    0  501 -0.00000000000E+00 -0.00000000000E+00 -0.34699677068E+03  0.34699677068E+03  0.00000000000E+00 0.  1.
         23    2    1    2    0    0 -0.44968268445E+02 -0.73706750963E+01 -0.11062285991E+03  0.15497755359E+03  0.98509659245E+02 0.  0.
          5    1    1    2  502    0  0.34106964205E+02 -0.52060803500E+02 -0.52917496289E+02  0.81800648419E+02  0.41800000000E+01 0.  1.
         -5    1    1    2    0  502  0.10861304240E+02  0.59431478596E+02 -0.14059327401E+03  0.15308170915E+03  0.41800000000E+01 0.  1.
        -11    1    3    3    0    0 -0.75242299324E+01 -0.29354640347E+02 -0.10722418149E+03  0.11142411787E+03  0.00000000000E+00 0.  1.
         11    1    3    3    0    0 -0.37444038513E+02  0.21983965251E+02 -0.33986784168E+01  0.43553435723E+02  0.00000000000E+00 0. -1.
</event>
<event>
 7    1  0.4687179E-006  0.1203321E+03  0.7561462E-02  0.1242550E+00
         -4   -1    0    0    0  501 -0.00000000000E+00  0.00000000000E+00  0.59068850406E+02  0.59068850406E+02  0.00000000000E+00 0.  1.
          4   -1    0    0  501    0  0.00000000000E+00 -0.00000000000E+00 -0.36060070594E+03  0.36060070594E+03  0.00000000000E+00 0. -1.
         23    2    1    2    0    0 -0.71985273475E+02  0.66072932486E+02 -0.11794539914E+03  0.17697999328E+03  0.88675187275E+02 0.  0.
          5    1    1    2  502    0  0.89758845574E+02 -0.18403412326E+02 -0.61692541516E+02  0.11053858160E+03  0.41800000000E+01 0.  1.
         -5    1    1    2    0  502 -0.17773572099E+02 -0.47669520160E+02 -0.12189391488E+03  0.13215098147E+03  0.41800000000E+01 0.  1.
        -11    1    3    3    0    0 -0.34881474549E+02  0.36096616341E+02 -0.47959112857E+00  0.50198734901E+02  0.00000000000E+00 0.  1.
         11    1    3    3    0    0 -0.37103798926E+02  0.29976316145E+02 -0.11746580801E+03  0.12678125838E+03  0.00000000000E+00 0. -1.
</event>
<event>
 7    1  0.4687179E-006  0.1170489E+03  0.7561462E-02  0.1248046E+00
         -2   -1    0    0    0  501 -0.00000000000E+00  0.00000000000E+00  0.13554788782E+03  0.13554788782E+03  0.00000000000E+00 0.  1.
          2   -1    0    0  501    0  0.00000000000E+00 -0.00000000000E+00 -0.15731394952E+03  0.15731394952E+03  0.00000000000E+00 0. -1.
         23    2    1    2    0    0  0.82666093129E+01  0.96984212805E+02 -0.11837515183E+02  0.13405491259E+03  0.91412900960E+02 0.  0.
          5    1    1    2  502    0  0.74406879791E+01 -0.53428945128E+02 -0.66405338492E+02  0.85657208660E+02  0.41800000000E+01 0. -1.
         -5    1    1    2    0  502 -0.15707297292E+02 -0.43555267677E+02  0.56476791977E+02  0.73149716081E+02  0.41800000000E+01 0. -1.
        -11    1    3    3    0    0  0.14664800195E+02 -0.15208588901E+02 -0.85569772676E+00  0.21144497150E+02  0.00000000000E+00 0. -1.
         11    1    3    3    0    0 -0.63981908822E+01  0.11219280171E+03 -0.10981817456E+02  0.11291041544E+03  0.00000000000E+00 0.  1.
</event>
<event>
 7    1  0.4687179E-006  0.1271847E+03  0.7561462E-02  0.1231694E+00
         -1   -1    0    0    0  501 -0.00000000000E+00  0.00000000000E+00  0.45378345273E+03  0.45378345273E+03  0.00000000000E+00 0.  1.
          1   -1    0    0  501    0  0.00000000000E+00 -0.00000000000E+00 -0.50842677531E+02  0.50842677531E+02  0.00000000000E+00 0. -1.
         23    2    1    2    0    0 -0.76523379797E+02  0.45202483821E+02  0.76461338556E+02  0.14388231285E+03  0.83406783045E+02 0.  0.
          5    1    1    2  502    0  0.80647559265E+02  0.23750716062E+02  0.17364486218E+03  0.19297185259E+03  0.41800000000E+01 0. -1.
         -5    1    1    2    0  502 -0.41241794682E+01 -0.68953199882E+02  0.15283457447E+03  0.16777196483E+03  0.41800000000E+01 0. -1.
        -11    1    3    3    0    0 -0.37118782799E+01  0.25213354889E+02  0.61960505230E+02  0.66996981375E+02  0.00000000000E+00 0.  1.
         11    1    3    3    0    0 -0.72811501517E+02  0.19989128932E+02  0.14500833326E+02  0.76885331473E+02  0.00000000000E+00 0. -1.
</event>
<event>
 7    1  0.4687179E-006  0.1389298E+03  0.7561462E-02  0.1214776E+00
         -1   -1    0    0    0  501 -0.00000000000E+00  0.00000000000E+00  0.71578944848E+03  0.71578944848E+03  0.00000000000E+00 0.  1.
          1   -1    0    0  501    0  0.00000000000E+00 -0.00000000000E+00 -0.32359033855E+02  0.32359033855E+02  0.00000000000E+00 0. -1.
         23    2    1    2    0    0  0.65266020630E+02 -0.72955805707E+02  0.21320463484E+03  0.25181938947E+03  0.91512761740E+02 0.  0.
          5    1    1    2  502    0 -0.68577554070E+02 -0.12732375291E+02  0.26055743592E+03  0.26976405268E+03  0.41800000000E+01 0.  1.
         -5    1    1    2    0  502  0.33115334407E+01  0.85688180998E+02  0.20966834386E+03  0.22656504019E+03  0.41800000000E+01 0.  1.
        -11    1    3    3    0    0  0.15583327416E-01 -0.54253066317E+02  0.45179138805E+02  0.70601345815E+02  0.00000000000E+00 0. -1.
         11    1    3    3    0    0  0.65250437302E+02 -0.18702739390E+02  0.16802549604E+03  0.18121804366E+03  0.00000000000E+00 0.  1.
</event>
<event>
 7    1  0.4687179E-006  0.1221761E+03  0.7561462E-02  0.1239550E+00
          2   -1    0    0  501    0  0.00000000000E+00  0.00000000000E+00  0.24153213870E+02  0.24153213870E+02  0.00000000000E+00 0. -1.
         -2   -1    0    0    0  501 -0.00000000000E+00 -0.00000000000E+00 -0.65920961619E+03  0.65920961619E+03  0.00000000000E+00 0.  1.
         23    2    1    2    0    0  0.61054095542E+02 -0.30526635801E+02 -0.28029710246E+03  0.30105184086E+03  0.86059672106E+02 0.  0.
          5    1    1    2  502    0 -0.78151062934E+02 -0.26362410278E+02 -0.21958815359E+03  0.23460391069E+03  0.41800000000E+01 0. -1.
         -5    1    1    2    0  502  0.17096967393E+02  0.56889046078E+02 -0.13517114627E+03  0.14770707851E+03  0.41800000000E+01 0. -1.
        -11    1    3    3    0    0  0.38441033272E+02  0.22521421515E+02 -0.17928813414E+03  0.18474079818E+03  0.00000000000E+00 0.  1.
         11    1    3    3    0    0  0.22613062270E+02 -0.53048057316E+02 -0.10100896831E+03  0.11631104268E+03  0.00000000000E+00 0. -1.
</event>
<event>
 7    1  0.4687179E-006  0.1098176E+03  0.7561462E-02  0.1260908E+00
          1   -1    0    0  501    0  0.00000000000E+00  0.00000000000E+00  0.58685560456E+03  0.58685560456E+03  0.00000000000E+00 0. -1.
         -1   -1    0    0    0  501 -0.00000000000E+00 -0.00000000000E+00 -0.59278486657E+02  0.59278486657E+02  0.00000000000E+00 0.  1.
         23    2    1    2    0    0 -0.82269693450E+01 -0.34932408904E+01  0.40931134704E+03  0.41922883030E+03  0.90206139414E+02 0.  0.
          5    1    1    2  502    0  0.64516415991E+02  0.25347905442E+02 -0.23053113251E+02  0.73169684113E+02  0.41800000000E+01 0. -1.
         -5    1    1    2    0  502 -0.56289446646E+02 -0.21854664551E+02  0.14131888412E+03  0.15373557680E+03  0.41800000000E+01 0.  1.
        -11    1    3    3    0    0  0.26681095045E+02 -0.34059116135E+02  0.16688186837E+03  0.17239913636E+03  0.00000000000E+00 0.  1.
         11    1    3    3    0    0 -0.34908064389E+02  0.30565875245E+02  0.24242947866E+03  0.24682969395E+03  0.00000000000E+00 0. -1.
</event>
<event>
 7    1  0.4687179E-006  0.2691415E+03  0.7561462E-02  0.1101772E+00
         -2   -1    0    0    0  501 -0.00000000000E+00  0.00000000000E+00  0.72150798100E+02  0.72150798100E+02  0.00000000000E+00 0. -1.
          2   -1    0    0  501    0  0.00000000000E+00 -0.00000000000E+00 -0.13769327908E+04  0.13769327908E+04  0.00000000000E+00 0.  1.
         23    2    1    2    0    0 -0.26172240483E+03 -0.49249983762E+02 -0.93563236204E+03  0.97701995128E+03  0.90751805613E+02 0.  0.
          5    1    1    2  502    0  0.15950081314E+03  0.21323633015E+02 -0.31323187366E+03  0.35217451043E+03  0.41800000000E+01 0.  1.
         -5    1    1    2    0  502  0.10222159169E+03  0.27926350747E+02 -0.55917757021E+02  0.11988912721E+03  0.41800000000E+01 0.  1.
        -11    1    3    3    0    0 -0.11673082430E+03  0.39965989191E+01 -0.53596153313E+03  0.54854063034E+03  0.00000000000E+00 0. -1.
         11    1    3    3    0    0 -0.14499158052E+03 -0.53246582681E+02 -0.39967082891E+03  0.42847932094E+03  0.00000000000E+00 0.  1.
</event>
<event>
 7    1  0.4687179E-006  0.1149034E+03  0.7561462E-02  0.1251750E+00
          2   -1    0    0  501    0  0.00000000000E+00  0.00000000000E+00  0.38159546210E+02  0.38159546210E+02  0.00000000000E+00 0. -1.
         -2   -1    0    0    0  501 -0.00000000000E+00 -0.00000000000E+00 -0.90401024245E+03  0.90401024245E+03  0.00000000000E+00 0.  1.
         23    2    1    2    0    0 -0.32589112983E+02 -0.57551378975E+02 -0.67381256340E+02  0.13125973413E+03  0.91184826532E+02 0.  0.
          5    1    1    2  502    0 -0.33076710812E+02  0.64770506952E+02 -0.34253782931E+03  0.35019840701E+03  0.41800000000E+01 0. -1.
         -5    1    1    2    0  502  0.65665823795E+02 -0.72191279769E+01 -0.45593161059E+03  0.46071164752E+03  0.41800000000E+01 0. -1.
        -11    1    3    3    0    0 -0.82724026333E+00 -0.58966581483E+02 -0.77960293283E+02  0.97752490439E+02  0.00000000000E+00 0.  1.
         11    1    3    3    0    0 -0.31761872720E+02  0.14152025077E+01  0.10579036943E+02  0.33507243686E+02  0.00000000000E+00 0. -1.
</event>
<event>
 7    1  0.4687179E-006  0.1899682E+03  0.7561462E-02  0.1158490E+00
         -1   -1    0    0    0  501 -0.00000000000E+00  0.00000000000E+00  0.20768107660E+02  0.20768107660E+02  0.00000000000E+00 0.  1.
          1   -1    0    0  501    0  0.00000000000E+00 -0.00000000000E+00 -0.18607283467E+04  0.18607283467E+04  0.00000000000E+00 0. -1.
         23    2    1    2    0    0 -0.13153479762E+03 -0.90976419326E+02 -0.10483124228E+04  0.10642255985E+04  0.89660898736E+02 0.  0.
          5    1    1    2  502    0  0.19720343950E+02  0.82335314134E+02 -0.24580806423E+03  0.26001360111E+03  0.41800000000E+01 0. -1.
         -5    1    1    2    0  502  0.11181445367E+03  0.86411051918E+01 -0.54583975195E+03  0.55725725474E+03  0.41800000000E+01 0. -1.
        -11    1    3    3    0    0 -0.10811293246E+03 -0.22307941250E+02 -0.66673289214E+03  0.67580973644E+03  0.00000000000E+00 0.  1.
         11    1    3    3    0    0 -0.23421865159E+02 -0.68668478076E+02 -0.38157953070E+03  0.38841586206E+03  0.00000000000E+00 0. -1.
</event>
<event>
 7    1  0.4687179E-006  0.1193621E+03  0.7561462E-02  0.1244153E+00
         -4   -1    0    0    0  501 -0.00000000000E+00  0.00000000000E+00  0.95008675564E+02  0.95008675564E+02  0.00000000000E+00 0.  1.
          4   -1    0    0  501    0  0.00000000000E+00 -0.00000000000E+00 -0.17646368958E+03  0.17646368958E+03  0.00000000000E+00 0. -1.
         23    2    1    2    0    0 -0.28393688076E+00  0.70929938153E+02 -0.38795594835E+02  0.12149163399E+03  0.90686174274E+02 0.  0.
          5    1    1    2  502    0 -0.23716253928E+01  0.30981039038E+02  0.12784928978E+02  0.33858177680E+02  0.41800000000E+01 0.  1.
         -5    1    1    2    0  502  0.26555622735E+01 -0.10191097719E+03 -0.55444348163E+02  0.11612255348E+03  0.41800000000E+01 0.  1.
        -11    1    3    3    0    0  0.42720894264E+01  0.87781166972E+02 -0.10864154830E+02  0.88554016754E+02  0.00000000000E+00 0.  1.
         11    1    3    3    0    0 -0.45560263071E+01 -0.16851228819E+02 -0.27931440005E+02  0.32937617236E+02  0.00000000000E+00 0. -1.
</event>
<event>
 7    1  0.4687179E-006  0.1171131E+03  0.7561462E-02  0.1247937E+00
         -1   -1    0    0    0  501 -0.00000000000E+00  0.00000000000E+00  0.39020615664E+03  0.39020615664E+03  0.00000000000E+00 0.  1.
          1   -1    0    0  501    0  0.00000000000E+00 -0.00000000000E+00 -0.48954499564E+02  0.48954499564E+02  0.00000000000E+00 0. -1.
         23    2    1    2    0    0 -0.22706354040E+02 -0.50187319148E+02  0.53490129850E+02  0.12058832824E+03  0.92983898608E+02 0.  0.
          5    1    1    2  502    0 -0.44780842367E+01 -0.35696056733E+02  0.14703972044E+03  0.15143451882E+03  0.41800000000E+01 0.  1.
         -5    1    1    2    0  502  0.27184438277E+02  0.85883375881E+02  0.14072180679E+03  0.16713780914E+03  0.41800000000E+01 0.  1.
        -11    1    3    3    0    0  0.26933023923E+02  0.10952309386E+02  0.18100246557E+02  0.34248500463E+02  0.00000000000E+00 0. -1.
         11    1    3    3    0    0 -0.49639377963E+02 -0.61139628534E+02  0.35389883293E+02  0.86339827782E+02  0.00000000000E+00 0.  1.
</event>
<event>
 7    1  0.4687179E-006  0.5244613E+02  0.7561462E-02  0.1432577E+00
         -2   -1    0    0    0  501 -0.00000000000E+00  0.00000000000E+00  0.16415748916E+03  0.16415748916E+03  0.00000000000E+00 0.  1.
          2   -1    0    0  501    0  0.00000000000E+00 -0.00000000000E+00 -0.10802438426E+03  0.10802438426E+03  0.00000000000E+00 0. -1.
         23    2    1    2    0    0  0.12296943641E+01 -0.24190409717E+02 -0.49252536477E+02  0.10683232662E+03  0.91655035818E+02 0.  0.
          5    1    1    2  502    0  0.82163553858E+01  0.19911301851E+02  0.13339683811E+03  0.13518933854E+03  0.41800000000E+01 0.  1.
         -5    1    1    2    0  502 -0.94460497499E+01  0.42791078665E+01 -0.28011196730E+02  0.30160208260E+02  0.41800000000E+01 0.  1.
        -11    1    3    3    0    0  0.34092668253E+02 -0.74859971002E+01  0.10651428010E+02  0.36493877567E+02  0.00000000000E+00 0.  1.
         11    1    3    3    0    0 -0.32862973889E+02 -0.16704412617E+02 -0.59903964487E+02  0.70338449052E+02  0.00000000000E+00 0. -1.
</event>
<event>
 7    1  0.4687179E-006  0.6114769E+02  0.7561462E-02  0.1393078E+00
          1   -1    0    0  501    0  0.00000000000E+00  0.00000000000E+00  0.34608354899E+03  0.34608354899E+03  0.00000000000E+00 0. -1.
         -1   -1    0    0    0  501 -0.00000000000E+00 -0.00000000000E+00 -0.36395807855E+02  0.36395807855E+02  0.00000000000E+00 0.  1.
         23    2    1    2    0    0 -0.23526933391E+02  0.51780999492E+01  0.11171616613E+03  0.14705934052E+03  0.92550626933E+02 0.  0.
          5    1    1    2  502    0  0.13473715442E+01 -0.32877749068E+01 -0.17716274833E+02  0.18546257516E+02  0.41800000000E+01 0.  1.
         -5    1    1    2    0  502  0.22179561846E+02 -0.18903250424E+01  0.21568784984E+03  0.21687375881E+03  0.41800000000E+01 0.  1.
        -11    1    3    3    0    0 -0.52742429429E+02 -0.19181007820E+02  0.53628779432E+02  0.77625517109E+02  0.00000000000E+00 0. -1.
         11    1    3    3    0    0  0.29215496039E+02  0.24359107769E+02  0.58087386702E+02  0.69433823414E+02  0.00000000000E+00 0.  1.
</event>
<event>
 7    1  0.4687179E-006  0.1334655E+03  0.7561462E-02  0.1222402E+00
          4   -1    0    0  501    0  0.00000000000E+00  0.00000000000E+00  0.38641361751E+03  0.38641361751E+03  0.00000000000E+00 0. -1.
         -4   -1    0    0    0  501 -0.00000000000E+00 -0.00000000000E+00 -0.12247364153E+03  0.12247364153E+03  0.00000000000E+00 0.  1.
         23    2    1    2    0    0  0.78049313626E+02 -0.39632853875E+02  0.32057020712E+03  0.34417531634E+03  0.89604309187E+02 0.  0.
          5    1    1    2  502    0  0.24652080991E+02  0.29227107429E+02  0.12455075048E+02  0.40429570865E+02  0.41800000000E+01 0. -1.
         -5    1    1    2    0  502 -0.10270139462E+03  0.10405746446E+02 -0.69085306193E+02  0.12428237183E+03  0.41800000000E+01 0.  1.
        -11    1    3    3    0    0  0.71201112549E+02 -0.66502174488E+02  0.24341774115E+03  0.26219140784E+03  0.00000000000E+00 0. -1.
         11    1    3    3    0    0  0.68482010764E+01  0.26869320613E+02  0.77152465967E+02  0.81983908500E+02  0.00000000000E+00 0.  1.
</event>
<event>
 7    1  0.4687179E-006  0.7556979E+02  0.7561462E-02  0.1342116E+00
          2   -1    0    0  501    0  0.00000000000E+00  0.00000000000E+00  0.19792693676E+03  0.19792693676E+03  0.00000000000E+00 0. -1.
         -2   -1    0    0    0  501 -0.00000000000E+00 -0.00000000000E+00 -0.10211827628E+03  0.10211827628E+03  0.00000000000E+00 0.  1.
         23    2    1    2    0    0 -0.14993802822E+02 -0.29880540535E+02  0.13310014302E+03  0.16530061352E+03  0.92146535117E+02 0.  0.
          5    1    1    2  502    0  0.50249169521E+02  0.11559182861E+02 -0.67224091115E+02  0.84824198034E+02  0.41800000000E+01 0. -1.
         -5    1    1    2    0  502 -0.35255366699E+02  0.18321357673E+02  0.29932608583E+02  0.49920401487E+02  0.41800000000E+01 0. -1.
        -11    1    3    3    0    0 -0.29240932021E+02 -0.33788552504E+02  0.14144355428E+03  0.14833400633E+03  0.00000000000E+00 0. -1.
         11    1    3    3    0    0  0.14247129199E+02  0.39080119691E+01 -0.83434112678E+01  0.16966607191E+02  0.00000000000E+00 0.  1.
</event>
<event>
 7    1  0.4687179E-006  0.2074065E+03  0.7561462E-02  0.1143636E+00
          1   -1    0    0  501    0  0.00000000000E+00  0.00000000000E+00  0.26571953073E+03  0.26571953073E+03  0.00000000000E+00 0. -1.
         -1   -1    0    0    0  501 -0.00000000000E+00 -0.00000000000E+00 -0.59957932390E+03  0.59957932390E+03  0.00000000000E+00 0.  1.
         23    2    1    2    0    0 -0.11415169188E+03  0.14645334836E+03  0.19977984459E+03  0.28705057363E+03  0.89481023193E+02 0.  0.
          5    1    1    2  502    0  0.16805574453E+02  0.21825242686E+02 -0.56132023173E+02  0.62666138995E+02  0.41800000000E+01 0. -1.
         -5    1    1    2    0  502  0.97346117430E+02 -0.16827859104E+03 -0.47750761458E+03  0.51558214202E+03  0.41800000000E+01 0.  1.
        -11    1    3    3    0    0 -0.77739093585E+02  0.13226896740E+03  0.19433151374E+03  0.24759479728E+03  0.00000000000E+00 0. -1.
         11    1    3    3    0    0 -0.36412598298E+02  0.14184380960E+02  0.54483308458E+01  0.39455776346E+02  0.00000000000E+00 0.  1.
</event>
<event>
 7    1  0.4687179E-006  0.1724462E+03  0.7561462E-02  0.1175321E+00
          1   -1    0    0  501    0  0.00000000000E+00  0.00000000000E+00  0.11675897519E+03  0.11675897519E+03  0.00000000000E+00 0. -1.
         -1   -1    0    0    0  501 -0.00000000000E+00 -0.00000000000E+00 -0.28644990562E+03  0.28644990562E+03  0.00000000000E+00 0.  1.
         23    2    1    2    0    0 -0.61790130187E+02  0.13078189694E+03 -0.52391819087E+02  0.17887061518E+03  0.91257161427E+02 0.  0.
          5    1    1    2  502    0  0.10023263031E+03 -0.86882037803E+02 -0.80123112159E+02  0.15502339880E+03  0.41800000000E+01 0. -1.
         -5    1    1    2    0  502 -0.38442500126E+02 -0.43899859139E+02 -0.37175999184E+02  0.69314866830E+02  0.41800000000E+01 0. -1.
        -11    1    3    3    0    0 -0.53846987288E+02  0.53215228094E+02 -0.65127983670E+02  0.99864972828E+02  0.00000000000E+00 0.  1.
         11    1    3    3    0    0 -0.79431428991E+01  0.77566668848E+02  0.12736164583E+02  0.79005642353E+02  0.00000000000E+00 0. -1.
</event>
<event>
 7    1  0.4687179E-006  0.1072161E+03  0.7561462E-02  0.1265814E+00
          1   -1    0    0  501    0  0.00000000000E+00  0.00000000000E+00  0.19818510644E+03  0.19818510644E+03  0.00000000000E+00 0. -1.
         -1   -1    0    0    0  501 -0.00000000000E+00 -0.00000000000E+00 -0.61337943323E+02  0.61337943323E+02  0.00000000000E+00 0.  1.
         23    2    1    2    0    0  0.19958048008E+02  0.11948738174E+02  0.43207331379E+02  0.10154164925E+03  0.88897339800E+02 0.  0.
          5    1    1    2  502    0  0.45785328277E+02 -0.34385347150E+02  0.47120578095E+02  0.74272940322E+02  0.41800000000E+01 0.  1.
         -5    1    1    2    0  502 -0.65743376285E+02  0.22436608976E+02  0.46519253640E+02  0.83708460187E+02  0.41800000000E+01 0.  1.
        -11    1    3    3    0    0  0.31050537084E+02 -0.30517695215E+02  0.58956193484E+01  0.43934313491E+02  0.00000000000E+00 0. -1.
         11    1    3    3    0    0 -0.11092489076E+02  0.42466433389E+02  0.37311712030E+02  0.57607335760E+02  0.00000000000E+00 0.  1.
</event>
<event>
 7    1  0.4687179E-006  0.1096020E+03  0.7561462E-02  0.1261309E+00
         -2   -1    0    0    0  501 -0.00000000000E+00  0.00000000000E+00  0.76936831821E+03  0.76936831821E+03  0.00000000000E+00 0.  1.
          2   -1    0    0  501    0  0.00000000000E+00 -0.00000000000E+00 -0.16964625048E+02  0.16964625048E+02  0.00000000000E+00 0. -1.
         23    2    1    2    0    0 -0.11335159830E+02  0.24403460127E+02  0.23284202612E+03  0.25124803119E+03  0.90477341574E+02 0.  0.
          5    1    1    2  502    0 -0.15273811881E+01 -0.74086783966E+02  0.35416690764E+03  0.36186027043E+03  0.41800000000E+01 0.  1.
         -5    1    1    2    0  502  0.12862541018E+02  0.49683323839E+02  0.16539475941E+03  0.17322464163E+03  0.41800000000E+01 0.  1.
        -11    1    3    3    0    0 -0.45020208198E+01  0.58522762434E+02  0.12886227215E+03  0.14160037817E+03  0.00000000000E+00 0.  1.
         11    1    3    3    0    0 -0.68331390101E+01 -0.34119302307E+02  0.10397975397E+03  0.10964765303E+03  0.00000000000E+00 0. -1.
</event>
<event>
 7    1  0.4687179E-006  0.1028224E+03  0.7561462E-02  0.1274470E+00
          2   -1    0    0  501    0  0.00000000000E+00  0.00000000000E+00  0.36619841301E+02  0.36619841301E+02  0.00000000000E+00 0. -1.
         -2   -1    0    0    0  501 -0.00000000000E+00 -0.00000000000E+00 -0.55259045799E+03  0.55259045799E+03  0.00000000000E+00 0.  1.
         23    2    1    2    0    0  0.75899276703E+02 -0.45331559224E+02 -0.18467610479E+03  0.22421809548E+03  0.91393873930E+02 0.  0.
          5    1    1    2  502    0 -0.45868939103E+02 -0.29469658690E+01 -0.29230188813E+03  0.29592314946E+03  0.41800000000E+01 0.  1.
         -5    1    1    2    0  502 -0.30030337600E+02  0.48278525093E+02 -0.38992623773E+02  0.69069054361E+02  0.41800000000E+01 0.  1.
        -11    1    3    3    0    0 -0.45712088891E+01 -0.16309439900E+02  0.36920479074E+01  0.17335656847E+02  0.00000000000E+00 0. -1.
         11    1    3    3    0    0  0.80470485592E+02 -0.29022119324E+02 -0.18836815270E+03  0.20688243863E+03  0.00000000000E+00 0.  1.
</event>
<event>
 7    1  0.4687179E-006  0.1235373E+03  0.7561462E-02  0.1237373E+00
          3   -1    0    0  501    0  0.00000000000E+00  0.00000000000E+00  0.10922532999E+03  0.10922532999E+03  0.00000000000E+00 0. -1.
         -3   -1    0    0    0  501 -0.00000000000E+00 -0.00000000000E+00 -0.35293028921E+03  0.35293028921E+03  0.00000000000E+00 0.  1.
         23    2    1    2    0    0  0.29265350073E+02  0.55315706585E+02  0.60264103173E+02  0.12755247545E+03  0.93389419914E+02 0.  0.
          5    1    1    2  502    0  0.14664418170E+02  0.34837131886E+02 -0.63342061840E+02  0.73880715457E+02  0.41800000000E+01 0. -1.
         -5    1    1    2    0  502 -0.43929768243E+02 -0.90152838471E+02 -0.24062700055E+03  0.26072242829E+03  0.41800000000E+01 0. -1.
        -11    1    3    3    0    0  0.61344781203E+02  0.33717004477E+02  0.53927255882E+02  0.88363835921E+02  0.00000000000E+00 0. -1.
         11    1    3    3    0    0 -0.32079431130E+02  0.21598702108E+02  0.63368472906E+01  0.39188639527E+02  0.00000000000E+00 0.  1.
</event>
<event>
 7    1  0.4687179E-006  0.9545139E+02  0.7561462E-02  0.1290163E+00
          1   -1    0    0  501    0  0.00000000000E+00  0.00000000000E+00  0.23953304345E+03  0.23953304345E+03  0.00000000000E+00 0. -1.
         -1   -1    0    0    0  501 -0.00000000000E+00 -0.00000000000E+00 -0.61864791970E+02  0.61864791970E+02  0.00000000000E+00 0.  1.
         23    2    1    2    0    0 -0.78674506513E+01  0.50504385236E+02  0.10128405834E+03  0.14617357061E+03  0.92171918514E+02 0.  0.
          5    1    1    2  502    0 -0.45406224202E+02 -0.57750242528E+02  0.18010777758E+02  0.75754050874E+02  0.41800000000E+01 0. -1.
         -5    1    1    2    0  502  0.53273674854E+02  0.72458572916E+01  0.58373415381E+02  0.79470213939E+02  0.41800000000E+01 0. -1.
        -11    1    3    3    0    0 -0.21119980984E+02  0.16194787607E+02 -0.10411344487E+02  0.28578328090E+02  0.00000000000E+00 0.  1.
         11    1    3    3    0    0  0.13252530333E+02  0.34309597629E+02  0.11169540283E+03  0.11759524252E+03  0.00000000000E+00 0. -1.
</event>
<event>
 7    1  0.4687179E-006  0.1136691E+03  0.7561462E-02  0.1253922E+00
         -1   -1    0    0    0  501 -0.00000000000E+00  0.00000000000E+00  0.57492971197E+02  0.57492971197E+02  0.00000000000E+00 0.  1.
          1   -1    0    0  501    0  0.00000000000E+00 -0.00000000000E+00 -0.23265797459E+03  0.23265797459E+03  0.00000000000E+00 0. -1.
         23    2    1    2    0    0 -0.28283334231E+02 -0.24118833842E+02 -0.79268364878E+02  0.12820807187E+03  0.93659868042E+02 0.  0.
          5    1    1    2  502    0  0.66768301917E+02 -0.21605178584E+02 -0.46427377084E+02  0.84248226245E+02  0.41800000000E+01 0.  1.
         -5    1    1    2    0  502 -0.38484967686E+02  0.45724012426E+02 -0.49469261433E+02  0.77694647672E+02  0.41800000000E+01 0.  1.
        -11    1    3    3    0    0  0.31966005994E+02 -0.17692183052E+02 -0.47093775359E+02  0.59604215941E+02  0.00000000000E+00 0.  1.
         11    1    3    3    0    0 -0.60249340225E+02 -0.64266507902E+01 -0.32174589519E+02  0.68603855932E+02  0.00000000000E+00 0. -1.
</event>
<event>
 7    1  0.4687179E-006  0.1313181E+03  0.7561462E-02  0.1225513E+00
          1   -1    0    0  501    0  0.00000000000E+00  0.00000000000E+00  0.22331430120E+03  0.22331430120E+03  0.00000000000E+00 0. -1.
         -1   -1    0    0    0  501 -0.00000000000E+00 -0.00000000000E+00 -0.90049028617E+02  0.90049028617E+02  0.00000000000E+00 0.  1.
         23    2    1    2    0    0 -0.80660388887E+02 -0.38281968184E+02  0.72450187719E+02  0.14808265313E+03  0.93315781278E+02 0.  0.
          5    1    1    2  502    0  0.17008793230E+02  0.62913199859E+02  0.70636859083E+02  0.96199833808E+02  0.41800000000E+01 0.  1.
         -5    1    1    2    0  502  0.63651595657E+02 -0.24631231674E+02 -0.98217742185E+01  0.69080842874E+02  0.41800000000E+01 0.  1.
        -11    1    3    3    0    0 -0.88681693558E+02 -0.59147795937E+02  0.62920553454E+02  0.12378166497E+03  0.00000000000E+00 0. -1.
         11    1    3    3    0    0  0.80213046708E+01  0.20865827753E+02  0.95296342648E+01  0.24300988162E+02  0.00000000000E+00 0.  1.
</event>
<event>
 7    1  0.4687179E-006  0.1138343E+03  0.7561462E-02  0.1253630E+00
         -1   -1    0    0    0  501 -0.00000000000E+00  0.00000000000E+00  0.12936266867E+03  0.12936266867E+03  0.00000000000E+00 0.  1.
          1   -1    0    0  501    0  0.00000000000E+00 -0.00000000000E+00 -0.17247846110E+03  0.17247846110E+03  0.00000000000E+00 0. -1.
         23    2    1    2    0    0  0.47263333064E+02 -0.19537412136E+02 -0.34408008928E+02  0.11234496097E+03  0.93925215204E+02 0.  0.
          5    1    1    2  502    0  0.14922256446E+02  0.60419796067E+02  0.61142370948E+02  0.87344647343E+02  0.41800000000E+01 0. -1.
         -5    1    1    2    0  502 -0.62185589510E+02 -0.40882383931E+02 -0.69850154449E+02  0.10215152145E+03  0.41800000000E+01 0.  1.
        -11    1    3    3    0    0  0.28410546281E+02  0.27832300743E+02  0.13879316751E+02  0.42124001924E+02  0.00000000000E+00 0.  1.
         11    1    3    3    0    0  0.18852786783E+02 -0.47369712879E+02 -0.48287325679E+02  0.70220959043E+02  0.00000000000E+00 0. -1.
</event>
<event>
 7    1  0.4687179E-006  0.1289133E+03  0.7561462E-02  0.1229077E+00
         -4   -1    0    0    0  501 -0.00000000000E+00  0.00000000000E+00  0.84649147987E+02  0.84649147987E+02  0.00000000000E+00 0.  1.
          4   -1    0    0  501    0  0.00000000000E+00 -0.00000000000E+00 -0.29023099431E+03  0.29023099431E+03  0.00000000000E+00 0. -1.
         23    2    1    2    0    0  0.10323687879E+02 -0.10985741621E+03 -0.11970423959E+03  0.18727324906E+03  0.92557735550E+02 0.  0.
          5    1    1    2  502    0  0.83403223779E+01  0.64976048459E+02  0.21983289891E+02  0.69225611482E+02  0.41800000000E+01 0.  1.
         -5    1    1    2    0  502 -0.18664010257E+02  0.44881367748E+02 -0.10786089663E+03  0.11838128176E+03  0.41800000000E+01 0.  1.
        -11    1    3    3    0    0 -0.34809656185E+02 -0.14138480472E+02 -0.23942437266E+02  0.44551645267E+02  0.00000000000E+00 0.  1.
         11    1    3    3    0    0  0.45133344064E+02 -0.95718935734E+02 -0.95761802322E+02  0.14272160379E+03  0.00000000000E+00 0. -1.
</event>
<event>
 7    1  0.4687179E-006  0.1206748E+03  0.7561462E-02  0.1241988E+00
          2   -1    0    0  501    0  0.00000000000E+00  0.00000000000E+00  0.27540574335E+03  0.27540574335E+03  0.00000000000E+00 0. -1.
         -2   -1    0    0    0  501 -0.00000000000E+00 -0.00000000000E+00 -0.13648279956E+03  0.13648279956E+03  0.00000000000E+00 0.  1.
         23    2    1    2    0    0 -0.27332687298E+01  0.80935536774E+02  0.20898284853E+03  0.24722578924E+03  0.10434906811E+03 0.  0.
          5    1    1    2  502    0 -0.25545742833E+01  0.16158874184E+02  0.23977944282E+02  0.29326596746E+02  0.41800000000E+01 0. -1.
         -5    1    1    2    0  502  0.52878430131E+01 -0.97094410959E+02 -0.94037849016E+02  0.13533615692E+03  0.41800000000E+01 0. -1.
        -11    1    3    3    0    0 -0.15966660941E+02 -0.19856286490E+02  0.19101097908E+02  0.31844282314E+02  0.00000000000E+00 0.  1.
         11    1    3    3    0    0  0.13233392211E+02  0.10079182326E+03  0.18988175062E+03  0.21538150692E+03  0.00000000000E+00 0. -1.
</event>
<event>
 7    1  0.4687179E-006  0.1169232E+03  0.7561462E-02  0.1248261E+00
          4   -1    0    0  501    0  0.00000000000E+00  0.00000000000E+00  0.17540761039E+03  0.17540761039E+03  0.00000000000E+00 0. -1.
         -4   -1    0    0    0  501 -0.00000000000E+00 -0.00000000000E+00 -0.11269291451E+03  0.11269291451E+03  0.00000000000E+00 0.  1.
         23    2    1    2    0    0 -0.25899708383E+02  0.63883666418E+01  0.10594267869E+03  0.14150232585E+03  0.89930255926E+02 0.  0.
          5    1    1    2  502    0  0.74778588741E+02 -0.35650956531E+02 -0.24722284041E+02  0.86553404115E+02  0.41800000000E+01 0. -1.
         -5    1    1    2    0  502 -0.48878880358E+02  0.29262589889E+02 -0.18505698773E+02  0.60044794938E+02  0.41800000000E+01 0.  1.
        -11    1    3    3    0    0 -0.50608015660E+02  0.30635800295E+02  0.68444050871E+02  0.90467185257E+02  0.00000000000E+00 0.  1.
         11    1    3    3    0    0  0.24708307277E+02 -0.24247433653E+02  0.37498627816E+02  0.51035140592E+02  0.00000000000E+00 0. -1.
</event>
<event>
 7    1  0.4687179E-006  0.1354438E+03  0.7561462E-02  0.1219595E+00
          2   -1    0    0  501    0  0.00000000000E+00  0.00000000000E+00  0.49107519257E+03  0.49107519257E+03  0.00000000000E+00 0. -1.
         -2   -1    0    0    0  501 -0.00000000000E+00 -0.00000000000E+00 -0.50480019099E+02  0.50480019099E+02  0.00000000000E+00 0.  1.
         23    2    1    2    0    0  0.10087928961E+03  0.28985821741E+02  0.27771631759E+03  0.31091535895E+03  0.92332001148E+02 0.  0.
          5    1    1    2  502    0  0.21401346588E+02  0.21058139024E+02  0.22021731708E+02  0.37468545773E+02  0.41800000000E+01 0.  1.
         -5    1    1    2    0  502 -0.12228063620E+03 -0.50043960765E+02  0.14085712417E+03  0.19317130695E+03  0.41800000000E+01 0.  1.
        -11    1    3    3    0    0  0.21653370427E+02  0.18472550330E+02  0.79388273344E+01  0.29548748636E+02  0.00000000000E+00 0.  1.
         11    1    3    3    0    0  0.79225919187E+02  0.10513271411E+02  0.26977749026E+03  0.28136661031E+03  0.00000000000E+00 0. -1.
</event>
<event>
 7    1  0.4687179E-006  0.1234976E+03  0.7561462E-02  0.1237436E+00
         -2   -1    0    0    0  501 -0.00000000000E+00  0.00000000000E+00  0.20927328983E+02  0.20927328983E+02  0.00000000000E+00 0.  1.
          2   -1    0    0  501    0  0.00000000000E+00 -0.00000000000E+00 -0.84678893922E+03  0.84678893922E+03  0.00000000000E+00 0. -1.
         23    2    1    2    0    0 -0.75627395472E+02 -0.20593210578E+02 -0.38144188743E+03  0.39942131030E+03  0.88858800184E+02 0.  0.
          5    1    1    2  502    0  0.54189055297E+02 -0.39308931982E+02 -0.33503902141E+03  0.34168737775E+03  0.41800000000E+01 0.  1.
         -5    1    1    2    0  502  0.21438340175E+02  0.59902142560E+02 -0.10938070140E+03  0.12660758015E+03  0.41800000000E+01 0.  1.
        -11    1    3    3    0    0  0.47182206885E+01  0.23869814931E+02 -0.11659429946E+03  0.11910608858E+03  0.00000000000E+00 0. -1.
         11    1    3    3    0    0 -0.80345616160E+02 -0.44463025509E+02 -0.26484758797E+03  0.28031522172E+03  0.00000000000E+00 0.  1.
</event>
<event>
 7    1  0.4687179E-006  0.8885777E+02  0.7561462E-02  0.1305642E+00
          2   -1    0    0  501    0  0.00000000000E+00  0.00000000000E+00  0.56147403828E+02  0.56147403828E+02  0.00000000000E+00 0.  1.
         -2   -1    0    0    0  501 -0.00000000000E+00 -0.00000000000E+00 -0.22344246006E+03  0.22344246006E+03  0.00000000000E+00 0. -1.
         23    2    1    2    0    0  0.10628164810E+02  0.22458627071E+02 -0.70283969778E+02  0.11935226523E+03  0.93208256025E+02 0.  0.
          5    1    1    2  502    0 -0.95274939131E+01  0.47775998159E+02 -0.12891198239E+02  0.50566535697E+02  0.41800000000E+01 0.  1.
         -5    1    1    2    0  502 -0.11006708970E+01 -0.70234625230E+02 -0.84119888217E+02  0.10967106296E+03  0.41800000000E+01 0.  1.
        -11    1    3    3    0    0  0.25956919211E+02  0.31373847262E+02  0.58883688210E+01  0.41143077600E+02  0.00000000000E+00 0.  1.
         11    1    3    3    0    0 -0.15328754401E+02 -0.89152201914E+01 -0.76172338599E+02  0.78209187633E+02  0.00000000000E+00 0. -1.
</event>
<event>
 7    1  0.4687179E-006  0.2162749E+03  0.7561462E-02  0.1136691E+00
          1   -1    0    0  501    0  0.00000000000E+00  0.00000000000E+00  0.44367573659E+03  0.44367573659E+03  0.00000000000E+00 0. -1.
         -1   -1    0    0    0  501 -0.00000000000E+00 -0.00000000000E+00 -0.11693954595E+03  0.11693954595E+03  0.00000000000E+00 0.  1.
         23    2    1    2    0    0 -0.18788438052E+03  0.59827992652E+02  0.19658277135E+03  0.29328506913E+03  0.92148882961E+02 0.  0.
          5    1    1    2  502    0  0.25982259738E+02 -0.61462062665E+02  0.14775631270E+02  0.68472291094E+02  0.41800000000E+01 0. -1.
         -5    1    1    2    0  502  0.16190212078E+03  0.16340700136E+01  0.11537778802E+03  0.19885792231E+03  0.41800000000E+01 0. -1.
        -11    1    3    3    0    0 -0.11834736467E+03  0.63088893289E+02  0.17484478268E+03  0.22035654111E+03  0.00000000000E+00 0. -1.
         11    1    3    3    0    0 -0.69537015852E+02 -0.32609006373E+01  0.21737988671E+02  0.72928528012E+02  0.00000000000E+00 0.  1.
</event>
<event>
 7    1  0.4687179E-006  0.1204441E+03  0.7561462E-02  0.1242366E+00
          3   -1    0    0  501    0  0.00000000000E+00  0.00000000000E+00  0.32085860057E+02  0.32085860057E+02  0.00000000000E+00 0. -1.
         -3   -1    0    0    0  501 -0.00000000000E+00 -0.00000000000E+00 -0.82905413974E+03  0.82905413974E+03  0.00000000000E+00 0.  1.
         23    2    1    2    0    0 -0.24863838455E+02 -0.11549569991E+03 -0.29263486810E+03  0.32826351075E+03  0.90356512225E+02 0.  0.
          5    1    1    2  502    0  0.94520453651E+01  0.22502755029E+02 -0.35739850675E+03  0.35825532819E+03  0.41800000000E+01 0.  1.
         -5    1    1    2    0  502  0.15411793090E+02  0.92992944876E+02 -0.14693490483E+03  0.17462116086E+03  0.41800000000E+01 0.  1.
        -11    1    3    3    0    0  0.54265884372E+01 -0.40933327413E+02 -0.23841276474E+02  0.47680096677E+02  0.00000000000E+00 0. -1.
         11    1    3    3    0    0 -0.30290426892E+02 -0.74562372492E+02 -0.26879359163E+03  0.28058341407E+03  0.00000000000E+00 0.  1.
</event>
<event>
 7    1  0.4687179E-006  0.1070106E+03  0.7561462E-02  0.1266208E+00
         -1   -1    0    0    0  501 -0.00000000000E+00  0.00000000000E+00  0.40869644592E+02  0.40869644592E+02  0.00000000000E+00 0.  1.
          1   -1    0    0  501    0  0.00000000000E+00 -0.00000000000E+00 -0.35207187984E+03  0.35207187984E+03  0.00000000000E+00 0. -1.
         23    2    1    2    0    0  0.14905116160E+02 -0.22183077057E+02 -0.20539177171E+03  0.22694105322E+03  0.92748101619E+02 0.  0.
          5    1    1    2  502    0  0.19387137770E+02 -0.43258541990E+02 -0.67730532624E+02  0.82777170860E+02  0.41800000000E+01 0.  1.
         -5    1    1    2    0  502 -0.34292253930E+02  0.65441619047E+02 -0.38079930912E+02  0.83223300351E+02  0.41800000000E+01 0.  1.
        -11    1    3    3    0    0  0.43525027730E+02 -0.39672092351E+02 -0.16005663334E+03  0.17054743864E+03  0.00000000000E+00 0. -1.
         11    1    3    3    0    0 -0.28619911569E+02  0.17489015294E+02 -0.45335138372E+02  0.56393614580E+02  0.00000000000E+00 0.  1.
</event>
<event>
 7    1  0.4687179E-006  0.1135651E+03  0.7561462E-02  0.1254107E+00
         -2   -1    0    0    0  501 -0.00000000000E+00  0.00000000000E+00  0.96824655942E+02  0.96824655942E+02  0.00000000000E+00 0.  1.
          2   -1    0    0  501    0  0.00000000000E+00 -0.00000000000E+00 -0.13897820908E+03  0.13897820908E+03  0.00000000000E+00 0. -1.
         23    2    1    2    0    0  0.21279612934E+02 -0.39992634039E+02 -0.15320587172E+02  0.10008456304E+03  0.87920228979E+02 0.  0.
          5    1    1    2  502    0  0.41473015242E+02  0.54284685282E+02 -0.16470836424E+02  0.70396014816E+02  0.41800000000E+01 0. -1.
         -5    1    1    2    0  502 -0.62752628176E+02 -0.14292051243E+02 -0.10362129540E+02  0.65322287164E+02  0.41800000000E+01 0. -1.
        -11    1    3    3    0    0 -0.16074155538E+02 -0.52417753037E+02  0.62735268291E+01  0.55184748334E+02  0.00000000000E+00 0.  1.
         11    1    3    3    0    0  0.37353768472E+02  0.12425118999E+02 -0.21594114001E+02  0.44899814707E+02  0.00000000000E+00 0. -1.
</event>
<event>
 7    1  0.4687179E-006  0.1314523E+03  0.7561462E-02  0.1225317E+00
         -2   -1    0    0    0  501 -0.00000000000E+00  0.00000000000E+00  0.34269811856E+02  0.34269811856E+02  0.00000000000E+00 0.  1.
          2   -1    0    0  501    0  0.00000000000E+00 -0.00000000000E+00 -0.57164501978E+03  0.57164501978E+03  0.00000000000E+00 0. -1.
         23    2    1    2    0    0  0.42905411076E+02  0.73159312765E+02 -0.29577428102E+03  0.32093803826E+03  0.91244943676E+02 0.  0.
          5    1    1    2  502    0 -0.62558444626E+01  0.34857529652E+02 -0.42503973585E+02  0.55481917179E+02  0.41800000000E+01 0. -1.
         -5    1    1    2    0  502 -0.36649566613E+02 -0.10801684242E+03 -0.19909695331E+03  0.22949487619E+03  0.41800000000E+01 0. -1.
        -11    1    3    3    0    0  0.55440537498E+02  0.20719875183E+02 -0.22076825286E+03  0.22856418769E+03  0.00000000000E+00 0. -1.
         11    1    3    3    0    0 -0.12535126422E+02  0.52439437582E+02 -0.75006028168E+02  0.92373850574E+02  0.00000000000E+00 0.  1.
</event>
<event>
 7    1  0.4687179E-006  0.1379935E+03  0.7561462E-02  0.1216055E+00
          2   -1    0    0  501    0  0.00000000000E+00  0.00000000000E+00  0.15068479391E+03  0.15068479391E+03  0.00000000000E+00 0.  1.
         -2   -1    0    0    0  501 -0.00000000000E+00 -0.00000000000E+00 -0.16507561984E+03  0.16507561984E+03  0.00000000000E+00 0. -1.
         23    2    1    2    0    0 -0.23423687551E+01 -0.11014420858E+03  0.33689217645E+02  0.14227745703E+03  0.83490586404E+02 0.  0.
          5    1    1    2  502    0 -0.44614529048E+02  0.99704160473E+02 -0.58655436864E+02  0.12405365166E+03  0.41800000000E+01 0.  1.
         -5    1    1    2    0  502  0.46956897803E+02  0.10440048105E+02  0.10575393290E+02  0.49429305062E+02  0.41800000000E+01 0.  1.
        -11    1    3    3    0    0 -0.22784940317E+02 -0.52552617943E+02 -0.20262440116E+02  0.60757696117E+02  0.00000000000E+00 0. -1.
         11    1    3    3    0    0  0.20442571562E+02 -0.57591590634E+02  0.53951657761E+02  0.81519760911E+02  0.00000000000E+00 0.  1.
</event>
<event>
 7    1  0.4687179E-006  0.5503566E+02  0.7561462E-02  0.1419930E+00
          2   -1    0    0  501    0  0.00000000000E+00  0.00000000000E+00  0.63045723694E+02  0.63045723694E+02  0.00000000000E+00 0.  1.
         -2   -1    0    0    0  501 -0.00000000000E+00 -0.00000000000E+00 -0.22227338804E+03  0.22227338804E+03  0.00000000000E+00 0. -1.
         23    2    1    2    0    0  0.38280122673E+02  0.10122255921E+02 -0.34304343812E+02  0.10414340762E+03  0.90006852453E+02 0.  0.
          5    1    1    2  502    0 -0.15999215654E+02  0.94175419345E+01 -0.14428229362E+03  0.14553184411E+03  0.41800000000E+01 0. -1.
         -5    1    1    2    0  502 -0.22280907019E+02 -0.19539797856E+02  0.19358973083E+02  0.35643860013E+02  0.41800000000E+01 0. -1.
        -11    1    3    3    0    0  0.99717772264E+01  0.26565536285E+02 -0.57432849310E+02  0.64060098650E+02  0.00000000000E+00 0. -1.
         11    1    3    3    0    0  0.28308345446E+02 -0.16443280364E+02  0.23128505498E+02  0.40083308965E+02  0.00000000000E+00 0.  1.
</event>
<event>
 7    1  0.4687179E-006  0.1885107E+03  0.7561462E-02  0.1159811E+00
         -1   -1    0    0    0  501 -0.00000000000E+00  0.00000000000E+00  0.22783161523E+03  0.22783161523E+03  0.00000000000E+00 0. -1.
          1   -1    0    0  501    0  0.00000000000E+00 -0.00000000000E+00 -0.23900205607E+03  0.23900205607E+03  0.00000000000E+00 0.  1.
         23    2    1    2    0    0 -0.42312641961E+02  0.17886631364E+03 -0.10245376968E+03  0.22649220472E+03  0.83776046997E+02 0.  0.
          5    1    1    2  502    0  0.18736309762E+02 -0.10164033691E+02  0.64243464507E+02  0.67816310842E+02  0.41800000000E+01 0.  1.
         -5    1    1    2    0  502  0.23576332199E+02 -0.16870227995E+03  0.27039864336E+02  0.17252515574E+03  0.41800000000E+01 0.  1.
        -11    1    3    3    0    0 -0.18923516362E+02  0.42134429703E+02 -0.70268111237E+02  0.84089339959E+02  0.00000000000E+00 0.  1.
         11    1    3    3    0    0 -0.23389125599E+02  0.13673188394E+03 -0.32185658441E+02  0.14240286476E+03  0.00000000000E+00 0. -1.
</event>
<event>
 7    1  0.4687179E-006  0.1160521E+03  0.7561462E-02  0.1249756E+00
          2   -1    0    0  501    0  0.00000000000E+00  0.00000000000E+00  0.86135655229E+03  0.86135655229E+03  0.00000000000E+00 0. -1.
         -2   -1    0    0    0  501 -0.00000000000E+00 -0.00000000000E+00 -0.20933766744E+02  0.20933766744E+02  0.00000000000E+00 0.  1.
         23    2    1    2    0    0  0.40015047385E+02 -0.53223378618E+02  0.51596211659E+03  0.52823334378E+03  0.91540306282E+02 0.  0.
          5    1    1    2  502    0 -0.42921933322E+02  0.83717219036E+02  0.15170957542E+03  0.17856128583E+03  0.41800000000E+01 0.  1.
         -5    1    1    2    0  502  0.29068859368E+01 -0.30493840418E+02  0.17275109354E+03  0.17549568943E+03  0.41800000000E+01 0.  1.
        -11    1    3    3    0    0 -0.63570843747E+01  0.19642881036E+02  0.46287250606E+02  0.50682983987E+02  0.00000000000E+00 0.  1.
         11    1    3    3    0    0  0.46372131760E+02 -0.72866259653E+02  0.46967486598E+03  0.47755035979E+03  0.00000000000E+00 0. -1.
</event>
<event>
 7    1  0.4687179E-006  0.1541206E+03  0.7561462E-02  0.1195499E+00
          2   -1    0    0  501    0  0.00000000000E+00  0.00000000000E+00  0.55147735840E+03  0.55147735840E+03  0.00000000000E+00 0. -1.
         -2   -1    0    0    0  501 -0.00000000000E+00 -0.00000000000E+00 -0.54755225365E+02  0.54755225365E+02  0.00000000000E+00 0.  1.
         23    2    1    2    0    0  0.58297212541E+02 -0.11066289211E+03  0.32235029508E+03  0.35784305382E+03  0.92179703545E+02 0.  0.
          5    1    1    2  502    0  0.36029571019E+02  0.56804345378E+02  0.78376685401E+02  0.10336943869E+03  0.41800000000E+01 0. -1.
         -5    1    1    2    0  502 -0.94326783560E+02  0.53858546736E+02  0.95995152550E+02  0.14502009125E+03  0.41800000000E+01 0. -1.
        -11    1    3    3    0    0  0.43340460591E+00 -0.43460927673E+02  0.21132500929E+03  0.21574823203E+03  0.00000000000E+00 0. -1.
         11    1    3    3    0    0  0.57863807935E+02 -0.67201964441E+02  0.11102528580E+03  0.14209482179E+03  0.00000000000E+00 0.  1.
</event>
<event>
 7    1  0.4687179E-006  0.1146444E+03  0.7561462E-02  0.1252203E+00
          1   -1    0    0  501    0  0.00000000000E+00  0.00000000000E+00  0.36637618146E+03  0.36637618146E+03  0.00000000000E+00 0.  1.
         -1   -1    0    0    0  501 -0.00000000000E+00 -0.00000000000E+00 -0.38899380053E+02  0.38899380053E+02  0.00000000000E+00 0. -1.
         23    2    1    2    0    0 -0.39840364306E+01  0.50253432046E+02  0.13312238387E+03  0.16871274694E+03  0.90560156319E+02 0.  0.
          5    1    1    2  502    0  0.10059597427E+02  0.37706102127E+02  0.99655268839E+02  0.10710551174E+03  0.41800000000E+01 0. -1.
         -5    1    1    2    0  502 -0.60755609963E+01 -0.87959534173E+02  0.94699148695E+02  0.12945730283E+03  0.41800000000E+01 0. -1.
        -11    1    3    3    0    0 -0.45089118558E+02  0.37756354173E+02  0.92331737136E+02  0.10947018122E+03  0.00000000000E+00 0.  1.
         11    1    3    3    0    0  0.41105082128E+02  0.12497077873E+02  0.40790646734E+02  0.59242565720E+02  0.00000000000E+00 0. -1.
</event>
<event>
 7    1  0.4687179E-006  0.1127886E+03  0.7561462E-02  0.1255491E+00
          2   -1    0    0  501    0  0.00000000000E+00  0.00000000000E+00  0.22349436574E+03  0.22349436574E+03  0.00000000000E+00 0. -1.
         -2   -1    0    0    0  501 -0.00000000000E+00 -0.00000000000E+00 -0.91360849211E+02  0.91360849211E+02  0.00000000000E+00 0.  1.
         23    2    1    2    0    0 -0.35924082301E+02 -0.13601936033E+02  0.14233282477E+03  0.18360264126E+03  0.10943374487E+03 0.  0.
          5    1    1    2  502    0  0.61198731419E+01 -0.54154258895E+02  0.71093550342E+01  0.55119433349E+02  0.41800000000E+01 0. -1.
         -5    1    1    2    0  502  0.29804209159E+02  0.67756194928E+02 -0.17308663271E+02  0.76133140346E+02  0.41800000000E+01 0. -1.
        -11    1    3    3    0    0  0.92923478288E+01  0.31543120759E+02  0.65386880530E+01  0.33527162672E+02  0.00000000000E+00 0.  1.
         11    1    3    3    0    0 -0.45216430130E+02 -0.45145056792E+02  0.13579413671E+03  0.15007547858E+03  0.00000000000E+00 0. -1.
</event>
<event>
 7    1  0.4687179E-006  0.1680762E+03  0.7561462E-02  0.1179869E+00
          3   -1    0    0  501    0  0.00000000000E+00  0.00000000000E+00  0.28242760078E+03  0.28242760078E+03  0.00000000000E+00 0. -1.
         -3   -1    0    0    0  501 -0.00000000000E+00 -0.00000000000E+00 -0.10757478414E+03  0.10757478414E+03  0.00000000000E+00 0.  1.
         23    2    1    2    0    0  0.96528031738E+02  0.92880653825E+02  0.10547268609E+03  0.19402955189E+03  0.92620206920E+02 0.  0.
          5    1    1    2  502    0 -0.12270285867E+03 -0.96051140240E+02  0.65129019149E+02  0.16894103884E+03  0.41800000000E+01 0. -1.
         -5    1    1    2    0  502  0.26174826935E+02  0.31704864154E+01  0.42511114036E+01  0.27031794194E+02  0.41800000000E+01 0. -1.
        -11    1    3    3    0    0  0.83972228760E+02  0.29563173435E+02  0.28288428006E+02  0.93410660985E+02  0.00000000000E+00 0.  1.
         11    1    3    3    0    0  0.12555802978E+02  0.63317480390E+02  0.77184258084E+02  0.10061889091E+03  0.00000000000E+00 0. -1.
</event>
<event>
 7    1  0.4687179E-006  0.1177252E+03  0.7561462E-02  0.1246898E+00
          2   -1    0    0  501    0  0.00000000000E+00  0.00000000000E+00  0.34682030816E+03  0.34682030816E+03  0.00000000000E+00 0.  1.
         -2   -1    0    0    0  501 -0.00000000000E+00 -0.00000000000E+00 -0.62425710174E+02  0.62425710174E+02  0.00000000000E+00 0. -1.
         23    2    1    2    0    0  0.13176207817E+02  0.95678595319E+02  0.10129117294E+03  0.16736780809E+03  0.91782762076E+02 0.  0.
          5    1    1    2  502    0 -0.33035286221E+02 -0.10910781645E+03  0.18513468866E+03  0.21745843532E+03  0.41800000000E+01 0.  1.
         -5    1    1    2    0  502  0.19859078403E+02  0.13429221135E+02 -0.20312636191E+01  0.24419774922E+02  0.41800000000E+01 0.  1.
        -11    1    3    3    0    0  0.60136217204E+01  0.73210844960E+02  0.11762745337E+03  0.13868024103E+03  0.00000000000E+00 0.  1.
         11    1    3    3    0    0  0.71625860969E+01  0.22467750359E+02 -0.16336280425E+02  0.28687567062E+02  0.00000000000E+00 0. -1.
</event>
<event>
 7    1  0.4687179E-006  0.2112337E+03  0.7561462E-02  0.1140593E+00
          2   -1    0    0  501    0  0.00000000000E+00  0.00000000000E+00  0.64057228830E+03  0.64057228830E+03  0.00000000000E+00 0. -1.
         -2   -1    0    0    0  501 -0.00000000000E+00 -0.00000000000E+00 -0.76312219479E+02  0.76312219479E+02  0.00000000000E+00 0.  1.
         23    2    1    2    0    0 -0.14444549640E+03 -0.12362514327E+03  0.22468972454E+03  0.30806846929E+03  0.90956209129E+02 0.  0.
          5    1    1    2  502    0  0.23317325192E+02 -0.20747836718E+02  0.94672227985E+02  0.99772107997E+02  0.41800000000E+01 0. -1.
         -5    1    1    2    0  502  0.12112817120E+03  0.14437297999E+03  0.24489811630E+03  0.30904393050E+03  0.41800000000E+01 0. -1.
        -11    1    3    3    0    0 -0.49481848999E+02 -0.88174721325E+02  0.69445058946E+02  0.12266153053E+03  0.00000000000E+00 0.  1.
         11    1    3    3    0    0 -0.94963647398E+02 -0.35450421943E+02  0.15524466559E+03  0.18540693875E+03  0.00000000000E+00 0. -1.
</event>
<event>
 7    1  0.4687179E-006  0.2775117E+03  0.7561462E-02  0.1097056E+00
          1   -1    0    0  501    0  0.00000000000E+00  0.00000000000E+00  0.64976119085E+02  0.64976119085E+02  0.00000000000E+00 0.  1.
         -1   -1    0    0    0  501 -0.00000000000E+00 -0.00000000000E+00 -0.13541161251E+04  0.13541161251E+04  0.00000000000E+00 0. -1.
         23    2    1    2    0    0 -0.20581728245E+03  0.15176847893E+03 -0.38847869164E+03  0.47451161461E+03  0.94080569704E+02 0.  0.
          5    1    1    2  502    0  0.18913106319E+03 -0.17312648235E+03 -0.83279274877E+03  0.87138084255E+03  0.41800000000E+01 0.  1.
         -5    1    1    2    0  502  0.16686219256E+02  0.21358003418E+02 -0.67868565622E+02  0.73199787040E+02  0.41800000000E+01 0.  1.
        -11    1    3    3    0    0 -0.14221415034E+03  0.15117600630E+03 -0.31615885908E+03  0.37820030885E+03  0.00000000000E+00 0.  1.
         11    1    3    3    0    0 -0.63603132102E+02  0.59247263298E+00 -0.72319832561E+02  0.96311305768E+02  0.00000000000E+00 0. -1.
</event>
<event>
 7    1  0.4687179E-006  0.9508432E+02  0.7561462E-02  0.1290986E+00
         -1   -1    0    0    0  501 -0.00000000000E+00  0.00000000000E+00  0.73038592634E+02  0.73038592634E+02  0.00000000000E+00 0.  1.
          1   -1    0    0  501    0  0.00000000000E+00 -0.00000000000E+00 -0.40174411957E+03  0.40174411957E+03  0.00000000000E+00 0. -1.
         23    2    1    2    0    0  0.29188940718E+02 -0.66432870807E+02 -0.30803480539E+03  0.32869928175E+03  0.88839495226E+02 0.  0.
          5    1    1    2  502    0 -0.32119280989E+02  0.74858358859E+02 -0.62722481807E+02  0.10289316900E+03  0.41800000000E+01 0.  1.
         -5    1    1    2    0  502  0.29303402720E+01 -0.84254880524E+01  0.42051760261E+02  0.43190261450E+02  0.41800000000E+01 0.  1.
        -11    1    3    3    0    0  0.34839863719E+02 -0.28912232291E+01 -0.20161963117E+03  0.20462807957E+03  0.00000000000E+00 0. -1.
         11    1    3    3    0    0 -0.56509230017E+01 -0.63541647578E+02 -0.10641517422E+03  0.12407120219E+03  0.00000000000E+00 0.  1.
</event>
<event>
 7    1  0.4687179E-006  0.7593121E+02  0.7561462E-02  0.1341011E+00
         -1   -1    0    0    0  501 -0.00000000000E+00  0.00000000000E+00  0.18949249073E+03  0.18949249073E+03  0.00000000000E+00 0.  1.
          1   -1    0    0  501    0  0.00000000000E+00 -0.00000000000E+00 -0.79945198459E+02  0.79945198459E+02  0.00000000000E+00 0. -1.
         23    2    1    2    0    0 -0.46615624277E+02 -0.12848396673E+02  0.79543028630E+01  0.10254758687E+03  0.90081290597E+02 0.  0.
          5    1    1    2  502    0  0.71491569888E+01  0.53524943076E+01 -0.28770486982E+02  0.30413368148E+02  0.41800000000E+01 0. -1.
         -5    1    1    2    0  502  0.39466467288E+02  0.74959023654E+01  0.13036347639E+03  0.13647673417E+03  0.41800000000E+01 0.  1.
        -11    1    3    3    0    0 -0.70726448669E+02 -0.24479800493E+02  0.10834677725E+02  0.75623286195E+02  0.00000000000E+00 0. -1.
         11    1    3    3    0    0  0.24110824392E+02  0.11631403820E+02 -0.28803748624E+01  0.26924300678E+02  0.00000000000E+00 0.  1.
</event>
<event>
 7    1  0.4687179E-006  0.9294008E+02  0.7561462E-02  0.1295884E+00
         -3   -1    0    0    0  501 -0.00000000000E+00  0.00000000000E+00  0.81188146608E+02  0.81188146608E+02  0.00000000000E+00 0.  1.
          3   -1    0    0  501    0  0.00000000000E+00 -0.00000000000E+00 -0.26391071458E+03  0.26391071458E+03  0.00000000000E+00 0. -1.
         23    2    1    2    0    0 -0.42302050404E+02  0.44294499486E+02 -0.17397791991E+03  0.20554467962E+03  0.90712912813E+02 0.  0.
          5    1    1    2  502    0 -0.27020553517E+01 -0.34047347461E+02 -0.60797595394E+02  0.69859451601E+02  0.41800000000E+01 0.  1.
         -5    1    1    2    0  502  0.45004105756E+02 -0.10247152025E+02  0.52052947331E+02  0.69694729968E+02  0.41800000000E+01 0.  1.
        -11    1    3    3    0    0 -0.52350713211E+02  0.64193617551E+02 -0.15704126314E+03  0.17754823580E+03  0.00000000000E+00 0. -1.
         11    1    3    3    0    0  0.10048662807E+02 -0.19899118064E+02 -0.16936656771E+02  0.27996443819E+02  0.00000000000E+00 0.  1.
</event>
<event>
 7    1  0.4687179E-006  0.1271449E+03  0.7561462E-02  0.1231755E+00
          1   -1    0    0  501    0  0.00000000000E+00  0.00000000000E+00  0.93999069840E+03  0.93999069840E+03  0.00000000000E+00 0. -1.
         -1   -1    0    0    0  501 -0.00000000000E+00 -0.00000000000E+00 -0.22292990798E+02  0.22292990798E+02  0.00000000000E+00 0.  1.
         23    2    1    2    0    0 -0.62933082471E+02 -0.42372781731E+02  0.61421540348E+03  0.62537832487E+03  0.89896951292E+02 0.  0.
          5    1    1    2  502    0 -0.21673712491E+02  0.48519061245E+02  0.66896608421E+02  0.85536411752E+02  0.41800000000E+01 0.  1.
         -5    1    1    2    0  502  0.84606794962E+02 -0.61462795140E+01  0.23658569571E+03  0.25136895258E+03  0.41800000000E+01 0.  1.
        -11    1    3    3    0    0  0.14967971847E+02  0.13524089174E+02  0.73020059335E+02  0.75755331393E+02  0.00000000000E+00 0.  1.
         11    1    3    3    0    0 -0.77901054318E+02 -0.55896870905E+02  0.54119534414E+03  0.54962299348E+03  0.00000000000E+00 0. -1.
</event>
<event>
 6    1  0.4687179E-006  0.7848227E+02  0.7561462E-02  0.1333415E+00
          3   -1    0    0  501    0  0.00000000000E+00  0.00000000000E+00  0.40647298397E+03  0.40647298397E+03  0.00000000000E+00 0. -1.
         -3   -1    0    0    0  501 -0.00000000000E+00 -0.00000000000E+00 -0.19848457372E+02  0.19848457372E+02  0.00000000000E+00 0.  1.
          5    1    1    2  502    0  0.45220683902E+02  0.33223265258E+02  0.14192263292E+03  0.15267023856E+03  0.41800000000E+01 0. -1.
         -5    1    1    2    0  502 -0.41164542429E+02 -0.26211049978E+02  0.43786200861E+02  0.65698116261E+02  0.41800000000E+01 0.  1.
        -11    1    1    2    0    0  0.19306881471E+02 -0.17545566837E+02  0.12889330703E+03  0.13150698531E+03  0.00000000000E+00 0. -1.
         11    1    1    2    0    0 -0.23363022944E+02  0.10533351557E+02  0.72022385781E+02  0.76446101207E+02  0.00000000000E+00 0.  1.
</event>
<event>
 7    1  0.4687179E-006  0.1075207E+03  0.7561462E-02  0.1265231E+00
         -1   -1    0    0    0  501 -0.00000000000E+00  0.00000000000E+00  0.20719722384E+03  0.20719722384E+03  0.00000000000E+00 0.  1.
          1   -1    0    0  501    0  0.00000000000E+00 -0.00000000000E+00 -0.79554386271E+02  0.79554386271E+02  0.00000000000E+00 0. -1.
         23    2    1    2    0    0  0.13448376216E+02 -0.62912027138E+02  0.37847645031E+02  0.11986803927E+03  0.93792966806E+02 0.  0.
          5    1    1    2  502    0 -0.12454668251E+02  0.82098542504E+02  0.11052927980E+03  0.13830937616E+03  0.41800000000E+01 0.  1.
         -5    1    1    2    0  502 -0.99370796543E+00 -0.19186515366E+02 -0.20734087255E+02  0.28574194682E+02  0.41800000000E+01 0.  1.
        -11    1    3    3    0    0  0.33090215998E+02  0.11688305315E+02  0.21032498637E+02  0.40913871423E+02  0.00000000000E+00 0.  1.
         11    1    3    3    0    0 -0.19641839782E+02 -0.74600332452E+02  0.16815146394E+02  0.78954167846E+02  0.00000000000E+00 0. -1.
</event>
<event>
 7    1  0.4687179E-006  0.2224543E+03  0.7561462E-02  0.1132066E+00
         -2   -1    0    0    0  501 -0.00000000000E+00  0.00000000000E+00  0.81907487499E+02  0.81907487499E+02  0.00000000000E+00 0.  1.
          2   -1    0    0  501    0  0.00000000000E+00 -0.00000000000E+00 -0.80291544599E+03  0.80291544599E+03  0.00000000000E+00 0. -1.
         23    2    1    2    0    0 -0.19171339657E+03  0.81103239922E+02 -0.52702122823E+03  0.57400422861E+03  0.91639061008E+02 0.  0.
          5    1    1    2  502    0 -0.17444950364E+01  0.14947672392E+02 -0.46994647511E+02  0.49522171474E+02  0.41800000000E+01 0. -1.
         -5    1    1    2    0  502  0.19345789160E+03 -0.96050912315E+02 -0.14699208274E+03  0.26129653340E+03  0.41800000000E+01 0. -1.
        -11    1    3    3    0    0 -0.24457981713E+02  0.29297083601E+02 -0.35102563199E+02  0.51852694435E+02  0.00000000000E+00 0.  1.
         11    1    3    3    0    0 -0.16725541485E+03  0.51806156322E+02 -0.49191866503E+03  0.52215153417E+03  0.00000000000E+00 0. -1.
</event>
<event>
 7    1  0.4687179E-006  0.6948894E+02  0.7561462E-02  0.1361840E+00
          1   -1    0    0  501    0  0.00000000000E+00  0.00000000000E+00  0.69358624118E+02  0.69358624118E+02  0.00000000000E+00 0.  1.
         -1   -1    0    0    0  501 -0.00000000000E+00 -0.00000000000E+00 -0.20453484035E+03  0.20453484035E+03  0.00000000000E+00 0. -1.
         23    2    1    2    0    0 -0.47110380429E+02 -0.58129891175E+01 -0.42587394704E+02  0.11118869423E+03  0.91082713788E+02 0.  0.
          5    1    1    2  502    0  0.38336161940E+02  0.59098814305E+01 -0.12391182928E+03  0.12990843640E+03  0.41800000000E+01 0.  1.
         -5    1    1    2    0  502  0.87742184894E+01 -0.96892312974E-01  0.31323007757E+02  0.32796333837E+02  0.41800000000E+01 0.  1.
        -11    1    3    3    0    0 -0.45540531523E+02 -0.37209595654E+02 -0.51865220426E+02  0.78412340291E+02  0.00000000000E+00 0. -1.
         11    1    3    3    0    0 -0.15698489062E+01  0.31396606537E+02  0.92778257217E+01  0.32776353942E+02  0.00000000000E+00 0.  1.
</event>
<event>
 7    1  0.4687179E-006  0.1792153E+03  0.7561462E-02  0.1168565E+00
         -2   -1    0    0    0  501 -0.00000000000E+00  0.00000000000E+00  0.85109265323E+02  0.85109265323E+02  0.00000000000E+00 0.  1.
          2   -1    0    0  501    0  0.00000000000E+00 -0.00000000000E+00 -0.42832199541E+03  0.42832199541E+03  0.00000000000E+00 0. -1.
         23    2    1    2    0    0  0.39779182557E+02 -0.15136853696E+03 -0.17040875455E+03  0.24887928501E+03  0.91689353440E+02 0.  0.
          5    1    1    2  502    0 -0.29678004531E+02 -0.57799220393E+01 -0.70217981117E+02  0.76565192639E+02  0.41800000000E+01 0.  1.
         -5    1    1    2    0  502 -0.10101178026E+02  0.15714845900E+03 -0.10258599442E+03  0.18798678308E+03  0.41800000000E+01 0.  1.
        -11    1    3    3    0    0 -0.19214922266E+02 -0.37168070508E+02 -0.94510676536E+01  0.42895237297E+02  0.00000000000E+00 0.  1.
         11    1    3    3    0    0  0.58994104824E+02 -0.11420046645E+03 -0.16095768690E+03  0.20598404771E+03  0.00000000000E+00 0. -1.
</event>
<event>
 7    1  0.4687179E-006  0.8314678E+02  0.7561462E-02  0.1320351E+00
          2   -1    0    0  501    0  0.00000000000E+00  0.00000000000E+00  0.74293217798E+03  0.74293217798E+03  0.00000000000E+00 0. -1.
         -2   -1    0    0    0  501 -0.00000000000E+00 -0.00000000000E+00 -0.19246432868E+02  0.19246432868E+02  0.00000000000E+00 0.  1.
         23    2    1    2    0    0 -0.46974633906E+02 -0.11030281659E+02  0.34973999409E+03  0.36492288337E+03  0.92316650700E+02 0.  0.
          5    1    1    2  502    0  0.43716587230E+02  0.22903343261E+02  0.41673273143E+02  0.64728951992E+02  0.41800000000E+01 0.  1.
         -5    1    1    2    0  502  0.32580466764E+01 -0.11873061602E+02  0.33227247788E+03  0.33252677548E+03  0.41800000000E+01 0.  1.
        -11    1    3    3    0    0 -0.64763942765E+02 -0.35230863391E+02  0.23334687618E+03  0.24471687037E+03  0.00000000000E+00 0. -1.
         11    1    3    3    0    0  0.17789308859E+02  0.24200581732E+02  0.11639311791E+03  0.12020601301E+03  0.00000000000E+00 0.  1.
</event>
<event>
 7    1  0.4687179E-006  0.1292081E+03  0.7561462E-02  0.1228635E+00
          2   -1    0    0  501    0  0.00000000000E+00  0.00000000000E+00  0.39305764458E+03  0.39305764458E+03  0.00000000000E+00 0. -1.
         -2   -1    0    0    0  501 -0.00000000000E+00 -0.00000000000E+00 -0.52970388407E+02  0.52970388407E+02  0.00000000000E+00 0.  1.
         23    2    1    2    0    0  0.38937348800E+02  0.83580168768E+02  0.14209346327E+03  0.19413908820E+03  0.94856056846E+02 0.  0.
          5    1    1    2  502    0 -0.30195451124E+02  0.20590438296E+02  0.12365708867E+02  0.38808691985E+02  0.41800000000E+01 0.  1.
         -5    1    1    2    0  502 -0.87418976768E+01 -0.10417060706E+03  0.18562808404E+03  0.21308025281E+03  0.41800000000E+01 0.  1.
        -11    1    3    3    0    0  0.41717874264E+02  0.93820813594E+01  0.12106932962E+02  0.44440773052E+02  0.00000000000E+00 0.  1.
         11    1    3    3    0    0 -0.27805254635E+01  0.74198087408E+02  0.12998653030E+03  0.14969831515E+03  0.00000000000E+00 0. -1.
</event>
<event>
 7    1  0.4687179E-006  0.1172262E+03  0.7561462E-02  0.1247744E+00
         -1   -1    0    0    0  501 -0.00000000000E+00  0.00000000000E+00  0.12088961359E+03  0.12088961359E+03  0.00000000000E+00 0.  1.
          1   -1    0    0  501    0  0.00000000000E+00 -0.00000000000E+00 -0.11658927830E+03  0.11658927830E+03  0.00000000000E+00 0. -1.
         23    2    1    2    0    0  0.26998248970E+02 -0.31412712705E+02  0.79796493016E+00  0.10566241006E+03  0.97202079122E+02 0.  0.
          5    1    1    2  502    0 -0.41934092195E+02 -0.39673608646E+02  0.10123160948E+02  0.58757247203E+02  0.41800000000E+01 0. -1.
         -5    1    1    2    0  502  0.14935843225E+02  0.71086321351E+02 -0.66207905922E+01  0.73059234626E+02  0.41800000000E+01 0. -1.
        -11    1    3    3    0    0  0.43338627444E+02  0.21541519073E+02 -0.94333652157E+01  0.49307829520E+02  0.00000000000E+00 0.  1.
         11    1    3    3    0    0 -0.16340378474E+02 -0.52954231777E+02  0.10231330146E+02  0.56354580544E+02  0.00000000000E+00 0. -1.
</event>
<event>
 7    1  0.4687179E-006  0.1146303E+03  0.7561462E-02  0.1252228E+00
         -2   -1    0    0    0  501 -0.00000000000E+00  0.00000000000E+00  0.30048897901E+02  0.30048897901E+02  0.00000000000E+00 0.  1.
          2   -1    0    0  501    0  0.00000000000E+00 -0.00000000000E+00 -0.48262298826E+03  0.48262298826E+03  0.00000000000E+00 0. -1.
         23    2    1    2    0    0 -0.46228772677E+02  0.22622927944E+02 -0.22973870469E+03  0.25199790833E+03  0.89856424806E+02 0.  0.
          5    1    1    2  502    0  0.31841000301E+02  0.46636662702E+02 -0.57054988214E+02  0.80383901922E+02  0.41800000000E+01 0. -1.
         -5    1    1    2    0  502  0.14387772375E+02 -0.69259590646E+02 -0.16578039745E+03  0.18029007591E+03  0.41800000000E+01 0. -1.
        -11    1    3    3    0    0 -0.53200654741E+02 -0.21296894296E+02 -0.10579699445E+03  0.12031987121E+03  0.00000000000E+00 0.  1.
         11    1    3    3    0    0  0.69718820642E+01  0.43919822240E+02 -0.12394171024E+03  0.13167803713E+03  0.00000000000E+00 0. -1.
</event>
<event>
 7    1  0.4687179E-006  0.1113277E+03  0.7561462E-02  0.1258131E+00
         -2   -1    0    0    0  501 -0.00000000000E+00  0.00000000000E+00  0.22887080690E+02  0.22887080690E+02  0.00000000000E+00 0.  1.
          2   -1    0    0  501    0  0.00000000000E+00 -0.00000000000E+00 -0.61966361213E+03  0.61966361213E+03  0.00000000000E+00 0. -1.
         23    2    1    2    0    0 -0.89776104268E+01 -0.47786149814E+02 -0.22192325293E+03  0.24439150022E+03  0.90073090225E+02 0.  0.
          5    1    1    2  502    0  0.64795894414E+02  0.22357540742E+02 -0.14857608967E+03  0.16367863141E+03  0.41800000000E+01 0. -1.
         -5    1    1    2    0  502 -0.55818283987E+02  0.25428609072E+02 -0.22627718884E+03  0.23448056119E+03  0.41800000000E+01 0. -1.
        -11    1    3    3    0    0 -0.18900921993E+02 -0.67681381452E+02 -0.20421897939E+03  0.21597084477E+03  0.00000000000E+00 0. -1.
         11    1    3    3    0    0  0.99233115660E+01  0.19895231637E+02 -0.17704273542E+02  0.28420655446E+02  0.00000000000E+00 0.  1.
</event>
<event>
 7    1  0.4687179E-006  0.1183264E+03  0.7561462E-02  0.1245884E+00
         -2   -1    0    0    0  501 -0.00000000000E+00  0.00000000000E+00  0.62841749417E+02  0.62841749417E+02  0.00000000000E+00 0.  1.
          2   -1    0    0  501    0  0.00000000000E+00 -0.00000000000E+00 -0.33321496545E+03  0.33321496545E+03  0.00000000000E+00 0. -1.
         23    2    1    2    0    0  0.59207496551E+02 -0.59223535944E+02 -0.18564370201E+03  0.22331675409E+03  0.91617867828E+02 0.  0.
          5    1    1    2  502    0 -0.73662831736E+02  0.28713578411E+02 -0.10623645224E+03  0.13249278678E+03  0.41800000000E+01 0. -1.
         -5    1    1    2    0  502  0.14455335185E+02  0.30509957533E+02  0.21506938208E+02  0.40247174001E+02  0.41800000000E+01 0. -1.
        -11    1    3    3    0    0 -0.14861724399E+02 -0.45846050123E+02 -0.61446625177E+02  0.78092374209E+02  0.00000000000E+00 0. -1.
         11    1    3    3    0    0  0.74069220949E+02 -0.13377485821E+02 -0.12419707683E+03  0.14522437988E+03  0.00000000000E+00 0.  1.
</event>
<event>
 7    1  0.4687179E-006  0.3153656E+03  0.7561462E-02  0.1077802E+00
         -1   -1    0    0    0  501 -0.00000000000E+00  0.00000000000E+00  0.11909234543E+03  0.11909234543E+03  0.00000000000E+00 0.  1.
          1   -1    0    0  501    0  0.00000000000E+00 -0.00000000000E+00 -0.88576226360E+03  0.88576226360E+03  0.00000000000E+00 0. -1.
         23    2    1    2    0    0 -0.29558112952E+03 -0.78770907186E+02 -0.36404057625E+03  0.48395880061E+03  0.90097278407E+02 0.  0.
          5    1    1    2  502    0  0.21517776110E+03  0.57682009336E+01 -0.31367195528E+03  0.38045013989E+03  0.41800000000E+01 0. -1.
         -5    1    1    2    0  502  0.80403368422E+02  0.73002706253E+02 -0.88957386628E+02  0.14044566853E+03  0.41800000000E+01 0. -1.
        -11    1    3    3    0    0 -0.33966957795E+02 -0.16374812591E+01 -0.94766761641E+02  0.10068353728E+03  0.00000000000E+00 0. -1.
         11    1    3    3    0    0 -0.26161417173E+03 -0.77133425927E+02 -0.26927381461E+03  0.38327526333E+03  0.00000000000E+00 0.  1.
</event>
<event>
 7    1  0.4687179E-006  0.1219118E+03  0.7561462E-02  0.1239976E+00
         -4   -1    0    0    0  501 -0.00000000000E+00  0.00000000000E+00  0.30778110433E+03  0.30778110433E+03  0.00000000000E+00 0. -1.
          4   -1    0    0  501    0  0.00000000000E+00 -0.00000000000E+00 -0.66955023700E+02  0.66955023700E+02  0.00000000000E+00 0.  1.
         23    2    1    2    0    0  0.87856741565E+01  0.71908330603E+02  0.39028184865E+02  0.12650593719E+03  0.96086194894E+02 0.  0.
          5    1    1    2  502    0 -0.33677331098E+02  0.22232162767E+02  0.96853677726E+02  0.10500732822E+03  0.41800000000E+01 0.  1.
         -5    1    1    2    0  502  0.24891656941E+02 -0.94140493370E+02  0.10494421804E+03  0.14322286262E+03  0.41800000000E+01 0.  1.
        -11    1    3    3    0    0  0.28585322321E+02  0.79577095898E+02  0.29059453389E+01  0.84605433408E+02  0.00000000000E+00 0.  1.
         11    1    3    3    0    0 -0.19799648164E+02 -0.76687652957E+01  0.36122239526E+02  0.41900503779E+02  0.00000000000E+00 0. -1.
</event>
<event>
 7    1  0.4687179E-006  0.9770630E+02  0.7561462E-02  0.1285195E+00
          2   -1    0    0  501    0  0.00000000000E+00  0.00000000000E+00  0.35707877344E+03  0.35707877344E+03  0.00000000000E+00 0. -1.
         -2   -1    0    0    0  501 -0.00000000000E+00 -0.00000000000E+00 -0.42983282946E+02  0.42983282946E+02  0.00000000000E+00 0.  1.
         23    2    1    2    0    0  0.30668558504E+02  0.42894109610E+02  0.19180342868E+03  0.21731793254E+03  0.87510361847E+02 0.  0.
          5    1    1    2  502    0  0.87041006881E+01  0.22816288115E+02  0.99754214319E+02  0.10278482401E+03  0.41800000000E+01 0. -1.
         -5    1    1    2    0  502 -0.39372659192E+02 -0.65710397725E+02  0.22537847500E+02  0.79959299841E+02  0.41800000000E+01 0. -1.
        -11    1    3    3    0    0  0.46545440505E+02 -0.17075853219E+01  0.52467932380E+02  0.70158946740E+02  0.00000000000E+00 0.  1.
         11    1    3    3    0    0 -0.15876882001E+02  0.44601694932E+02  0.13933549630E+03  0.14715898580E+03  0.00000000000E+00 0. -1.
</event>
<event>
 7    1  0.4687179E-006  0.7605677E+02  0.7561462E-02  0.1340629E+00
         -2   -1    0    0    0  501 -0.00000000000E+00  0.00000000000E+00  0.70229303650E+02  0.70229303650E+02  0.00000000000E+00 0.  1.
          2   -1    0    0  501    0  0.00000000000E+00 -0.00000000000E+00 -0.18052547728E+03  0.18052547728E+03  0.00000000000E+00 0. -1.
         23    2    1    2    0    0  0.32653630491E+02 -0.12380480080E+02 -0.76257140449E+02  0.11649531980E+03  0.80848452025E+02 0.  0.
          5    1    1    2  502    0 -0.47661981388E+02  0.10458724149E+02  0.37080133014E+02  0.61428479104E+02  0.41800000000E+01 0. -1.
         -5    1    1    2    0  502  0.15008350898E+02  0.19217559304E+01 -0.71119166196E+02  0.72830982027E+02  0.41800000000E+01 0. -1.
        -11    1    3    3    0    0 -0.24372811263E+02 -0.17766541496E+02 -0.19870022133E+02  0.36117886222E+02  0.00000000000E+00 0.  1.
         11    1    3    3    0    0  0.57026441754E+02  0.53860614168E+01 -0.56387118316E+02  0.80377433578E+02  0.00000000000E+00 0. -1.
</event>
<event>
 7    1  0.4687179E-006  0.1386593E+03  0.7561462E-02  0.1215144E+00
         -2   -1    0    0    0  501 -0.00000000000E+00  0.00000000000E+00  0.10497688397E+03  0.10497688397E+03  0.00000000000E+00 0.  1.
          2   -1    0    0  501    0  0.00000000000E+00 -0.00000000000E+00 -0.23820969683E+03  0.23820969683E+03  0.00000000000E+00 0. -1.
         23    2    1    2    0    0 -0.10810662355E+03 -0.38585213346E+02 -0.40463701802E+02  0.14972474257E+03  0.87202790269E+02 0.  0.
          5    1    1    2  502    0  0.51807241809E+02  0.73725215885E+02 -0.89213026342E+02  0.12686935891E+03  0.41800000000E+01 0.  1.
         -5    1    1    2    0  502  0.56299381744E+02 -0.35140002538E+02 -0.35560847073E+01  0.66592479317E+02  0.41800000000E+01 0.  1.
        -11    1    3    3    0    0 -0.46099569828E+02 -0.36112734165E+02 -0.60805734051E+02  0.84419412463E+02  0.00000000000E+00 0. -1.
         11    1    3    3    0    0 -0.62007053725E+02 -0.24724791813E+01  0.20342032249E+02  0.65305330111E+02  0.00000000000E+00 0.  1.
</event>
<event>
 7    1  0.4687179E-006  0.7212599E+02  0.7561462E-02  0.1353009E+00
         -1   -1    0    0    0  501 -0.00000000000E+00  0.00000000000E+00  0.12616265844E+03  0.12616265844E+03  0.00000000000E+00 0.  1.
          1   -1    0    0  501    0  0.00000000000E+00 -0.00000000000E+00 -0.17968721690E+03  0.17968721690E+03  0.00000000000E+00 0. -1.
         23    2    1    2    0    0 -0.25999105268E+01 -0.14139073644E+02 -0.13003554062E+03  0.15851188448E+03  0.89499177420E+02 0.  0.
          5    1    1    2  502    0  0.28537425377E+02  0.35998073323E+02  0.97057219841E+02  0.10746079403E+03  0.41800000000E+01 0. -1.
         -5    1    1    2    0  502 -0.25937514850E+02 -0.21858999679E+02 -0.20546237683E+02  0.39877196824E+02  0.41800000000E+01 0. -1.
        -11    1    3    3    0    0 -0.28904176387E+02 -0.22189716787E+02 -0.12543555147E+03  0.13062125599E+03  0.00000000000E+00 0. -1.
         11    1    3    3    0    0  0.26304265860E+02  0.80506431436E+01 -0.45999891505E+01  0.27890628491E+02  0.00000000000E+00 0.  1.
</event>
<event>
 7    1  0.4687179E-006  0.1305969E+03  0.7561462E-02  0.1226573E+00
          1   -1    0    0  501    0  0.00000000000E+00  0.00000000000E+00  0.20872098098E+03  0.20872098098E+03  0.00000000000E+00 0. -1.
         -1   -1    0    0    0  501 -0.00000000000E+00 -0.00000000000E+00 -0.12476368076E+03  0.12476368076E+03  0.00000000000E+00 0.  1.
         23    2    1    2    0    0  0.60979801517E+02  0.26628109676E+02  0.11366550122E+03  0.15947303212E+03  0.89912231591E+02 0.  0.
          5    1    1    2  502    0  0.44974461798E+02  0.25082766694E+02 -0.20822924239E+02  0.55703805731E+02  0.41800000000E+01 0. -1.
         -5    1    1    2    0  502 -0.10595426332E+03 -0.51710876370E+02 -0.88852767535E+01  0.11830782389E+03  0.41800000000E+01 0.  1.
        -11    1    3    3    0    0  0.66243840922E+02  0.18985765488E+01  0.11650084494E+03  0.13403095883E+03  0.00000000000E+00 0. -1.
         11    1    3    3    0    0 -0.52640394050E+01  0.24729533127E+02 -0.28353437207E+01  0.25442073295E+02  0.00000000000E+00 0.  1.
</event>
<event>
 7    1  0.4687179E-006  0.1177308E+03  0.7561462E-02  0.1246888E+00
         -1   -1    0    0    0  501 -0.00000000000E+00  0.00000000000E+00  0.70432013525E+02  0.70432013525E+02  0.00000000000E+00 0.  1.
          1   -1    0    0  501    0  0.00000000000E+00 -0.00000000000E+00 -0.31084780502E+03  0.31084780502E+03  0.00000000000E+00 0. -1.
         23    2    1    2    0    0 -0.16087009350E+02 -0.49517605153E+02 -0.22030016467E+03  0.24430472178E+03  0.91879537655E+02 0.  0.
          5    1    1    2  502    0 -0.33019088923E+02 -0.27793885596E+02 -0.13045511214E+01  0.43381269731E+02  0.41800000000E+01 0. -1.
         -5    1    1    2    0  502  0.49106098273E+02  0.77311490749E+02 -0.18811075699E+02  0.93593827031E+02  0.41800000000E+01 0. -1.
        -11    1    3    3    0    0 -0.41698143325E+02  0.31854235997E+01 -0.56168968325E+02  0.70027388092E+02  0.00000000000E+00 0.  1.
         11    1    3    3    0    0  0.25611133976E+02 -0.52703028752E+02 -0.16413119635E+03  0.17427733369E+03  0.00000000000E+00 0. -1.
</event>
<event>
 7    1  0.4687179E-006  0.1133597E+03  0.7561462E-02  0.1254472E+00
          1   -1    0    0  501    0  0.00000000000E+00  0.00000000000E+00  0.18619328643E+03  0.18619328643E+03  0.00000000000E+00 0. -1.
         -1   -1    0    0    0  501 -0.00000000000E+00 -0.00000000000E+00 -0.12672053456E+03  0.12672053456E+03  0.00000000000E+00 0.  1.
         23    2    1    2    0    0 -0.36892272355E+02 -0.71249742869E+02  0.10472429829E+03  0.15756640428E+03  0.86153511160E+02 0.  0.
          5    1    1    2  502    0 -0.10451738688E+02 -0.30218056337E+02 -0.26507035378E+02  0.41742844835E+02  0.41800000000E+01 0. -1.
         -5    1    1    2    0  502  0.47344011043E+02  0.10146779921E+03 -0.18744511052E+02  0.11360457188E+03  0.41800000000E+01 0. -1.
        -11    1    3    3    0    0 -0.27280170276E+02 -0.32163803457E+02 -0.32834398931E+01  0.42302469439E+02  0.00000000000E+00 0.  1.
         11    1    3    3    0    0 -0.96121020784E+01 -0.39085939413E+02  0.10800773819E+03  0.11526393484E+03  0.00000000000E+00 0. -1.
</event>
<event>
 7    1  0.4687179E-006  0.6391956E+02  0.7561462E-02  0.1382082E+00
          2   -1    0    0  501    0  0.00000000000E+00  0.00000000000E+00  0.47767746596E+03  0.47767746596E+03  0.00000000000E+00 0. -1.
         -2   -1    0    0    0  501 -0.00000000000E+00 -0.00000000000E+00 -0.25692490874E+02  0.25692490874E+02  0.00000000000E+00 0.  1.
         23    2    1    2    0    0  0.43177722539E+01 -0.26915890146E+02  0.21212517283E+03  0.23147975437E+03  0.88558903747E+02 0.  0.
          5    1    1    2  502    0 -0.24039011061E+02  0.15434679072E+02 -0.19806254729E+01  0.28939568900E+02  0.41800000000E+01 0.  1.
         -5    1    1    2    0  502  0.19721238807E+02  0.11481211074E+02  0.24184042772E+03  0.24295063356E+03  0.41800000000E+01 0.  1.
        -11    1    3    3    0    0 -0.32970676566E+02 -0.17418201897E+02  0.38329410306E+02  0.53475255632E+02  0.00000000000E+00 0.  1.
         11    1    3    3    0    0  0.37288448820E+02 -0.94976882483E+01  0.17379576253E+03  0.17800449874E+03  0.00000000000E+00 0. -1.
</event>
<event>
 7    1  0.4687179E-006  0.1083404E+03  0.7561462E-02  0.1263674E+00
          1   -1    0    0  501    0  0.00000000000E+00  0.00000000000E+00  0.16373240494E+02  0.16373240494E+02  0.00000000000E+00 0. -1.
         -1   -1    0    0    0  501 -0.00000000000E+00 -0.00000000000E+00 -0.76815624362E+03  0.76815624362E+03  0.00000000000E+00 0.  1.
         23    2    1    2    0    0  0.13498805558E+01 -0.27223281401E+02 -0.27931981881E+03  0.29502814923E+03  0.90989661099E+02 0.  0.
          5    1    1    2  502    0 -0.28050711647E+02  0.70320643328E+02 -0.31630238039E+03  0.32526374459E+03  0.41800000000E+01 0. -1.
         -5    1    1    2    0  502  0.26700831091E+02 -0.43097361927E+02 -0.15616080392E+03  0.16423759030E+03  0.41800000000E+01 0. -1.
        -11    1    3    3    0    0 -0.42150105931E+02 -0.15771593284E+02 -0.18691202540E+03  0.19225368611E+03  0.00000000000E+00 0.  1.
         11    1    3    3    0    0  0.43499986486E+02 -0.11451688118E+02 -0.92407793413E+02  0.10277446312E+03  0.00000000000E+00 0. -1.
</event>
<event>
 7    1  0.4687179E-006  0.1548229E+03  0.7561462E-02  0.1194669E+00
         -1   -1    0    0    0  501 -0.00000000000E+00  0.00000000000E+00  0.34891145375E+02  0.34891145375E+02  0.00000000000E+00 0.  1.
          1   -1    0    0  501    0  0.00000000000E+00 -0.00000000000E+00 -0.10837679079E+04  0.10837679079E+04  0.00000000000E+00 0. -1.
         23    2    1    2    0    0 -0.19124410631E+01 -0.12561114343E+03 -0.78870166779E+03  0.80382501808E+03  0.91118176730E+02 0.  0.
          5    1    1    2  502    0  0.12060442689E+02 -0.12829174438E+02  0.19410770735E+01  0.18201158612E+02  0.41800000000E+01 0.  1.
         -5    1    1    2    0  502 -0.10148001626E+02  0.13844031787E+03 -0.26211617184E+03  0.29663287661E+03  0.41800000000E+01 0.  1.
        -11    1    3    3    0    0  0.24525858453E+02 -0.22110594684E+00 -0.81644010086E+02  0.85248524935E+02  0.00000000000E+00 0.  1.
         11    1    3    3    0    0 -0.26438299516E+02 -0.12539003748E+03 -0.70705765770E+03  0.71857649314E+03  0.00000000000E+00 0. -1.
</event>
<event>
 7    1  0.4687179E-006  0.1013137E+03  0.7561462E-02  0.1277557E+00
          1   -1    0    0  501    0  0.00000000000E+00  0.00000000000E+00  0.54516219956E+02  0.54516219956E+02  0.00000000000E+00 0. -1.
         -1   -1    0    0    0  501 -0.00000000000E+00 -0.00000000000E+00 -0.34035613939E+03  0.34035613939E+03  0.00000000000E+00 0.  1.
         23    2    1    2    0    0 -0.22986859162E+01 -0.43142840460E+02 -0.43459645471E+02  0.11871606762E+03  0.10167681785E+03 0.  0.
          5    1    1    2  502    0  0.48870838651E+02 -0.19905338220E+02 -0.82074059320E+02  0.97663734177E+02  0.41800000000E+01 0. -1.
         -5    1    1    2    0  502 -0.46572152735E+02  0.63048178680E+02 -0.16030621464E+03  0.17849255754E+03  0.41800000000E+01 0. -1.
        -11    1    3    3    0    0 -0.16218510974E+02 -0.52152759896E+02 -0.69163530370E+02  0.88128000069E+02  0.00000000000E+00 0.  1.
         11    1    3    3    0    0  0.13919825058E+02  0.90099194360E+01  0.25703884899E+02  0.30588067555E+02  0.00000000000E+00 0. -1.
</event>
<event>
 7    1  0.4687179E-006  0.1144322E+03  0.7561462E-02  0.1252576E+00
         -2   -1    0    0    0  501 -0.00000000000E+00  0.00000000000E+00  0.28369765850E+02  0.28369765850E+02  0.00000000000E+00 0. -1.
          2   -1    0    0  501    0  0.00000000000E+00 -0.00000000000E+00 -0.57232602466E+03  0.57232602466E+03  0.00000000000E+00 0.  1.
         23    2    1    2    0    0 -0.31126821625E+02  0.26003264102E+02 -0.36689497750E+03  0.38014260049E+03  0.90837345947E+02 0.  0.
          5    1    1    2  502    0  0.58124003159E+02  0.31763268153E+02 -0.75108732742E+02  0.10023023038E+03  0.41800000000E+01 0.  1.
         -5    1    1    2    0  502 -0.26997181534E+02 -0.57766532255E+02 -0.10195254856E+03  0.12032295965E+03  0.41800000000E+01 0.  1.
        -11    1    3    3    0    0 -0.61643868965E+02  0.28624779340E+02 -0.27514258401E+03  0.28341274867E+03  0.00000000000E+00 0.  1.
         11    1    3    3    0    0  0.30517047340E+02 -0.26215152383E+01 -0.91752393493E+02  0.96729851815E+02  0.00000000000E+00 0. -1.
</event>
<event>
 7    1  0.4687179E-006  0.1141070E+03  0.7561462E-02  0.1253148E+00
         -2   -1    0    0    0  501 -0.00000000000E+00  0.00000000000E+00  0.43909801356E+02  0.43909801356E+02  0.00000000000E+00 0.  1.
          2   -1    0    0  501    0  0.00000000000E+00 -0.00000000000E+00 -0.40245099116E+03  0.40245099116E+03  0.00000000000E+00 0. -1.
         23    2    1    2    0    0 -0.30555118834E+02  0.47546948373E+02 -0.24824772202E+03  0.27027155822E+03  0.90694300308E+02 0.  0.
          5    1    1    2  502    0  0.28475932864E+02  0.31280517282E+02 -0.26521932822E+01  0.42589388855E+02  0.41800000000E+01 0. -1.
         -5    1    1    2    0  502  0.20791859702E+01 -0.78827465655E+02 -0.10764127449E+03  0.13349984543E+03  0.41800000000E+01 0. -1.
        -11    1    3    3    0    0 -0.57479246479E+02  0.54204970821E+02 -0.17795302879E+03  0.19470316662E+03  0.00000000000E+00 0.  1.
         11    1    3    3    0    0  0.26924127645E+02 -0.66580224477E+01 -0.70294693236E+02  0.75568391603E+02  0.00000000000E+00 0. -1.
</event>
<event>
 7    1  0.4687179E-006  0.1552880E+03  0.7561462E-02  0.1194122E+00
         -1   -1    0    0    0  501 -0.00000000000E+00  0.00000000000E+00  0.47413047512E+02  0.47413047512E+02  0.00000000000E+00 0.  1.
          1   -1    0    0  501    0  0.00000000000E+00 -0.00000000000E+00 -0.62672703413E+03  0.62672703413E+03  0.00000000000E+00 0. -1.
         23    2    1    2    0    0  0.19944271086E+02 -0.13226334519E+03 -0.26920787662E+03  0.31399413247E+03  0.90708698375E+02 0.  0.
          5    1    1    2  502    0 -0.27443915105E+02 -0.30430399871E+01 -0.80595758954E+01  0.29066436525E+02  0.41800000000E+01 0.  1.
         -5    1    1    2    0  502  0.74996440197E+01  0.13530638518E+03 -0.30204653410E+03  0.33107951265E+03  0.41800000000E+01 0.  1.
        -11    1    3    3    0    0  0.40529049136E+02 -0.63843696293E+02 -0.72697811984E+02  0.10489801355E+03  0.00000000000E+00 0.  1.
         11    1    3    3    0    0 -0.20584778051E+02 -0.68419648898E+02 -0.19651006463E+03  0.20909611891E+03  0.00000000000E+00 0. -1.
</event>
<event>
 7    1  0.4687179E-006  0.8963212E+02  0.7561462E-02  0.1303745E+00
          2   -1    0    0  501    0  0.00000000000E+00  0.00000000000E+00  0.38812664063E+02  0.38812664063E+02  0.00000000000E+00 0.  1.
         -2   -1    0    0    0  501 -0.00000000000E+00 -0.00000000000E+00 -0.41129675398E+03  0.41129675398E+03  0.00000000000E+00 0. -1.
         23    2    1    2    0    0  0.62274856126E+02  0.14888702200E+02 -0.16698123370E+03  0.20115544976E+03  0.92092081093E+02 0.  0.
          5    1    1    2  502    0 -0.13193299458E+01 -0.80767194503E+00 -0.18190572831E+03  0.18196032358E+03  0.41800000000E+01 0. -1.
         -5    1    1    2    0  502 -0.60955526180E+02 -0.14081030255E+02 -0.23597127898E+02  0.66993644698E+02  0.41800000000E+01 0. -1.
        -11    1    3    3    0    0  0.59428831211E+02  0.49521493560E+02 -0.11221984163E+03  0.13629914585E+03  0.00000000000E+00 0.  1.
         11    1    3    3    0    0  0.28460249148E+01 -0.34632791360E+02 -0.54761392075E+02  0.64856303912E+02  0.00000000000E+00 0. -1.
</event>
<event>
 7    1  0.4687179E-006  0.1500287E+03  0.7561462E-02  0.1200438E+00
          1   -1    0    0  501    0  0.00000000000E+00  0.00000000000E+00  0.34237117812E+02  0.34237117812E+02  0.00000000000E+00 0. -1.
         -1   -1    0    0    0  501 -0.00000000000E+00 -0.00000000000E+00 -0.93691385363E+03  0.93691385363E+03  0.00000000000E+00 0.  1.
         23    2    1    2    0    0 -0.76827684543E+01 -0.11737824635E+03 -0.20957937743E+03  0.25710102781E+03  0.91327681512E+02 0.  0.
          5    1    1    2  502    0 -0.21449499753E+02 -0.84273909701E+01 -0.28563711824E+03  0.28659577400E+03  0.41800000000E+01 0.  1.
         -5    1    1    2    0  502  0.29132268207E+02  0.12580563732E+03 -0.40746024014E+03  0.42745416963E+03  0.41800000000E+01 0.  1.
        -11    1    3    3    0    0  0.40747479207E+02 -0.55704260396E+02 -0.11632865571E+03  0.13526151643E+03  0.00000000000E+00 0.  1.
         11    1    3    3    0    0 -0.48430247661E+02 -0.61673985954E+02 -0.93250721718E+02  0.12183951138E+03  0.00000000000E+00 0. -1.
</event>
<event>
 7    1  0.4687179E-006  0.1071665E+03  0.7561462E-02  0.1265909E+00
          1   -1    0    0  501    0  0.00000000000E+00  0.00000000000E+00  0.22577880312E+03  0.22577880312E+03  0.00000000000E+00 0. -1.
         -1   -1    0    0    0  501 -0.00000000000E+00 -0.00000000000E+00 -0.83455055129E+02  0.83455055129E+02  0.00000000000E+00 0.  1.
         23    2    1    2    0    0 -0.65998103498E+02  0.46406523530E+02  0.69034128763E+02  0.14331841906E+03  0.96255613943E+02 0.  0.
          5    1    1    2  502    0  0.15619486532E+02  0.16715005013E+02 -0.27938546340E+02  0.36350990684E+02  0.41800000000E+01 0.  1.
         -5    1    1    2    0  502  0.50378616966E+02 -0.63121528543E+02  0.10122816557E+03  0.12956444851E+03  0.41800000000E+01 0.  1.
        -11    1    3    3    0    0 -0.48959352437E+01 -0.19635010049E+02 -0.10884261735E+02  0.22977618568E+02  0.00000000000E+00 0.  1.
         11    1    3    3    0    0 -0.61102168254E+02  0.66041533579E+02  0.79918390497E+02  0.12034080049E+03  0.00000000000E+00 0. -1.
</event>
<event>
 7    1  0.8521063E-006  0.2312741E+03  0.7561462E-02  0.1125746E+00
          1   -1    0    0  501    0  0.00000000000E+00  0.00000000000E+00  0.48452955165E+03  0.48452955165E+03  0.00000000000E+00 0. -1.
         -1   -1    0    0    0  501 -0.00000000000E+00 -0.00000000000E+00 -0.11911558940E+03  0.11911558940E+03  0.00000000000E+00 0.  1.
         23    2    1    2    0    0  0.11758918130E+03 -0.17730096894E+03  0.20566992380E+03  0.30965756037E+03  0.91240550166E+02 0.  0.
          5    1    1    2  502    0 -0.39375641221E+02  0.14203868385E+03  0.52359353117E+02  0.15647492800E+03  0.41800000000E+01 0. -1.
         -5    1    1    2    0  502 -0.78213540079E+02  0.35262285088E+02  0.10738468534E+03  0.13751265268E+03  0.41800000000E+01 0. -1.
        -11    1    3    3    0    0 -0.71944026891E+01 -0.51518040119E+02  0.29496740599E+02  0.59799043418E+02  0.00000000000E+00 0.  1.
         11    1    3    3    0    0  0.12478358399E+03 -0.12578292882E+03  0.17617318320E+03  0.24985851696E+03  0.00000000000E+00 0. -1.
</event>
<event>
 7    1  0.4687179E-006  0.9815488E+02  0.7561462E-02  0.1284225E+00
         -2   -1    0    0    0  501 -0.00000000000E+00  0.00000000000E+00  0.24570679656E+02  0.24570679656E+02  0.00000000000E+00 0.  1.
          2   -1    0    0  501    0  0.00000000000E+00 -0.00000000000E+00 -0.55313927129E+03  0.55313927129E+03  0.00000000000E+00 0. -1.
         23    2    1    2    0    0 -0.26704493899E+02 -0.32275123655E+02 -0.23173268551E+03  0.25287857710E+03  0.92155974404E+02 0.  0.
          5    1    1    2  502    0  0.11714936155E+01  0.59941592757E+02 -0.59776768770E+02  0.84764977580E+02  0.41800000000E+01 0.  1.
         -5    1    1    2    0  502  0.25533000283E+02 -0.27666469102E+02 -0.23705913736E+03  0.24006639627E+03  0.41800000000E+01 0.  1.
        -11    1    3    3    0    0  0.32777735622E+02 -0.60787800575E+01 -0.52136187167E+02  0.61883063368E+02  0.00000000000E+00 0.  1.
         11    1    3    3    0    0 -0.59482229521E+02 -0.26196343597E+02 -0.17959649834E+03  0.19099551373E+03  0.00000000000E+00 0. -1.
</event>
<event>
 7    1  0.4687179E-006  0.1008532E+03  0.7561462E-02  0.1278512E+00
         -1   -1    0    0    0  501 -0.00000000000E+00  0.00000000000E+00  0.10839675206E+03  0.10839675206E+03  0.00000000000E+00 0.  1.
          1   -1    0    0  501    0  0.00000000000E+00 -0.00000000000E+00 -0.11807786032E+03  0.11807786032E+03  0.00000000000E+00 0. -1.
         23    2    1    2    0    0  0.22237953586E+02  0.23024887847E+02 -0.75221462269E+01  0.97333155804E+02  0.91610526113E+02 0.  0.
          5    1    1    2  502    0  0.45622587790E+02 -0.35576157449E+02 -0.12212121965E+02  0.59276401867E+02  0.41800000000E+01 0.  1.
         -5    1    1    2    0  502 -0.67860541376E+02  0.12551269602E+02  0.10053159934E+02  0.69865054707E+02  0.41800000000E+01 0.  1.
        -11    1    3    3    0    0 -0.22432970890E+02  0.19552434107E+02  0.27457535007E+02  0.40490148074E+02  0.00000000000E+00 0.  1.
         11    1    3    3    0    0  0.44670924476E+02  0.34724537402E+01 -0.34979681234E+02  0.56843007729E+02  0.00000000000E+00 0. -1.
</event>
<event>
 7    1  0.4687179E-006  0.1075803E+03  0.7561462E-02  0.1265118E+00
         -1   -1    0    0    0  501 -0.00000000000E+00  0.00000000000E+00  0.21733983797E+02  0.21733983797E+02  0.00000000000E+00 0.  1.
          1   -1    0    0  501    0  0.00000000000E+00 -0.00000000000E+00 -0.66979742004E+03  0.66979742004E+03  0.00000000000E+00 0. -1.
         23    2    1    2    0    0 -0.43067900925E+02 -0.95263339652E+01 -0.36583583214E+03  0.37968754531E+03  0.91548789486E+02 0.  0.
          5    1    1    2  502    0 -0.30888574532E+02  0.24170032093E+02 -0.32994422103E+02  0.51423718049E+02  0.41800000000E+01 0. -1.
         -5    1    1    2    0  502  0.73956475457E+02 -0.14643698128E+02 -0.24923318200E+03  0.26042014048E+03  0.41800000000E+01 0. -1.
        -11    1    3    3    0    0 -0.18741441829E+02  0.40475496277E+02 -0.13204429708E+03  0.13937432989E+03  0.00000000000E+00 0. -1.
         11    1    3    3    0    0 -0.24326459096E+02 -0.50001830242E+02 -0.23379153506E+03  0.24031321542E+03  0.00000000000E+00 0.  1.
</event>
<event>
 7    1  0.4687179E-006  0.9237917E+02  0.7561462E-02  0.1297190E+00
         -4   -1    0    0    0  501 -0.00000000000E+00  0.00000000000E+00  0.74776778548E+02  0.74776778548E+02  0.00000000000E+00 0. -1.
          4   -1    0    0  501    0  0.00000000000E+00 -0.00000000000E+00 -0.18015215096E+03  0.18015215096E+03  0.00000000000E+00 0.  1.
         23    2    1    2    0    0 -0.41802518664E+02 -0.11737841337E+02 -0.46001237958E+02  0.10982027918E+03  0.89772781734E+02 0.  0.
          5    1    1    2  502    0  0.77768941445E+02 -0.20291861034E+02 -0.52959397829E+02  0.96342815488E+02  0.41800000000E+01 0. -1.
         -5    1    1    2    0  502 -0.35966422781E+02  0.32029702372E+02 -0.64147366284E+01  0.48765834840E+02  0.41800000000E+01 0. -1.
        -11    1    3    3    0    0 -0.11570015631E+02  0.12612549942E+02  0.24176323656E+02  0.29621551331E+02  0.00000000000E+00 0. -1.
         11    1    3    3    0    0 -0.30232503033E+02 -0.24350391280E+02 -0.70177561613E+02  0.80198727852E+02  0.00000000000E+00 0.  1.
</event>
<event>
 7    1  0.4687179E-006  0.9953201E+02  0.7561462E-02  0.1281283E+00
         -1   -1    0    0    0  501 -0.00000000000E+00  0.00000000000E+00  0.50453388301E+02  0.50453388301E+02  0.00000000000E+00 0.  1.
          1   -1    0    0  501    0  0.00000000000E+00 -0.00000000000E+00 -0.34198259618E+03  0.34198259618E+03  0.00000000000E+00 0. -1.
         23    2    1    2    0    0  0.53397267448E+01 -0.73718891834E+02 -0.14483660027E+03  0.18596833441E+03  0.90241857975E+02 0.  0.
          5    1    1    2  502    0 -0.39258085007E+02  0.11290170269E+01 -0.26180048896E+00  0.39496998080E+02  0.41800000000E+01 0. -1.
         -5    1    1    2    0  502  0.33918358262E+02  0.72589874807E+02 -0.14643080711E+03  0.16697065198E+03  0.41800000000E+01 0. -1.
        -11    1    3    3    0    0 -0.11069685485E+02 -0.44171399871E+02 -0.95555088869E+01  0.46529111891E+02  0.00000000000E+00 0.  1.
         11    1    3    3    0    0  0.16409412229E+02 -0.29547491963E+02 -0.13528109139E+03  0.13943922252E+03  0.00000000000E+00 0. -1.
</event>
<event>
 7    1  0.4687179E-006  0.1256173E+03  0.7561462E-02  0.1234108E+00
          1   -1    0    0  501    0  0.00000000000E+00  0.00000000000E+00  0.10459607457E+03  0.10459607457E+03  0.00000000000E+00 0. -1.
         -1   -1    0    0    0  501 -0.00000000000E+00 -0.00000000000E+00 -0.18332103596E+03  0.18332103596E+03  0.00000000000E+00 0.  1.
         23    2    1    2    0    0 -0.35154530338E+02  0.58450640727E+02  0.18899773563E+02  0.11520932439E+03  0.90904722545E+02 0.  0.
          5    1    1    2  502    0  0.36746661962E+02  0.33774182056E+02 -0.36546849645E+02  0.62001267389E+02  0.41800000000E+01 0. -1.
         -5    1    1    2    0  502 -0.15921316239E+01 -0.92224822782E+02 -0.61077885312E+02  0.11070651875E+03  0.41800000000E+01 0. -1.
        -11    1    3    3    0    0  0.13410761166E+02  0.58738946277E+02  0.26910365754E+02  0.65986969243E+02  0.00000000000E+00 0. -1.
         11    1    3    3    0    0 -0.48565291504E+02 -0.28830555081E+00 -0.80105921920E+01  0.49222355147E+02  0.00000000000E+00 0.  1.
</event>
<event>
 7    1  0.4687179E-006  0.1255034E+03  0.7561462E-02  0.1234285E+00
         -1   -1    0    0    0  501 -0.00000000000E+00  0.00000000000E+00  0.13333172398E+03  0.13333172398E+03  0.00000000000E+00 0.  1.
          1   -1    0    0  501    0  0.00000000000E+00 -0.00000000000E+00 -0.23681189111E+03  0.23681189111E+03  0.00000000000E+00 0. -1.
         23    2    1    2    0    0 -0.71854799671E+02 -0.61949231292E+02 -0.15780662659E+03  0.20401154962E+03  0.87846237763E+02 0.  0.
          5    1    1    2  502    0  0.83634631056E+02  0.85302687833E+02  0.17561327581E+02  0.12081875968E+03  0.41800000000E+01 0.  1.
         -5    1    1    2    0  502 -0.11779831385E+02 -0.23353456540E+02  0.36765131883E+02  0.45313305796E+02  0.41800000000E+01 0.  1.
        -11    1    3    3    0    0 -0.64551733569E+02 -0.69240288132E+02 -0.16582523205E+03  0.19094279613E+03  0.00000000000E+00 0. -1.
         11    1    3    3    0    0 -0.73030661023E+01  0.72910568392E+01  0.80186054622E+01  0.13068753494E+02  0.00000000000E+00 0.  1.
</event>
<event>
 7    1  0.4687179E-006  0.9833593E+02  0.7561462E-02  0.1283835E+00
          2   -1    0    0  501    0  0.00000000000E+00  0.00000000000E+00  0.25935490350E+02  0.25935490350E+02  0.00000000000E+00 0. -1.
         -2   -1    0    0    0  501 -0.00000000000E+00 -0.00000000000E+00 -0.53713566854E+03  0.53713566854E+03  0.00000000000E+00 0.  1.
         23    2    1    2    0    0  0.44854884704E+02  0.55794308036E+01 -0.22132357978E+03  0.24413518465E+03  0.92600057716E+02 0.  0.
          5    1    1    2  502    0  0.13557943414E+02 -0.32679149275E+02 -0.22365235130E+03  0.22647205406E+03  0.41800000000E+01 0. -1.
         -5    1    1    2    0  502 -0.58412828118E+02  0.27099718472E+02 -0.66224247116E+02  0.92463920186E+02  0.41800000000E+01 0. -1.
        -11    1    3    3    0    0  0.31988438153E+02  0.44908843170E+02 -0.82132569019E+02  0.98923320122E+02  0.00000000000E+00 0.  1.
         11    1    3    3    0    0  0.12866446551E+02 -0.39329412366E+02 -0.13919101076E+03  0.14521186453E+03  0.00000000000E+00 0. -1.
</event>
<event>
 6    1  0.4687179E-006  0.7632420E+03  0.7561462E-02  0.9614802E-01
          1   -1    0    0  501    0  0.00000000000E+00  0.00000000000E+00  0.32025981910E+03  0.32025981910E+03  0.00000000000E+00 0. -1.
         -1   -1    0    0    0  501 -0.00000000000E+00 -0.00000000000E+00 -0.29999899281E+04  0.29999899281E+04  0.00000000000E+00 0.  1.
          5    1    1    2  502    0 -0.45575793356E+03  0.26614372044E+03 -0.16110417276E+04  0.16952936897E+04  0.41800000000E+01 0.  1.
         -5    1    1    2    0  502 -0.22029591209E+03  0.38895543841E+02 -0.74989689426E+03  0.78256372049E+03  0.41800000000E+01 0.  1.
        -11    1    1    2    0    0  0.17920654088E+03 -0.19733166409E+03 -0.15459380136E+03  0.30814609094E+03  0.00000000000E+00 0.  1.
         11    1    1    2    0    0  0.49684730477E+03 -0.10770760019E+03 -0.16419768577E+03  0.53424624604E+03  0.00000000000E+00 0. -1.
</event>
<event>
 7    1  0.4687179E-006  0.1120941E+03  0.7561462E-02  0.1256740E+00
         -2   -1    0    0    0  501 -0.00000000000E+00  0.00000000000E+00  0.93574016675E+01  0.93574016675E+01  0.00000000000E+00 0.  1.
          2   -1    0    0  501    0  0.00000000000E+00 -0.00000000000E+00 -0.16839510880E+04  0.16839510880E+04  0.00000000000E+00 0. -1.
         23    2    1    2    0    0  0.35404452021E+02  0.49009623063E+02 -0.62223364098E+03  0.63181686951E+03  0.91446346301E+02 0.  0.
          5    1    1    2  502    0  0.32255441341E+02 -0.29840557365E+02 -0.14930737248E+03  0.15569533145E+03  0.41800000000E+01 0. -1.
         -5    1    1    2    0  502 -0.67659893362E+02 -0.19169065698E+02 -0.90305267291E+03  0.90579628875E+03  0.41800000000E+01 0. -1.
        -11    1    3    3    0    0  0.64111700694E+02  0.16440174367E+02 -0.38229783851E+03  0.38798482809E+03  0.00000000000E+00 0. -1.
         11    1    3    3    0    0 -0.28707248673E+02  0.32569448696E+02 -0.23993580247E+03  0.24383204142E+03  0.00000000000E+00 0.  1.
</event>
<event>
 7    1  0.4687179E-006  0.7670132E+02  0.7561462E-02  0.1338682E+00
         -1   -1    0    0    0  501 -0.00000000000E+00  0.00000000000E+00  0.28164969917E+02  0.28164969917E+02  0.00000000000E+00 0.  1.
          1   -1    0    0  501    0  0.00000000000E+00 -0.00000000000E+00 -0.56053880992E+03  0.56053880992E+03  0.00000000000E+00 0. -1.
         23    2    1    2    0    0 -0.23627943043E+02 -0.58489605883E+02 -0.22869300087E+03  0.25426508063E+03  0.91492780547E+02 0.  0.
          5    1    1    2  502    0  0.93493256440E+01  0.66907690861E+02 -0.30916377929E+03  0.31648659341E+03  0.41800000000E+01 0. -1.
         -5    1    1    2    0  502  0.14278617399E+02 -0.84180849776E+01  0.54829401596E+01  0.17952105791E+02  0.41800000000E+01 0. -1.
        -11    1    3    3    0    0 -0.26191537850E+02 -0.29222424390E+02 -0.22021910815E+03  0.22368818104E+03  0.00000000000E+00 0. -1.
         11    1    3    3    0    0  0.25635948066E+01 -0.29267181493E+02 -0.84738927229E+01  0.30576899594E+02  0.00000000000E+00 0.  1.
</event>
<event>
 7    1  0.4687179E-006  0.7808427E+02  0.7561462E-02  0.1334578E+00
         -2   -1    0    0    0  501 -0.00000000000E+00  0.00000000000E+00  0.83623046653E+02  0.83623046653E+02  0.00000000000E+00 0.  1.
          2   -1    0    0  501    0  0.00000000000E+00 -0.00000000000E+00 -0.19136538012E+03  0.19136538012E+03  0.00000000000E+00 0. -1.
         23    2    1    2    0    0  0.28856801073E+02 -0.31581805873E+02 -0.10317630233E+03  0.14270568693E+03  0.88822510034E+02 0.  0.
          5    1    1    2  502    0  0.49949511830E+01 -0.10803213409E+02 -0.56006361268E+02  0.57409440511E+02  0.41800000000E+01 0.  1.
         -5    1    1    2    0  502 -0.33851752256E+02  0.42385019282E+02  0.51440330126E+02  0.74873299339E+02  0.41800000000E+01 0.  1.
        -11    1    3    3    0    0  0.45590086505E+02  0.78980767764E+01 -0.22743225338E+02  0.51556666912E+02  0.00000000000E+00 0.  1.
         11    1    3    3    0    0 -0.16733285432E+02 -0.39479882649E+02 -0.80433076992E+02  0.91149020016E+02  0.00000000000E+00 0. -1.
</event>
<event>
 7    1  0.4767890E-006  0.1559463E+03  0.7561462E-02  0.1193351E+00
         -2   -1    0    0    0  501 -0.00000000000E+00  0.00000000000E+00  0.14778611822E+03  0.14778611822E+03  0.00000000000E+00 0.  1.
          2   -1    0    0  501    0  0.00000000000E+00 -0.00000000000E+00 -0.20117665341E+03  0.20117665341E+03  0.00000000000E+00 0. -1.
         23    2    1    2    0    0 -0.12041179835E+03 -0.51883940057E+02 -0.49964647493E+02  0.16771630655E+03  0.91876814630E+02 0.  0.
          5    1    1    2  502    0  0.91500649319E+02  0.92849913457E+02  0.34052120999E+01  0.13047046840E+03  0.41800000000E+01 0. -1.
         -5    1    1    2    0  502  0.28911149027E+02 -0.40965973400E+02 -0.68310997879E+01  0.50775996681E+02  0.41800000000E+01 0. -1.
        -11    1    3    3    0    0 -0.62569107386E+02 -0.25243652399E+02 -0.73548090528E+02  0.99807097973E+02  0.00000000000E+00 0. -1.
         11    1    3    3    0    0 -0.57842690960E+02 -0.26640287658E+02  0.23583443035E+02  0.67909208576E+02  0.00000000000E+00 0.  1.
</event>
<event>
 7    1  0.4687179E-006  0.3155384E+03  0.7561462E-02  0.1077721E+00
         -2   -1    0    0    0  501 -0.00000000000E+00  0.00000000000E+00  0.10729567609E+03  0.10729567609E+03  0.00000000000E+00 0.  1.
          2   -1    0    0  501    0  0.00000000000E+00 -0.00000000000E+00 -0.12054813191E+04  0.12054813191E+04  0.00000000000E+00 0. -1.
         23    2    1    2    0    0  0.87459564359E+02 -0.20852802731E+03 -0.70602641457E+03  0.74691306750E+03  0.90954487269E+02 0.  0.
          5    1    1    2  502    0 -0.17766311608E+03  0.18557287431E+02 -0.26647323035E+03  0.32083330661E+03  0.41800000000E+01 0. -1.
         -5    1    1    2    0  502  0.90203551725E+02  0.18997073988E+03 -0.12568599808E+03  0.24503062108E+03  0.41800000000E+01 0.  1.
        -11    1    3    3    0    0 -0.17712516741E+02 -0.31984264888E+02 -0.14152338438E+03  0.14616974644E+03  0.00000000000E+00 0.  1.
         11    1    3    3    0    0  0.10517208110E+03 -0.17654376242E+03 -0.56450303020E+03  0.60074332106E+03  0.00000000000E+00 0. -1.
</event>
<event>
 7    1  0.4687179E-006  0.6259352E+02  0.7561462E-02  0.1387259E+00
         -3   -1    0    0    0  501 -0.00000000000E+00  0.00000000000E+00  0.21776663479E+03  0.21776663479E+03  0.00000000000E+00 0.  1.
          3   -1    0    0  501    0  0.00000000000E+00 -0.00000000000E+00 -0.58431560851E+02  0.58431560851E+02  0.00000000000E+00 0. -1.
         23    2    1    2    0    0  0.17771223672E+02 -0.13394803518E+02  0.44886150063E+02  0.10519687682E+03  0.92500698769E+02 0.  0.
          5    1    1    2  502    0 -0.24172145995E+02  0.35555345259E+02  0.13380244656E+03  0.14060242645E+03  0.41800000000E+01 0.  1.
         -5    1    1    2    0  502  0.64009223234E+01 -0.22160541742E+02 -0.19353522687E+02  0.30398892369E+02  0.41800000000E+01 0.  1.
        -11    1    3    3    0    0  0.32712703550E+02 -0.23701731190E+02  0.65982393263E+02  0.77366460793E+02  0.00000000000E+00 0.  1.
         11    1    3    3    0    0 -0.14941479878E+02  0.10306927672E+02 -0.21096243200E+02  0.27830416025E+02  0.00000000000E+00 0. -1.
</event>
<event>
 7    1  0.4687179E-006  0.1096358E+03  0.7561462E-02  0.1261246E+00
         -1   -1    0    0    0  501 -0.00000000000E+00  0.00000000000E+00  0.13463532014E+03  0.13463532014E+03  0.00000000000E+00 0.  1.
          1   -1    0    0  501    0  0.00000000000E+00 -0.00000000000E+00 -0.14272963046E+03  0.14272963046E+03  0.00000000000E+00 0. -1.
         23    2    1    2    0    0 -0.55364095059E+02  0.58261347487E+02 -0.17537678113E+02  0.12322800605E+03  0.91749679504E+02 0.  0.
          5    1    1    2  502    0  0.82027771782E+02 -0.69895039719E+02 -0.23091508401E+02  0.11029307359E+03  0.41800000000E+01 0.  1.
         -5    1    1    2    0  502 -0.26663676723E+02  0.11633692232E+02  0.32534876196E+02  0.43843870956E+02  0.41800000000E+01 0. -1.
        -11    1    3    3    0    0 -0.10429283285E+02  0.30883719922E+01  0.33785986440E+02  0.35493673677E+02  0.00000000000E+00 0.  1.
         11    1    3    3    0    0 -0.44934811774E+02  0.55172975495E+02 -0.51323664552E+02  0.87734332374E+02  0.00000000000E+00 0. -1.
</event>
<event>
 7    1  0.4687179E-006  0.1110670E+03  0.7561462E-02  0.1258607E+00
         -2   -1    0    0    0  501 -0.00000000000E+00  0.00000000000E+00  0.27364624088E+02  0.27364624088E+02  0.00000000000E+00 0.  1.
          2   -1    0    0  501    0  0.00000000000E+00 -0.00000000000E+00 -0.75827697397E+03  0.75827697397E+03  0.00000000000E+00 0. -1.
         23    2    1    2    0    0 -0.48990783884E+02  0.73338560827E+02 -0.42598714148E+03  0.44445697377E+03  0.91095089969E+02 0.  0.
          5    1    1    2  502    0  0.64033348315E+02 -0.43114582141E+02 -0.29612014882E+03  0.30604534276E+03  0.41800000000E+01 0. -1.
         -5    1    1    2    0  502 -0.15042564431E+02 -0.30223978686E+02 -0.88050595907E+01  0.35139281533E+02  0.41800000000E+01 0. -1.
        -11    1    3    3    0    0 -0.50103254722E+02  0.14779662844E+02 -0.95809917759E+02  0.10912522581E+03  0.00000000000E+00 0.  1.
         11    1    3    3    0    0  0.11124708384E+01  0.58558897983E+02 -0.33017722372E+03  0.33533174795E+03  0.00000000000E+00 0. -1.
</event>
<event>
 7    1  0.4687179E-006  0.1203428E+03  0.7561462E-02  0.1242533E+00
         -1   -1    0    0    0  501 -0.00000000000E+00  0.00000000000E+00  0.54208349386E+03  0.54208349386E+03  0.00000000000E+00 0.  1.
          1   -1    0    0  501    0  0.00000000000E+00 -0.00000000000E+00 -0.29618820901E+02  0.29618820901E+02  0.00000000000E+00 0. -1.
         23    2    1    2    0    0 -0.39680919469E+02 -0.51218240150E+02  0.18998365960E+03  0.21979271277E+03  0.89538607191E+02 0.  0.
          5    1    1    2  502    0 -0.41279556025E+01 -0.36590655545E+02  0.49781388888E+02  0.62061060016E+02  0.41800000000E+01 0. -1.
         -5    1    1    2    0  502  0.43808875072E+02  0.87808895696E+02  0.27269962447E+03  0.28984854198E+03  0.41800000000E+01 0. -1.
        -11    1    3    3    0    0 -0.63789908857E+01  0.23101958667E+02  0.76106075698E+02  0.79790518091E+02  0.00000000000E+00 0.  1.
         11    1    3    3    0    0 -0.33301928584E+02 -0.74320198818E+02  0.11387758390E+03  0.14000219468E+03  0.00000000000E+00 0. -1.
</event>
<event>
 7    1  0.4687179E-006  0.9431905E+02  0.7561462E-02  0.1292717E+00
         -3   -1    0    0    0  501 -0.00000000000E+00  0.00000000000E+00  0.28733552935E+03  0.28733552935E+03  0.00000000000E+00 0.  1.
          3   -1    0    0  501    0  0.00000000000E+00 -0.00000000000E+00 -0.68562495293E+02  0.68562495293E+02  0.00000000000E+00 0. -1.
         23    2    1    2    0    0  0.61388355764E+02 -0.18933425979E+01  0.14151491453E+02  0.10832995221E+03  0.88107881978E+02 0.  0.
          5    1    1    2  502    0 -0.10455595685E+02 -0.51295803013E+02  0.36436659246E+02  0.63919335297E+02  0.41800000000E+01 0.  1.
         -5    1    1    2    0  502 -0.50932760079E+02  0.53189145611E+02  0.16818488336E+03  0.18364873714E+03  0.41800000000E+01 0.  1.
        -11    1    3    3    0    0  0.21355623508E+02  0.44868022399E+01 -0.37065075498E+02  0.43011787587E+02  0.00000000000E+00 0. -1.
         11    1    3    3    0    0  0.40032732256E+02 -0.63801448379E+01  0.51216566951E+02  0.65318164627E+02  0.00000000000E+00 0.  1.
</event>
<event>
 7    1  0.6166600E-006  0.2503738E+03  0.7561462E-02  0.1113069E+00
         -1   -1    0    0    0  501 -0.00000000000E+00  0.00000000000E+00  0.19697502935E+03  0.19697502935E+03  0.00000000000E+00 0.  1.
          1   -1    0    0  501    0  0.00000000000E+00 -0.00000000000E+00 -0.38274255209E+03  0.38274255209E+03  0.00000000000E+00 0. -1.
         23    2    1    2    0    0  0.20281511751E+03 -0.13775351731E+03 -0.15297549881E+03  0.30252981459E+03  0.89514144437E+02 0.  0.
          5    1    1    2  502    0 -0.92638384005E+02  0.54486413346E+02  0.47288943856E+02  0.11749194032E+03  0.41800000000E+01 0.  1.
         -5    1    1    2    0  502 -0.11017673351E+03  0.83267103965E+02 -0.80080967779E+02  0.15969582652E+03  0.41800000000E+01 0.  1.
        -11    1    3    3    0    0  0.14166380357E+03 -0.13195773158E+03 -0.14208859667E+03  0.24014713296E+03  0.00000000000E+00 0.  1.
         11    1    3    3    0    0  0.61151313935E+02 -0.57957857326E+01 -0.10886902144E+02  0.62382681623E+02  0.00000000000E+00 0. -1.
</event>
<event>
 7    1  0.4687179E-006  0.8094634E+02  0.7561462E-02  0.1326387E+00
         -3   -1    0    0    0  501 -0.00000000000E+00  0.00000000000E+00  0.10030434683E+03  0.10030434683E+03  0.00000000000E+00 0.  1.
          3   -1    0    0  501    0  0.00000000000E+00 -0.00000000000E+00 -0.15471455884E+03  0.15471455884E+03  0.00000000000E+00 0. -1.
         23    2    1    2    0    0 -0.33676992748E+02  0.47237987672E+02 -0.46307441437E+00  0.10695283151E+03  0.89850578242E+02 0.  0.
          5    1    1    2  502    0 -0.76934435378E+01 -0.58812902074E+02 -0.78446883241E+02  0.98435422557E+02  0.41800000000E+01 0.  1.
         -5    1    1    2    0  502  0.41370436285E+02  0.11574914402E+02  0.24499745648E+02  0.49630651604E+02  0.41800000000E+01 0.  1.
        -11    1    3    3    0    0 -0.23521315008E+01  0.11536388029E+02  0.41768940186E+02  0.43396602812E+02  0.00000000000E+00 0.  1.
         11    1    3    3    0    0 -0.31324861247E+02  0.35701599643E+02 -0.42232014600E+02  0.63556228698E+02  0.00000000000E+00 0. -1.
</event>
<event>
 7    1  0.4687179E-006  0.7517579E+02  0.7561462E-02  0.1343328E+00
         -1   -1    0    0    0  501 -0.00000000000E+00  0.00000000000E+00  0.69162151831E+02  0.69162151831E+02  0.00000000000E+00 0.  1.
          1   -1    0    0  501    0  0.00000000000E+00 -0.00000000000E+00 -0.21143998974E+03  0.21143998974E+03  0.00000000000E+00 0. -1.
         23    2    1    2    0    0  0.44136471293E+02  0.25993535592E+02 -0.84030472691E+02  0.13341511634E+03  0.90082078893E+02 0.  0.
          5    1    1    2  502    0  0.16794638324E+02 -0.82244987566E+01 -0.78208544457E+02  0.80521742916E+02  0.41800000000E+01 0. -1.
         -5    1    1    2    0  502 -0.60931109617E+02 -0.17769036835E+02  0.19961179237E+02  0.66665282312E+02  0.41800000000E+01 0. -1.
        -11    1    3    3    0    0  0.46413593398E+02  0.52439180267E+01 -0.97818531597E+02  0.10839827237E+03  0.00000000000E+00 0. -1.
         11    1    3    3    0    0 -0.22771221052E+01  0.20749617565E+02  0.13788058906E+02  0.25016843977E+02  0.00000000000E+00 0.  1.
</event>
<event>
 7    1  0.4687179E-006  0.1594312E+03  0.7561462E-02  0.1189340E+00
         -2   -1    0    0    0  501 -0.00000000000E+00  0.00000000000E+00  0.62481398459E+02  0.62481398459E+02  0.00000000000E+00 0.  1.
          2   -1    0    0  501    0  0.00000000000E+00 -0.00000000000E+00 -0.56138906144E+03  0.56138906144E+03  0.00000000000E+00 0. -1.
         23    2    1    2    0    0 -0.13203491712E+03 -0.72637631023E+02 -0.22041803393E+03  0.28203355278E+03  0.90826044911E+02 0.  0.
          5    1    1    2  502    0  0.55336957603E+02 -0.43764474962E+01 -0.16337431648E+02  0.58014793305E+02  0.41800000000E+01 0. -1.
         -5    1    1    2    0  502  0.76697959518E+02  0.77014078519E+02 -0.26215219741E+03  0.28382211381E+03  0.41800000000E+01 0.  1.
        -11    1    3    3    0    0 -0.74542867443E+02 -0.59679637568E+02 -0.64190475647E+02  0.11505961668E+03  0.00000000000E+00 0.  1.
         11    1    3    3    0    0 -0.57492049678E+02 -0.12957993455E+02 -0.15622755828E+03  0.16697393610E+03  0.00000000000E+00 0. -1.
</event>
<event>
 7    1  0.4687179E-006  0.2469242E+03  0.7561462E-02  0.1115264E+00
          1   -1    0    0  501    0  0.00000000000E+00  0.00000000000E+00  0.15791157359E+03  0.15791157359E+03  0.00000000000E+00 0. -1.
         -1   -1    0    0    0  501 -0.00000000000E+00 -0.00000000000E+00 -0.65467267088E+03  0.65467267088E+03  0.00000000000E+00 0.  1.
         23    2    1    2    0    0  0.11089684869E+03 -0.82419090045E+02  0.37808304667E+02  0.17003813096E+03  0.91610483171E+02 0.  0.
          5    1    1    2  502    0  0.76308025677E+02  0.11710451350E+03 -0.11238976902E+03  0.17940266008E+03  0.41800000000E+01 0. -1.
         -5    1    1    2    0  502 -0.18720487437E+03 -0.34685423450E+02 -0.42217963293E+03  0.46314345342E+03  0.41800000000E+01 0.  1.
        -11    1    3    3    0    0  0.11378672466E+03 -0.39332325235E+02  0.39821283433E+02  0.12680766985E+03  0.00000000000E+00 0.  1.
         11    1    3    3    0    0 -0.28898759719E+01 -0.43086764811E+02 -0.20129787658E+01  0.43230461118E+02  0.00000000000E+00 0. -1.
</event>
<event>
 7    1  0.4687179E-006  0.1555946E+03  0.7561462E-02  0.1193762E+00
         -2   -1    0    0    0  501 -0.00000000000E+00  0.00000000000E+00  0.13912297157E+03  0.13912297157E+03  0.00000000000E+00 0.  1.
          2   -1    0    0  501    0  0.00000000000E+00 -0.00000000000E+00 -0.18361158632E+03  0.18361158632E+03  0.00000000000E+00 0. -1.
         23    2    1    2    0    0 -0.91750558121E+02  0.53960306997E+02 -0.50493485391E+02  0.15837865528E+03  0.10585049237E+03 0.  0.
          5    1    1    2  502    0  0.12047200428E+03 -0.53922586692E+02  0.17356176003E+02  0.13319105982E+03  0.41800000000E+01 0. -1.
         -5    1    1    2    0  502 -0.28721446162E+02 -0.37720305179E-01 -0.11351305361E+02  0.31164842785E+02  0.41800000000E+01 0. -1.
        -11    1    3    3    0    0 -0.59936292529E+02  0.86086654680E+02 -0.35822492007E+02  0.11084458584E+03  0.00000000000E+00 0.  1.
         11    1    3    3    0    0 -0.31814265593E+02 -0.32126347683E+02 -0.14670993384E+02  0.47534069440E+02  0.00000000000E+00 0. -1.
</event>
<event>
 7    1  0.4687179E-006  0.1614984E+03  0.7561462E-02  0.1187015E+00
          2   -1    0    0  501    0  0.00000000000E+00  0.00000000000E+00  0.61930621259E+03  0.61930621259E+03  0.00000000000E+00 0. -1.
         -2   -1    0    0    0  501 -0.00000000000E+00 -0.00000000000E+00 -0.57080628120E+02  0.57080628120E+02  0.00000000000E+00 0.  1.
         23    2    1    2    0    0 -0.10934188394E+03  0.75043171605E+02  0.40398475860E+03  0.43498695599E+03  0.91776039976E+02 0.  0.
          5    1    1    2  502    0  0.22011041502E+02  0.21904678116E+02  0.87447492312E+02  0.92891534506E+02  0.41800000000E+01 0.  1.
         -5    1    1    2    0  502  0.87330842434E+02 -0.96947849721E+02  0.70793333552E+02  0.14850835021E+03  0.41800000000E+01 0.  1.
        -11    1    3    3    0    0 -0.95411453635E+02  0.11546266812E+02  0.25045319504E+03  0.26826006909E+03  0.00000000000E+00 0. -1.
         11    1    3    3    0    0 -0.13930430301E+02  0.63496904793E+02  0.15353156356E+03  0.16672688691E+03  0.00000000000E+00 0.  1.
</event>
<event>
 7    1  0.4687179E-006  0.1213422E+03  0.7561462E-02  0.1240899E+00
          4   -1    0    0  501    0  0.00000000000E+00  0.00000000000E+00  0.94539596234E+02  0.94539596234E+02  0.00000000000E+00 0. -1.
         -4   -1    0    0    0  501 -0.00000000000E+00 -0.00000000000E+00 -0.21310021908E+03  0.21310021908E+03  0.00000000000E+00 0.  1.
         23    2    1    2    0    0  0.31798408922E+01  0.87962046842E+02 -0.25201028132E+02  0.12844269665E+03  0.90083302733E+02 0.  0.
          5    1    1    2  502    0  0.73435227314E+01  0.31650813341E+02 -0.18153232095E+02  0.37452817607E+02  0.41800000000E+01 0.  1.
         -5    1    1    2    0  502 -0.10523363624E+02 -0.11961286018E+03 -0.75206362617E+02  0.14174430105E+03  0.41800000000E+01 0.  1.
        -11    1    3    3    0    0 -0.72479027518E+01  0.44194357691E+02 -0.57626776631E+02  0.72983003027E+02  0.00000000000E+00 0.  1.
         11    1    3    3    0    0  0.10427743644E+02  0.43767689150E+02  0.32425748499E+02  0.55459693623E+02  0.00000000000E+00 0. -1.
</event>
<event>
 7    1  0.4687179E-006  0.2036742E+03  0.7561462E-02  0.1146676E+00
         -1   -1    0    0    0  501 -0.00000000000E+00  0.00000000000E+00  0.23191890329E+03  0.23191890329E+03  0.00000000000E+00 0.  1.
          1   -1    0    0  501    0  0.00000000000E+00 -0.00000000000E+00 -0.19443928799E+03  0.19443928799E+03  0.00000000000E+00 0. -1.
         23    2    1    2    0    0 -0.87903975507E+02 -0.15663718377E+03 -0.12636351478E+02  0.20181469671E+03  0.91143722649E+02 0.  0.
          5    1    1    2  502    0  0.10732090644E+03  0.16155548468E+03  0.58203463834E+02  0.20254151967E+03  0.41800000000E+01 0.  1.
         -5    1    1    2    0  502 -0.19416930932E+02 -0.49183009075E+01 -0.80874970592E+01  0.22001974896E+02  0.41800000000E+01 0.  1.
        -11    1    3    3    0    0 -0.99833164998E+02 -0.14622129955E+03 -0.28578762941E+02  0.17934345533E+03  0.00000000000E+00 0.  1.
         11    1    3    3    0    0  0.11929189492E+02 -0.10415884218E+02  0.15942411463E+02  0.22471241381E+02  0.00000000000E+00 0. -1.
</event>
<event>
 7    1  0.4687179E-006  0.1183976E+03  0.7561462E-02  0.1245764E+00
          4   -1    0    0  501    0  0.00000000000E+00  0.00000000000E+00  0.19419057208E+03  0.19419057208E+03  0.00000000000E+00 0. -1.
         -4   -1    0    0    0  501 -0.00000000000E+00 -0.00000000000E+00 -0.97826274907E+02  0.97826274907E+02  0.00000000000E+00 0.  1.
         23    2    1    2    0    0  0.84325203208E+02  0.29900884552E+01  0.51955373353E+02  0.13472905383E+03  0.91284591259E+02 0.  0.
          5    1    1    2  502    0 -0.16048246510E+01  0.49635691601E+02  0.64690114031E+00  0.49841430798E+02  0.41800000000E+01 0.  1.
         -5    1    1    2    0  502 -0.82720378557E+02 -0.52625780056E+02  0.43762022684E+02  0.10744636236E+03  0.41800000000E+01 0.  1.
        -11    1    3    3    0    0  0.65567056817E+02  0.14044313567E+02  0.76627377650E+02  0.10182355665E+03  0.00000000000E+00 0. -1.
         11    1    3    3    0    0  0.18758146391E+02 -0.11054225112E+02 -0.24672004297E+02  0.32905497183E+02  0.00000000000E+00 0.  1.
</event>
<event>
 7    1  0.4687179E-006  0.1824476E+03  0.7561462E-02  0.1165455E+00
         -2   -1    0    0    0  501 -0.00000000000E+00  0.00000000000E+00  0.47324937645E+02  0.47324937645E+02  0.00000000000E+00 0.  1.
          2   -1    0    0  501    0  0.00000000000E+00 -0.00000000000E+00 -0.81650891519E+03  0.81650891519E+03  0.00000000000E+00 0. -1.
         23    2    1    2    0    0 -0.66510915313E+02  0.14832674924E+03 -0.32497998611E+03  0.37455857685E+03  0.90871391098E+02 0.  0.
          5    1    1    2  502    0  0.24109907461E+02 -0.13245563937E+03 -0.41226550982E+03  0.43371200932E+03  0.41800000000E+01 0.  1.
         -5    1    1    2    0  502  0.42401007852E+02 -0.15871109875E+02 -0.31938481616E+02  0.55563266674E+02  0.41800000000E+01 0.  1.
        -11    1    3    3    0    0  0.21716964143E+02  0.33506167443E+02 -0.91323587275E+02  0.99670895356E+02  0.00000000000E+00 0.  1.
         11    1    3    3    0    0 -0.88227879456E+02  0.11482058180E+03 -0.23365639883E+03  0.27488768149E+03  0.00000000000E+00 0. -1.
</event>
<event>
 7    1  0.4687179E-006  0.9556155E+02  0.7561462E-02  0.1289916E+00
         -3   -1    0    0    0  501 -0.00000000000E+00  0.00000000000E+00  0.57900812533E+03  0.57900812533E+03  0.00000000000E+00 0.  1.
          3   -1    0    0  501    0  0.00000000000E+00 -0.00000000000E+00 -0.25570866669E+02  0.25570866669E+02  0.00000000000E+00 0. -1.
         23    2    1    2    0    0 -0.46921148090E+02 -0.28748822672E+02  0.24329651985E+03  0.26566428214E+03  0.91412391363E+02 0.  0.
          5    1    1    2  502    0  0.65448440815E+02  0.16355827565E+02  0.30889336124E+03  0.31620182245E+03  0.41800000000E+01 0. -1.
         -5    1    1    2    0  502 -0.18527292725E+02  0.12392995106E+02  0.12473775704E+01  0.22712887404E+02  0.41800000000E+01 0. -1.
        -11    1    3    3    0    0 -0.69566250983E+02 -0.77949384649E+01  0.12350726630E+03  0.14196573238E+03  0.00000000000E+00 0.  1.
         11    1    3    3    0    0  0.22645102893E+02 -0.20953884207E+02  0.11978925355E+03  0.12369854976E+03  0.00000000000E+00 0. -1.
</event>
<event>
 7    1  0.4687179E-006  0.9994694E+02  0.7561462E-02  0.1280408E+00
         -2   -1    0    0    0  501 -0.00000000000E+00  0.00000000000E+00  0.29522473463E+02  0.29522473463E+02  0.00000000000E+00 0.  1.
          2   -1    0    0  501    0  0.00000000000E+00 -0.00000000000E+00 -0.57717615645E+03  0.57717615645E+03  0.00000000000E+00 0. -1.
         23    2    1    2    0    0 -0.15440750124E+02  0.57470859856E-01 -0.41808185411E+03  0.42593489208E+03  0.79935445733E+02 0.  0.
          5    1    1    2  502    0  0.49295275904E+02  0.41989804410E+02 -0.99613088215E+02  0.11888400921E+03  0.41800000000E+01 0. -1.
         -5    1    1    2    0  502 -0.33854525780E+02 -0.42047275270E+02 -0.29958740659E+02  0.61879728630E+02  0.41800000000E+01 0. -1.
        -11    1    3    3    0    0 -0.12600450036E+02  0.39425469425E+02 -0.23870352682E+03  0.24226537660E+03  0.00000000000E+00 0.  1.
         11    1    3    3    0    0 -0.28403000882E+01 -0.39367998565E+02 -0.17937832729E+03  0.18366951548E+03  0.00000000000E+00 0. -1.
</event>
<event>
 7    1  0.4687179E-006  0.9353966E+02  0.7561462E-02  0.1294499E+00
          2   -1    0    0  501    0  0.00000000000E+00  0.00000000000E+00  0.14376312200E+03  0.14376312200E+03  0.00000000000E+00 0.  1.
         -2   -1    0    0    0  501 -0.00000000000E+00 -0.00000000000E+00 -0.93719594751E+02  0.93719594751E+02  0.00000000000E+00 0. -1.
         23    2    1    2    0    0  0.17318217847E+02 -0.93155157735E+01  0.31042370101E+02  0.10943969619E+03  0.10308597798E+03 0.  0.
          5    1    1    2  502    0 -0.65064259225E+02  0.11260271438E+02 -0.16710434343E+02  0.68241208645E+02  0.41800000000E+01 0.  1.
         -5    1    1    2    0  502  0.47746041378E+02 -0.19447556645E+01  0.35711591491E+02  0.59801811918E+02  0.41800000000E+01 0.  1.
        -11    1    3    3    0    0 -0.26237542918E+02 -0.12913983704E+02  0.52997886880E+02  0.60530617436E+02  0.00000000000E+00 0.  1.
         11    1    3    3    0    0  0.43555760765E+02  0.35984679304E+01 -0.21955516779E+02  0.48909078751E+02  0.00000000000E+00 0. -1.
</event>
<event>
 7    1  0.4687179E-006  0.9653812E+02  0.7561462E-02  0.1287749E+00
          2   -1    0    0  501    0  0.00000000000E+00  0.00000000000E+00  0.18632036870E+03  0.18632036870E+03  0.00000000000E+00 0.  1.
         -2   -1    0    0    0  501 -0.00000000000E+00 -0.00000000000E+00 -0.10048162286E+03  0.10048162286E+03  0.00000000000E+00 0. -1.
         23    2    1    2    0    0 -0.68452949050E+02 -0.54090475818E+02  0.72605471454E+02  0.13372195592E+03  0.70699513448E+02 0.  0.
          5    1    1    2  502    0  0.66711394493E+01  0.78286614528E+01  0.61141596361E+02  0.62141445487E+02  0.41800000000E+01 0.  1.
         -5    1    1    2    0  502  0.61781809601E+02  0.46261814366E+02 -0.47908321972E+02  0.90938590159E+02  0.41800000000E+01 0.  1.
        -11    1    3    3    0    0 -0.91563808167E+01 -0.43487555573E+02  0.55505759731E+02  0.71104825172E+02  0.00000000000E+00 0.  1.
         11    1    3    3    0    0 -0.59296568233E+02 -0.10602920245E+02  0.17099711723E+02  0.62617130747E+02  0.00000000000E+00 0. -1.
</event>
<event>
 7    1  0.4687179E-006  0.1408626E+03  0.7561462E-02  0.1212173E+00
         -1   -1    0    0    0  501 -0.00000000000E+00  0.00000000000E+00  0.26257092373E+03  0.26257092373E+03  0.00000000000E+00 0.  1.
          1   -1    0    0  501    0  0.00000000000E+00 -0.00000000000E+00 -0.98754585238E+02  0.98754585238E+02  0.00000000000E+00 0. -1.
         23    2    1    2    0    0 -0.69849097216E+02 -0.71363057550E+02  0.20724768499E+01  0.13375801827E+03  0.88968139953E+02 0.  0.
          5    1    1    2  502    0 -0.44431780983E+01  0.83218012321E+02  0.70522532611E+02  0.10925145039E+03  0.41800000000E+01 0. -1.
         -5    1    1    2    0  502  0.74292275314E+02 -0.11854954771E+02  0.91221329033E+02  0.11831604031E+03  0.41800000000E+01 0. -1.
        -11    1    3    3    0    0 -0.21005103362E+01 -0.52593159707E+02 -0.25195035931E+02  0.58354455076E+02  0.00000000000E+00 0. -1.
         11    1    3    3    0    0 -0.67748586880E+02 -0.18769897843E+02  0.27267512781E+02  0.75403563195E+02  0.00000000000E+00 0.  1.
</event>
<event>
 7    1  0.4687179E-006  0.1135151E+03  0.7561462E-02  0.1254196E+00
         -1   -1    0    0    0  501 -0.00000000000E+00  0.00000000000E+00  0.17516111079E+03  0.17516111079E+03  0.00000000000E+00 0.  1.
          1   -1    0    0  501    0  0.00000000000E+00 -0.00000000000E+00 -0.91846694895E+02  0.91846694895E+02  0.00000000000E+00 0. -1.
         23    2    1    2    0    0  0.62303139664E+02 -0.11520108773E+02  0.12687104490E+02  0.11000279608E+03  0.89023920426E+02 0.  0.
          5    1    1    2  502    0  0.15326340026E+02  0.33552468558E+02  0.66421763020E+02  0.76091969665E+02  0.41800000000E+01 0.  1.
         -5    1    1    2    0  502 -0.77629479690E+02 -0.22032359785E+02  0.42055483878E+01  0.80913039937E+02  0.41800000000E+01 0.  1.
        -11    1    3    3    0    0  0.74634152596E+02 -0.35113616010E+02  0.12182359617E+02  0.83376451404E+02  0.00000000000E+00 0. -1.
         11    1    3    3    0    0 -0.12331012932E+02  0.23593507237E+02  0.50474487307E+00  0.26626344680E+02  0.00000000000E+00 0.  1.
</event>
<event>
 7    1  0.4687179E-006  0.1238705E+03  0.7561462E-02  0.1236845E+00
         -4   -1    0    0    0  501 -0.00000000000E+00  0.00000000000E+00  0.11447007982E+04  0.11447007982E+04  0.00000000000E+00 0.  1.
          4   -1    0    0  501    0  0.00000000000E+00 -0.00000000000E+00 -0.15777488961E+02  0.15777488961E+02  0.00000000000E+00 0. -1.
         23    2    1    2    0    0  0.76479751622E+02  0.14320748784E+02  0.38586577071E+03  0.40295888545E+03  0.86193004942E+02 0.  0.
          5    1    1    2  502    0 -0.82568940027E+02  0.29402570554E+02  0.30944661849E+03  0.32164704741E+03  0.41800000000E+01 0. -1.
         -5    1    1    2    0  502  0.60891884048E+01 -0.43723319338E+02  0.43361092003E+03  0.43587235429E+03  0.41800000000E+01 0. -1.
        -11    1    3    3    0    0  0.50825138432E+02 -0.33856138785E+02  0.18563566344E+03  0.19542270178E+03  0.00000000000E+00 0. -1.
         11    1    3    3    0    0  0.25654613190E+02  0.48176887568E+02  0.20023010727E+03  0.20753618367E+03  0.00000000000E+00 0.  1.
</event>
<event>
 7    1  0.4687179E-006  0.7193252E+02  0.7561462E-02  0.1353642E+00
          2   -1    0    0  501    0  0.00000000000E+00  0.00000000000E+00  0.25153135761E+03  0.25153135761E+03  0.00000000000E+00 0. -1.
         -2   -1    0    0    0  501 -0.00000000000E+00 -0.00000000000E+00 -0.54944856184E+02  0.54944856184E+02  0.00000000000E+00 0.  1.
         23    2    1    2    0    0  0.12724769651E+02 -0.48630317318E+02  0.96372638855E+02  0.13849386255E+03  0.85825619252E+02 0.  0.
          5    1    1    2  502    0  0.64306811502E+01  0.45752288825E+02  0.12668721735E+03  0.13491385782E+03  0.41800000000E+01 0. -1.
         -5    1    1    2    0  502 -0.19155450801E+02  0.28780284932E+01 -0.26473354781E+02  0.33068493415E+02  0.41800000000E+01 0. -1.
        -11    1    3    3    0    0  0.26001512061E+02  0.12592978323E+01 -0.33042926068E+01  0.26240861460E+02  0.00000000000E+00 0.  1.
         11    1    3    3    0    0 -0.13276742411E+02 -0.49889615150E+02  0.99676931461E+02  0.11225300109E+03  0.00000000000E+00 0. -1.
</event>
<event>
 7    1  0.4687179E-006  0.1795972E+03  0.7561462E-02  0.1168193E+00
         -2   -1    0    0    0  501 -0.00000000000E+00  0.00000000000E+00  0.24085369671E+03  0.24085369671E+03  0.00000000000E+00 0.  1.
          2   -1    0    0  501    0  0.00000000000E+00 -0.00000000000E+00 -0.16552672529E+03  0.16552672529E+03  0.00000000000E+00 0. -1.
         23    2    1    2    0    0  0.12335889420E+03 -0.98374406687E+02 -0.23984204064E+02  0.18186836300E+03  0.87211918616E+02 0.  0.
          5    1    1    2  502    0 -0.58870938891E+02  0.10125149339E+03  0.10784283299E+03  0.15926456413E+03  0.41800000000E+01 0.  1.
         -5    1    1    2    0  502 -0.64487955306E+02 -0.28770867045E+01 -0.85316575069E+01  0.65247494873E+02  0.41800000000E+01 0.  1.
        -11    1    3    3    0    0  0.12637813754E+03 -0.61922104087E+02 -0.53897500248E+01  0.14083618153E+03  0.00000000000E+00 0.  1.
         11    1    3    3    0    0 -0.30192433467E+01 -0.36452302600E+02 -0.18594454039E+02  0.41032181471E+02  0.00000000000E+00 0. -1.
</event>
<event>
 7    1  0.4687179E-006  0.1076207E+03  0.7561462E-02  0.1265040E+00
          4   -1    0    0  501    0  0.00000000000E+00  0.00000000000E+00  0.19095644801E+02  0.19095644801E+02  0.00000000000E+00 0. -1.
         -4   -1    0    0    0  501 -0.00000000000E+00 -0.00000000000E+00 -0.77986206629E+03  0.77986206629E+03  0.00000000000E+00 0.  1.
         23    2    1    2    0    0  0.49720372293E+02  0.23818237941E+02 -0.34216119990E+03  0.35859712472E+03  0.92077072401E+02 0.  0.
          5    1    1    2  502    0 -0.11194736678E+02 -0.66504429014E+02 -0.13512737119E+03  0.15107958185E+03  0.41800000000E+01 0.  1.
         -5    1    1    2    0  502 -0.38525635615E+02  0.42686191073E+02 -0.28347785041E+03  0.28928100452E+03  0.41800000000E+01 0.  1.
        -11    1    3    3    0    0  0.65027710268E+02  0.42375888756E+01 -0.31545327790E+03  0.32211384758E+03  0.00000000000E+00 0.  1.
         11    1    3    3    0    0 -0.15307337975E+02  0.19580649065E+02 -0.26707921998E+02  0.36483277144E+02  0.00000000000E+00 0. -1.
</event>
<event>
 7    1  0.4687179E-006  0.1141931E+03  0.7561462E-02  0.1252996E+00
         -1   -1    0    0    0  501 -0.00000000000E+00  0.00000000000E+00  0.47751668113E+02  0.47751668113E+02  0.00000000000E+00 0.  1.
          1   -1    0    0  501    0  0.00000000000E+00 -0.00000000000E+00 -0.27859732272E+03  0.27859732272E+03  0.00000000000E+00 0. -1.
         23    2    1    2    0    0  0.81032422164E+01  0.36623122923E+02 -0.12159117177E+03  0.15616035857E+03  0.90524741754E+02 0.  0.
          5    1    1    2  502    0 -0.64581647642E+02 -0.34076379087E+01 -0.52486467349E+02  0.83394861131E+02  0.41800000000E+01 0.  1.
         -5    1    1    2    0  502  0.56478405426E+02 -0.33215485014E+02 -0.56768015481E+02  0.86793771124E+02  0.41800000000E+01 0.  1.
        -11    1    3    3    0    0  0.27348414349E+02 -0.22710233513E+02 -0.41466774837E+02  0.54618530637E+02  0.00000000000E+00 0. -1.
         11    1    3    3    0    0 -0.19245172132E+02  0.59333356436E+02 -0.80124396937E+02  0.10154182794E+03  0.00000000000E+00 0.  1.
</event>
<event>
 7    1  0.4687179E-006  0.1399809E+03  0.7561462E-02  0.1213355E+00
         -1   -1    0    0    0  501 -0.00000000000E+00  0.00000000000E+00  0.47162140239E+02  0.47162140239E+02  0.00000000000E+00 0.  1.
          1   -1    0    0  501    0  0.00000000000E+00 -0.00000000000E+00 -0.56347930204E+03  0.56347930204E+03  0.00000000000E+00 0. -1.
         23    2    1    2    0    0  0.10710772693E+03  0.29141332849E+02 -0.32824076019E+03  0.35896389723E+03  0.93764601067E+02 0.  0.
          5    1    1    2  502    0 -0.33603359910E+02 -0.65676260358E+02 -0.44546484796E+02  0.86281044729E+02  0.41800000000E+01 0.  1.
         -5    1    1    2    0  502 -0.73504367017E+02  0.36534927509E+02 -0.14352991682E+03  0.16539650032E+03  0.41800000000E+01 0.  1.
        -11    1    3    3    0    0  0.78564293160E+02  0.45692092225E+02 -0.13383075916E+03  0.16177387783E+03  0.00000000000E+00 0.  1.
         11    1    3    3    0    0  0.28543433767E+02 -0.16550759377E+02 -0.19441000104E+03  0.19719001940E+03  0.00000000000E+00 0. -1.
</event>
<event>
 7    1  0.4687179E-006  0.1033804E+03  0.7561462E-02  0.1273344E+00
         -1   -1    0    0    0  501 -0.00000000000E+00  0.00000000000E+00  0.45119204616E+03  0.45119204616E+03  0.00000000000E+00 0.  1.
          1   -1    0    0  501    0  0.00000000000E+00 -0.00000000000E+00 -0.34019712893E+02  0.34019712893E+02  0.00000000000E+00 0. -1.
         23    2    1    2    0    0  0.12568440674E+02 -0.42878996967E+02  0.99951995157E+02  0.14130239966E+03  0.89327446696E+02 0.  0.
          5    1    1    2  502    0 -0.50302559421E+02  0.52695360763E+02  0.28170890128E+03  0.29100605834E+03  0.41800000000E+01 0.  1.
         -5    1    1    2    0  502  0.37734118747E+02 -0.98163637962E+01  0.35511436826E+02  0.52903301043E+02  0.41800000000E+01 0.  1.
        -11    1    3    3    0    0  0.25404514320E+02 -0.64561666031E+02  0.50539177237E+02  0.85835927818E+02  0.00000000000E+00 0. -1.
         11    1    3    3    0    0 -0.12836073646E+02  0.21682669064E+02  0.49412817920E+02  0.55466471847E+02  0.00000000000E+00 0.  1.
</event>
<event>
 7    1  0.4687179E-006  0.8421061E+02  0.7561462E-02  0.1317510E+00
          1   -1    0    0  501    0  0.00000000000E+00  0.00000000000E+00  0.79664404407E+02  0.79664404407E+02  0.00000000000E+00 0. -1.
         -1   -1    0    0    0  501 -0.00000000000E+00 -0.00000000000E+00 -0.21441081955E+03  0.21441081955E+03  0.00000000000E+00 0.  1.
         23    2    1    2    0    0  0.51033078753E+02  0.37257497143E+02 -0.28728090908E+02  0.11835384599E+03  0.95863618919E+02 0.  0.
          5    1    1    2  502    0 -0.12304395872E+02  0.26874970521E+02 -0.95371295070E+02  0.99934070875E+02  0.41800000000E+01 0. -1.
         -5    1    1    2    0  502 -0.38728682881E+02 -0.64132467664E+02 -0.10647029162E+02  0.75787307093E+02  0.41800000000E+01 0. -1.
        -11    1    3    3    0    0  0.36016282450E+02  0.22427550520E+02 -0.64273676243E+02  0.77014758856E+02  0.00000000000E+00 0.  1.
         11    1    3    3    0    0  0.15016796303E+02  0.14829946623E+02  0.35545585335E+02  0.41339087131E+02  0.00000000000E+00 0. -1.
</event>
<event>
 7    1  0.4687179E-006  0.1134224E+03  0.7561462E-02  0.1254360E+00
          2   -1    0    0  501    0  0.00000000000E+00  0.00000000000E+00  0.56847645091E+03  0.56847645091E+03  0.00000000000E+00 0.  1.
         -2   -1    0    0    0  501 -0.00000000000E+00 -0.00000000000E+00 -0.42281308095E+02  0.42281308095E+02  0.00000000000E+00 0. -1.
         23    2    1    2    0    0 -0.74077504837E+01 -0.10263505962E+03  0.31541709011E+03  0.34493058546E+03  0.94341601756E+02 0.  0.
          5    1    1    2  502    0 -0.27568158313E+02  0.30608273312E+02  0.11850415981E+01  0.41421570123E+02  0.41800000000E+01 0.  1.
         -5    1    1    2    0  502  0.34975908796E+02  0.72026786308E+02  0.20959301111E+03  0.22440560342E+03  0.41800000000E+01 0.  1.
        -11    1    3    3    0    0  0.63858015205E+01 -0.62434220549E+02  0.28705304556E+03  0.29383373074E+03  0.00000000000E+00 0.  1.
         11    1    3    3    0    0 -0.13793552004E+02 -0.40200839071E+02  0.28364044553E+02  0.51096854720E+02  0.00000000000E+00 0. -1.
</event>
<event>
 7    1  0.4687179E-006  0.1107507E+03  0.7561462E-02  0.1259186E+00
         -2   -1    0    0    0  501 -0.00000000000E+00  0.00000000000E+00  0.55553258036E+02  0.55553258036E+02  0.00000000000E+00 0.  1.
          2   -1    0    0  501    0  0.00000000000E+00 -0.00000000000E+00 -0.22662933555E+03  0.22662933555E+03  0.00000000000E+00 0. -1.
         23    2    1    2    0    0  0.34089125972E+01  0.22471903673E+02 -0.87298314890E+02  0.12992053447E+03  0.93497285286E+02 0.  0.
          5    1    1    2  502    0 -0.61387235130E+02  0.43627136701E+01 -0.29726541380E+02  0.68473101068E+02  0.41800000000E+01 0. -1.
         -5    1    1    2    0  502  0.57978322533E+02 -0.26834617344E+02 -0.54051221243E+02  0.83788958041E+02  0.41800000000E+01 0. -1.
        -11    1    3    3    0    0  0.31020683874E+02 -0.25690526161E+02 -0.42800753770E+02  0.58772361580E+02  0.00000000000E+00 0. -1.
         11    1    3    3    0    0 -0.27611771277E+02  0.48162429834E+02 -0.44497561120E+02  0.71148172894E+02  0.00000000000E+00 0.  1.
</event>
<event>
 7    1  0.4687179E-006  0.1658365E+03  0.7561462E-02  0.1182261E+00
         -2   -1    0    0    0  501 -0.00000000000E+00  0.00000000000E+00  0.18762968992E+02  0.18762968992E+02  0.00000000000E+00 0.  1.
          2   -1    0    0  501    0  0.00000000000E+00 -0.00000000000E+00 -0.18316453889E+04  0.18316453889E+04  0.00000000000E+00 0. -1.
         23    2    1    2    0    0 -0.19795040705E+02  0.14856856132E+03 -0.87623310812E+03  0.89357235485E+03  0.90678732576E+02 0.  0.
          5    1    1    2  502    0  0.19733320387E+02 -0.13073737745E+02 -0.47721811224E+03  0.47782311120E+03  0.41800000000E+01 0. -1.
         -5    1    1    2    0  502  0.61720318197E-01 -0.13549482357E+03 -0.45943119952E+03  0.47901289181E+03  0.41800000000E+01 0.  1.
        -11    1    3    3    0    0 -0.35281580060E+02  0.16231494579E+02 -0.13569178277E+03  0.14114004116E+03  0.00000000000E+00 0. -1.
         11    1    3    3    0    0  0.15486539355E+02  0.13233706674E+03 -0.74054132535E+03  0.75243231369E+03  0.00000000000E+00 0.  1.
</event>
<event>
 7    1  0.4687179E-006  0.1636129E+03  0.7561462E-02  0.1184677E+00
         -2   -1    0    0    0  501 -0.00000000000E+00  0.00000000000E+00  0.20901617214E+03  0.20901617214E+03  0.00000000000E+00 0.  1.
          2   -1    0    0  501    0  0.00000000000E+00 -0.00000000000E+00 -0.18723316566E+03  0.18723316566E+03  0.00000000000E+00 0. -1.
         23    2    1    2    0    0 -0.79485259327E+02 -0.12599056823E+03 -0.61235095699E+02  0.18475204523E+03  0.90509952696E+02 0.  0.
          5    1    1    2  502    0 -0.12927352663E+02  0.52541936625E+02 -0.16841016474E+02  0.56823092023E+02  0.41800000000E+01 0. -1.
         -5    1    1    2    0  502  0.92412611989E+02  0.73448631607E+02  0.99859118650E+02  0.15467420055E+03  0.41800000000E+01 0. -1.
        -11    1    3    3    0    0 -0.17369532565E+02 -0.66847954820E+02  0.14220539650E+02  0.70516476607E+02  0.00000000000E+00 0.  1.
         11    1    3    3    0    0 -0.62115726762E+02 -0.59142613413E+02 -0.75455635349E+02  0.11423556862E+03  0.00000000000E+00 0. -1.
</event>
<event>
 7    1  0.4687179E-006  0.1165328E+03  0.7561462E-02  0.1248929E+00
          3   -1    0    0  501    0  0.00000000000E+00  0.00000000000E+00  0.20787066758E+03  0.20787066758E+03  0.00000000000E+00 0. -1.
         -3   -1    0    0    0  501 -0.00000000000E+00 -0.00000000000E+00 -0.92048237763E+02  0.92048237763E+02  0.00000000000E+00 0.  1.
         23    2    1    2    0    0 -0.34324758358E+02 -0.76869815777E+02  0.72637824825E+02  0.14307832007E+03  0.90044402742E+02 0.  0.
          5    1    1    2  502    0  0.16843148441E+02 -0.32994666227E+02  0.22697104590E+02  0.43645968951E+02  0.41800000000E+01 0. -1.
         -5    1    1    2    0  502  0.17481609916E+02  0.10986448200E+03  0.20487500402E+02  0.11319461632E+03  0.41800000000E+01 0. -1.
        -11    1    3    3    0    0 -0.81256447420E+01 -0.11926778303E+02 -0.21411502312E+02  0.25821049057E+02  0.00000000000E+00 0.  1.
         11    1    3    3    0    0 -0.26199113616E+02 -0.64943037474E+02  0.94049327137E+02  0.11725727101E+03  0.00000000000E+00 0. -1.
</event>
<event>
 7    1  0.4687179E-006  0.9425057E+02  0.7561462E-02  0.1292873E+00
         -2   -1    0    0    0  501 -0.00000000000E+00  0.00000000000E+00  0.59454055757E+02  0.59454055757E+02  0.00000000000E+00 0.  1.
          2   -1    0    0  501    0  0.00000000000E+00 -0.00000000000E+00 -0.28305661664E+03  0.28305661664E+03  0.00000000000E+00 0. -1.
         23    2    1    2    0    0 -0.49609768835E+02 -0.28838561696E+02 -0.15434024011E+03  0.18844011826E+03  0.91629562102E+02 0.  0.
          5    1    1    2  502    0 -0.54772614767E+01  0.32229662432E+02  0.27282537985E+02  0.42785053613E+02  0.41800000000E+01 0.  1.
         -5    1    1    2    0  502  0.55087030312E+02 -0.33911007366E+01 -0.96544858766E+02  0.11128550052E+03  0.41800000000E+01 0.  1.
        -11    1    3    3    0    0 -0.30730619773E+02  0.27213327862E+02 -0.30298711049E+02  0.51019095408E+02  0.00000000000E+00 0.  1.
         11    1    3    3    0    0 -0.18879149062E+02 -0.56051889558E+02 -0.12404152906E+03  0.13742102286E+03  0.00000000000E+00 0. -1.
</event>
<event>
 7    1  0.4687179E-006  0.7831989E+02  0.7561462E-02  0.1333888E+00
         -3   -1    0    0    0  501 -0.00000000000E+00  0.00000000000E+00  0.89440716120E+02  0.89440716120E+02  0.00000000000E+00 0.  1.
          3   -1    0    0  501    0  0.00000000000E+00 -0.00000000000E+00 -0.13899313601E+03  0.13899313601E+03  0.00000000000E+00 0. -1.
         23    2    1    2    0    0  0.20843891865E+02 -0.55249838521E+00 -0.39412035714E+02  0.10121553187E+03  0.90865297286E+02 0.  0.
          5    1    1    2  502    0  0.33762894248E+02 -0.31585805212E+02 -0.35907928369E+02  0.58689418455E+02  0.41800000000E+01 0.  1.
         -5    1    1    2    0  502 -0.54606786113E+02  0.32138303597E+02  0.25767544196E+02  0.68528901797E+02  0.41800000000E+01 0.  1.
        -11    1    3    3    0    0  0.21891542692E+02  0.17873523439E+02  0.22807521151E+02  0.36316463245E+02  0.00000000000E+00 0.  1.
         11    1    3    3    0    0 -0.10476508270E+01 -0.18426021824E+02 -0.62219556864E+02  0.64899068629E+02  0.00000000000E+00 0. -1.
</event>
<event>
 6    1  0.4687179E-006  0.8953325E+02  0.7561462E-02  0.1303986E+00
         -1   -1    0    0    0  501 -0.00000000000E+00  0.00000000000E+00  0.10395980424E+04  0.10395980424E+04  0.00000000000E+00 0.  1.
          1   -1    0    0  501    0  0.00000000000E+00 -0.00000000000E+00 -0.55246620700E+02  0.55246620700E+02  0.00000000000E+00 0. -1.
          5    1    1    2  502    0  0.43580713717E+02  0.31903945879E+01  0.63247790316E+03  0.63399939086E+03  0.41800000000E+01 0. -1.
         -5    1    1    2    0  502 -0.64584509682E+02  0.32431031756E+02  0.38213196433E+03  0.38892832409E+03  0.41800000000E+01 0.  1.
        -11    1    1    2    0    0 -0.91053821870E+01 -0.31009554087E+02 -0.25326104518E+02  0.41059858737E+02  0.00000000000E+00 0. -1.
         11    1    1    2    0    0  0.30109178152E+02 -0.46118722567E+01 -0.49323413032E+01  0.30857089387E+02  0.00000000000E+00 0.  1.
</event>
<event>
 7    1  0.4687179E-006  0.6828487E+02  0.7561462E-02  0.1366024E+00
          2   -1    0    0  501    0  0.00000000000E+00  0.00000000000E+00  0.12846235649E+03  0.12846235649E+03  0.00000000000E+00 0. -1.
         -2   -1    0    0    0  501 -0.00000000000E+00 -0.00000000000E+00 -0.94201418544E+02  0.94201418544E+02  0.00000000000E+00 0.  1.
         23    2    1    2    0    0  0.84226045087E+01 -0.21344010061E+02  0.26777445604E+02  0.95266628785E+02  0.88499671947E+02 0.  0.
          5    1    1    2  502    0  0.16476053020E+02  0.99250489183E+01 -0.55338863187E+02  0.58735245790E+02  0.41800000000E+01 0. -1.
         -5    1    1    2    0  502 -0.24898657529E+02  0.11418961143E+02  0.62822355528E+02  0.68661900458E+02  0.41800000000E+01 0. -1.
        -11    1    3    3    0    0  0.20963488500E+02 -0.51993693709E+02  0.26830382635E+02  0.62150474399E+02  0.00000000000E+00 0. -1.
         11    1    3    3    0    0 -0.12540883991E+02  0.30649683648E+02 -0.52937030388E-01  0.33116154386E+02  0.00000000000E+00 0.  1.
</event>
<event>
 7    1  0.4687179E-006  0.1204358E+03  0.7561462E-02  0.1242380E+00
          2   -1    0    0  501    0  0.00000000000E+00  0.00000000000E+00  0.52742184086E+02  0.52742184086E+02  0.00000000000E+00 0. -1.
         -2   -1    0    0    0  501 -0.00000000000E+00 -0.00000000000E+00 -0.45409103980E+03  0.45409103980E+03  0.00000000000E+00 0.  1.
         23    2    1    2    0    0 -0.51941481395E+02  0.90862838959E+02 -0.12060172732E+03  0.18214780679E+03  0.87630325185E+02 0.  0.
          5    1    1    2  502    0 -0.89405687366E+00  0.12645352554E+02  0.64598384052E+01  0.14829234341E+02  0.41800000000E+01 0.  1.
         -5    1    1    2    0  502  0.52835538269E+02 -0.10350819151E+03 -0.28720696680E+03  0.30985618276E+03  0.41800000000E+01 0.  1.
        -11    1    3    3    0    0 -0.29690038275E+02  0.82128767056E+02 -0.12987654823E+03  0.15650734977E+03  0.00000000000E+00 0.  1.
         11    1    3    3    0    0 -0.22251443120E+02  0.87340719037E+01  0.92748209179E+01  0.25640457016E+02  0.00000000000E+00 0. -1.
</event>
<event>
 7    1  0.4687179E-006  0.9315934E+02  0.7561462E-02  0.1295376E+00
         -4   -1    0    0    0  501 -0.00000000000E+00  0.00000000000E+00  0.78237093439E+02  0.78237093439E+02  0.00000000000E+00 0.  1.
          4   -1    0    0  501    0  0.00000000000E+00 -0.00000000000E+00 -0.19336540777E+03  0.19336540777E+03  0.00000000000E+00 0. -1.
         23    2    1    2    0    0 -0.41850318264E+02 -0.40625411786E+02 -0.58796911011E+02  0.12253192602E+03  0.90305719239E+02 0.  0.
          5    1    1    2  502    0  0.37538146965E+02  0.70705884442E+02 -0.77738232911E+02  0.11166530271E+03  0.41800000000E+01 0.  1.
         -5    1    1    2    0  502  0.43121712991E+01 -0.30080472657E+02  0.21406829593E+02  0.37405272486E+02  0.41800000000E+01 0.  1.
        -11    1    3    3    0    0 -0.14928937998E+02 -0.45709399920E+02 -0.76179027037E+02  0.90085884527E+02  0.00000000000E+00 0. -1.
         11    1    3    3    0    0 -0.26921380266E+02  0.50839881341E+01  0.17382116026E+02  0.32446041489E+02  0.00000000000E+00 0.  1.
</event>
<event>
 7    1  0.7553646E-006  0.2827838E+03  0.7561462E-02  0.1094178E+00
         -2   -1    0    0    0  501 -0.00000000000E+00  0.00000000000E+00  0.55130116596E+02  0.55130116596E+02  0.00000000000E+00 0.  1.
          2   -1    0    0  501    0  0.00000000000E+00 -0.00000000000E+00 -0.15565779943E+04  0.15565779943E+04  0.00000000000E+00 0. -1.
         23    2    1    2    0    0  0.18291175242E+03 -0.19686396635E+03 -0.69611237720E+03  0.75355650960E+03  0.10518004116E+03 0.  0.
          5    1    1    2  502    0 -0.11139401147E+03  0.19515715238E+03 -0.61017173894E+03  0.65024761693E+03  0.41800000000E+01 0. -1.
         -5    1    1    2    0  502 -0.71517740950E+02  0.17068139678E+01 -0.19516376152E+03  0.20790398432E+03  0.41800000000E+01 0. -1.
        -11    1    3    3    0    0  0.65350481385E+02 -0.81277346322E+02 -0.41275411478E+03  0.42572602893E+03  0.00000000000E+00 0. -1.
         11    1    3    3    0    0  0.11756127104E+03 -0.11558662003E+03 -0.28335826242E+03  0.32783048067E+03  0.00000000000E+00 0.  1.
</event>
<event>
 7    1  0.4687179E-006  0.9205672E+02  0.7561462E-02  0.1297946E+00
          2   -1    0    0  501    0  0.00000000000E+00  0.00000000000E+00  0.17661631775E+03  0.17661631775E+03  0.00000000000E+00 0. -1.
         -2   -1    0    0    0  501 -0.00000000000E+00 -0.00000000000E+00 -0.88721070867E+02  0.88721070867E+02  0.00000000000E+00 0.  1.
         23    2    1    2    0    0 -0.40076998365E+02  0.26019726808E+01  0.83553667936E+02  0.13388669129E+03  0.96599661592E+02 0.  0.
          5    1    1    2  502    0  0.75325052463E+02  0.61681194319E+01 -0.29874856247E+02  0.81374987937E+02  0.41800000000E+01 0.  1.
         -5    1    1    2    0  502 -0.35248054098E+02 -0.87700921127E+01  0.34216435193E+02  0.50075709388E+02  0.41800000000E+01 0.  1.
        -11    1    3    3    0    0 -0.46642390164E+02 -0.18182829307E+02  0.96372816426E+02  0.10859948245E+03  0.00000000000E+00 0. -1.
         11    1    3    3    0    0  0.65653917994E+01  0.20784801988E+02 -0.12819148490E+02  0.25287208845E+02  0.00000000000E+00 0.  1.
</event>
<event>
 7    1  0.4687179E-006  0.1126176E+03  0.7561462E-02  0.1255798E+00
         -3   -1    0    0    0  501 -0.00000000000E+00  0.00000000000E+00  0.55437312406E+03  0.55437312406E+03  0.00000000000E+00 0.  1.
          3   -1    0    0  501    0  0.00000000000E+00 -0.00000000000E+00 -0.36638538976E+02  0.36638538976E+02  0.00000000000E+00 0. -1.
         23    2    1    2    0    0 -0.77460214904E+02  0.61238994371E+01  0.14091532350E+03  0.18644001599E+03  0.94155000549E+02 0.  0.
          5    1    1    2  502    0  0.90935063110E+02 -0.66853801911E+01  0.13873155229E+03  0.16606563766E+03  0.41800000000E+01 0.  1.
         -5    1    1    2    0  502 -0.13474848206E+02  0.56148075401E+00  0.23808770929E+03  0.23850600938E+03  0.41800000000E+01 0.  1.
        -11    1    3    3    0    0 -0.84323251948E+01  0.41448830706E+02  0.67498209408E+02  0.79656248646E+02  0.00000000000E+00 0.  1.
         11    1    3    3    0    0 -0.69027889709E+02 -0.35324931269E+02  0.73417114095E+02  0.10678376735E+03  0.00000000000E+00 0. -1.
</event>
<event>
 7    1  0.4687179E-006  0.1159129E+03  0.7561462E-02  0.1249996E+00
         -4   -1    0    0    0  501 -0.00000000000E+00  0.00000000000E+00  0.17504730630E+03  0.17504730630E+03  0.00000000000E+00 0.  1.
          4   -1    0    0  501    0  0.00000000000E+00 -0.00000000000E+00 -0.86540297268E+02  0.86540297268E+02  0.00000000000E+00 0. -1.
         23    2    1    2    0    0  0.89645085821E+01  0.57032954470E+02  0.37993605084E+02  0.11484691075E+03  0.91723380723E+02 0.  0.
          5    1    1    2  502    0 -0.41012821028E+02  0.22778116883E+02  0.36308900460E+02  0.59470183706E+02  0.41800000000E+01 0.  1.
         -5    1    1    2    0  502  0.32048312446E+02 -0.79811071354E+02  0.14204503483E+02  0.87270509111E+02  0.41800000000E+01 0.  1.
        -11    1    3    3    0    0 -0.25987574294E+02  0.58104179961E+02  0.46538254051E+02  0.78849596300E+02  0.00000000000E+00 0.  1.
         11    1    3    3    0    0  0.34952082876E+02 -0.10712254911E+01 -0.85446489665E+01  0.35997314447E+02  0.00000000000E+00 0. -1.
</event>
<event>
 7    1  0.4687179E-006  0.9230079E+02  0.7561462E-02  0.1297374E+00
         -2   -1    0    0    0  501 -0.00000000000E+00  0.00000000000E+00  0.21248937094E+03  0.21248937094E+03  0.00000000000E+00 0.  1.
          2   -1    0    0  501    0  0.00000000000E+00 -0.00000000000E+00 -0.73568862927E+02  0.73568862927E+02  0.00000000000E+00 0. -1.
         23    2    1    2    0    0 -0.11730018135E+02  0.49499667004E+02  0.20754553701E+02  0.10661310245E+03  0.91366250637E+02 0.  0.
          5    1    1    2  502    0  0.30556556803E+02  0.11455986347E+02  0.11021302037E+03  0.11501880301E+03  0.41800000000E+01 0. -1.
         -5    1    1    2    0  502 -0.18826538668E+02 -0.60955653351E+02  0.79529339396E+01  0.64426328406E+02  0.41800000000E+01 0. -1.
        -11    1    3    3    0    0 -0.24244061476E+01 -0.18740258799E+02  0.31672895026E+02  0.36881530938E+02  0.00000000000E+00 0.  1.
         11    1    3    3    0    0 -0.93056119875E+01  0.68239925803E+02 -0.10918341324E+02  0.69731571511E+02  0.00000000000E+00 0. -1.
</event>
<event>
 7    1  0.4687179E-006  0.1183692E+03  0.7561462E-02  0.1245812E+00
         -1   -1    0    0    0  501 -0.00000000000E+00  0.00000000000E+00  0.11744510861E+03  0.11744510861E+03  0.00000000000E+00 0.  1.
          1   -1    0    0  501    0  0.00000000000E+00 -0.00000000000E+00 -0.13742947607E+03  0.13742947607E+03  0.00000000000E+00 0. -1.
         23    2    1    2    0    0  0.52840451907E+02  0.55875593449E+01 -0.47189805129E+02  0.11627464530E+03  0.92030327907E+02 0.  0.
          5    1    1    2  502    0 -0.94086082218E+02 -0.51794060778E+01  0.21610685098E+02  0.96765237688E+02  0.41800000000E+01 0.  1.
         -5    1    1    2    0  502  0.41245630311E+02 -0.40815326712E+00  0.55947525686E+01  0.41834701685E+02  0.41800000000E+01 0.  1.
        -11    1    3    3    0    0  0.71438352666E+01 -0.37486111333E+02 -0.74496987748E+00  0.38168022025E+02  0.00000000000E+00 0.  1.
         11    1    3    3    0    0  0.45696616640E+02  0.43073670678E+02 -0.46444835252E+02  0.78106623276E+02  0.00000000000E+00 0. -1.
</event>
<event>
 7    1  0.4687179E-006  0.7520596E+02  0.7561462E-02  0.1343234E+00
         -2   -1    0    0    0  501 -0.00000000000E+00  0.00000000000E+00  0.23804187374E+02  0.23804187374E+02  0.00000000000E+00 0.  1.
          2   -1    0    0  501    0  0.00000000000E+00 -0.00000000000E+00 -0.54001955266E+03  0.54001955266E+03  0.00000000000E+00 0. -1.
         23    2    1    2    0    0  0.34415714478E+02 -0.32985007337E+02 -0.24438657517E+03  0.26082022776E+03  0.77652694545E+02 0.  0.
          5    1    1    2  502    0 -0.52184899679E+01  0.29915557280E+02 -0.27162439763E+03  0.27334860342E+03  0.41800000000E+01 0.  1.
         -5    1    1    2    0  502 -0.29197224510E+02  0.30694500577E+01 -0.20439247997E+00  0.29654908852E+02  0.41800000000E+01 0.  1.
        -11    1    3    3    0    0 -0.24462858183E+02 -0.52486861664E+01 -0.51641749149E+02  0.57383363375E+02  0.00000000000E+00 0.  1.
         11    1    3    3    0    0  0.58878572661E+02 -0.27736321171E+02 -0.19274482603E+03  0.20343686438E+03  0.00000000000E+00 0. -1.
</event>
<event>
 7    1  0.4687179E-006  0.1180491E+03  0.7561462E-02  0.1246350E+00
          1   -1    0    0  501    0  0.00000000000E+00  0.00000000000E+00  0.17727374867E+03  0.17727374867E+03  0.00000000000E+00 0. -1.
         -1   -1    0    0    0  501 -0.00000000000E+00 -0.00000000000E+00 -0.81058575500E+02  0.81058575500E+02  0.00000000000E+00 0.  1.
         23    2    1    2    0    0 -0.42683069675E+02 -0.21227507760E+02  0.56713788115E+02  0.11876077573E+03  0.92818190930E+02 0.  0.
          5    1    1    2  502    0 -0.28628413405E+02 -0.33110027005E+02  0.16040881523E+02  0.46804297051E+02  0.41800000000E+01 0.  1.
         -5    1    1    2    0  502  0.71311483080E+02  0.54337534765E+02  0.23460503527E+02  0.92767251383E+02  0.41800000000E+01 0.  1.
        -11    1    3    3    0    0 -0.53318267666E+02  0.22134155457E+02  0.43230555442E+02  0.72122392005E+02  0.00000000000E+00 0. -1.
         11    1    3    3    0    0  0.10635197991E+02 -0.43361663218E+02  0.13483232672E+02  0.46638383726E+02  0.00000000000E+00 0.  1.
</event>
<event>
 7    1  0.4687179E-006  0.1488133E+03  0.7561462E-02  0.1201939E+00
         -1   -1    0    0    0  501 -0.00000000000E+00  0.00000000000E+00  0.15475794100E+02  0.15475794100E+02  0.00000000000E+00 0.  1.
          1   -1    0    0  501    0  0.00000000000E+00 -0.00000000000E+00 -0.17998854487E+04  0.17998854487E+04  0.00000000000E+00 0. -1.
         23    2    1    2    0    0 -0.10602046376E+03  0.69880580700E+02 -0.87534013166E+03  0.88898192787E+03  0.89134099470E+02 0.  0.
          5    1    1    2  502    0  0.92284011312E+02 -0.25232698525E+02 -0.28721883155E+03  0.30276254296E+03  0.41800000000E+01 0. -1.
         -5    1    1    2    0  502  0.13736452451E+02 -0.44647882175E+02 -0.62185069140E+03  0.62361677199E+03  0.41800000000E+01 0. -1.
        -11    1    3    3    0    0 -0.11024019555E+03  0.29168417879E+02 -0.66235556251E+03  0.67210013279E+03  0.00000000000E+00 0. -1.
         11    1    3    3    0    0  0.42197317910E+01  0.40712162821E+02 -0.21298456915E+03  0.21688179507E+03  0.00000000000E+00 0.  1.
</event>
<event>
 7    1  0.4687179E-006  0.6517175E+02  0.7561462E-02  0.1377327E+00
         -2   -1    0    0    0  501 -0.00000000000E+00  0.00000000000E+00  0.75783126129E+02  0.75783126129E+02  0.00000000000E+00 0.  1.
          2   -1    0    0  501    0  0.00000000000E+00 -0.00000000000E+00 -0.19100804340E+03  0.19100804340E+03  0.00000000000E+00 0. -1.
         23    2    1    2    0    0  0.80613328362E+01  0.45583487899E+02 -0.80236446104E+02  0.12889685913E+03  0.89630762319E+02 0.  0.
          5    1    1    2  502    0  0.26351282554E+02 -0.14590477980E+02 -0.72196876966E+02  0.78339859481E+02  0.41800000000E+01 0. -1.
         -5    1    1    2    0  502 -0.34412615390E+02 -0.30993009919E+02  0.37208405800E+02  0.59554450917E+02  0.41800000000E+01 0. -1.
        -11    1    3    3    0    0  0.17759096633E+02  0.24841553210E+02 -0.96235406082E+02  0.10096406124E+03  0.00000000000E+00 0. -1.
         11    1    3    3    0    0 -0.96977637971E+01  0.20741934689E+02  0.15998959979E+02  0.27932797885E+02  0.00000000000E+00 0.  1.
</event>
<event>
 7    1  0.4687179E-006  0.1002649E+03  0.7561462E-02  0.1279740E+00
         -2   -1    0    0    0  501 -0.00000000000E+00  0.00000000000E+00  0.41200901378E+02  0.41200901378E+02  0.00000000000E+00 0. -1.
          2   -1    0    0  501    0  0.00000000000E+00 -0.00000000000E+00 -0.40570011520E+03  0.40570011520E+03  0.00000000000E+00 0.  1.
         23    2    1    2    0    0  0.57562515602E+02 -0.38570482316E+02 -0.19055722262E+03  0.22175149328E+03  0.89780534461E+02 0.  0.
          5    1    1    2  502    0 -0.50046442753E+02 -0.20537961921E+01 -0.42402026721E+01  0.50441215586E+02  0.41800000000E+01 0.  1.
         -5    1    1    2    0  502 -0.75160728489E+01  0.40624278508E+02 -0.16970178852E+03  0.17470830771E+03  0.41800000000E+01 0.  1.
        -11    1    3    3    0    0  0.13536789392E+02  0.26744450495E+02 -0.84390111669E+02  0.89555576302E+02  0.00000000000E+00 0. -1.
         11    1    3    3    0    0  0.44025726210E+02 -0.65314932810E+02 -0.10616711095E+03  0.13219591697E+03  0.00000000000E+00 0.  1.
</event>
<event>
 7    1  0.4687179E-006  0.2039687E+03  0.7561462E-02  0.1146433E+00
          2   -1    0    0  501    0  0.00000000000E+00  0.00000000000E+00  0.44536917572E+03  0.44536917572E+03  0.00000000000E+00 0. -1.
         -2   -1    0    0    0  501 -0.00000000000E+00 -0.00000000000E+00 -0.10526454604E+03  0.10526454604E+03  0.00000000000E+00 0.  1.
         23    2    1    2    0    0 -0.16289271684E+03  0.86893331983E+02  0.22036172012E+03  0.29751157519E+03  0.76611757130E+02 0.  0.
          5    1    1    2  502    0 -0.96157904818E+01 -0.23411045806E+02 -0.10586484606E+02  0.27750433305E+02  0.41800000000E+01 0.  1.
         -5    1    1    2    0  502  0.17250850732E+03 -0.63482286177E+02  0.13032939417E+03  0.22537171327E+03  0.41800000000E+01 0.  1.
        -11    1    3    3    0    0 -0.11878301190E+03  0.23332814687E+02  0.11654320481E+03  0.16803613523E+03  0.00000000000E+00 0.  1.
         11    1    3    3    0    0 -0.44109704945E+02  0.63560517295E+02  0.10381851531E+03  0.12947543995E+03  0.00000000000E+00 0. -1.
</event>
<event>
 7    1  0.4687179E-006  0.1189430E+03  0.7561462E-02  0.1244851E+00
          2   -1    0    0  501    0  0.00000000000E+00  0.00000000000E+00  0.15311291261E+02  0.15311291261E+02  0.00000000000E+00 0. -1.
         -2   -1    0    0    0  501 -0.00000000000E+00 -0.00000000000E+00 -0.10896343531E+04  0.10896343531E+04  0.00000000000E+00 0.  1.
         23    2    1    2    0    0 -0.34711737656E+02  0.55264549653E+02 -0.35016067458E+03  0.36716697079E+03  0.89106740706E+02 0.  0.
          5    1    1    2  502    0 -0.25863910894E+02 -0.67857243775E+02 -0.27936783817E+03  0.28868219346E+03  0.41800000000E+01 0. -1.
         -5    1    1    2    0  502  0.60575648550E+02  0.12592694122E+02 -0.44479454913E+03  0.44909648015E+03  0.41800000000E+01 0. -1.
        -11    1    3    3    0    0 -0.40988843846E+02 -0.61085678520E+01 -0.20968814716E+03  0.21374405017E+03  0.00000000000E+00 0.  1.
         11    1    3    3    0    0  0.62771061894E+01  0.61373117505E+02 -0.14047252741E+03  0.15342292062E+03  0.00000000000E+00 0. -1.
</event>
<event>
 7    1  0.4687179E-006  0.1215255E+03  0.7561462E-02  0.1240602E+00
         -4   -1    0    0    0  501 -0.00000000000E+00  0.00000000000E+00  0.12207277371E+03  0.12207277371E+03  0.00000000000E+00 0.  1.
          4   -1    0    0  501    0  0.00000000000E+00 -0.00000000000E+00 -0.45251016638E+03  0.45251016638E+03  0.00000000000E+00 0. -1.
         23    2    1    2    0    0  0.11250150710E+03 -0.13417374055E+02 -0.37304123651E+03  0.40051538379E+03  0.91739814086E+02 0.  0.
          5    1    1    2  502    0 -0.98371247829E+02  0.33486122064E+02  0.78557974116E+02  0.13033437945E+03  0.41800000000E+01 0.  1.
         -5    1    1    2    0  502 -0.14130259268E+02 -0.20068748009E+02 -0.35954130269E+02  0.43733176846E+02  0.41800000000E+01 0.  1.
        -11    1    3    3    0    0  0.56384092802E+02  0.30101523109E+00 -0.60585034298E+02  0.82763536126E+02  0.00000000000E+00 0.  1.
         11    1    3    3    0    0  0.56117414295E+02 -0.13718389286E+02 -0.31245620221E+03  0.31775184766E+03  0.00000000000E+00 0. -1.
</event>
<event>
 7    1  0.4687179E-006  0.1296564E+03  0.7561462E-02  0.1227966E+00
          2   -1    0    0  501    0  0.00000000000E+00  0.00000000000E+00  0.49105198796E+03  0.49105198796E+03  0.00000000000E+00 0. -1.
         -2   -1    0    0    0  501 -0.00000000000E+00 -0.00000000000E+00 -0.46329427726E+02  0.46329427726E+02  0.00000000000E+00 0.  1.
         23    2    1    2    0    0 -0.92126546592E+02 -0.52941593161E+02  0.18173724746E+03  0.22738419625E+03  0.85936213059E+02 0.  0.
          5    1    1    2  502    0 -0.72446225018E+00  0.45865853296E+02  0.17797900218E+03  0.18384286486E+03  0.41800000000E+01 0. -1.
         -5    1    1    2    0  502  0.92851008843E+02  0.70757398643E+01  0.85006310593E+02  0.12615435458E+03  0.41800000000E+01 0. -1.
        -11    1    3    3    0    0 -0.64297899134E+02 -0.48578636842E+01  0.41857556999E+02  0.76875703252E+02  0.00000000000E+00 0.  1.
         11    1    3    3    0    0 -0.27828647459E+02 -0.48083729476E+02  0.13987969046E+03  0.15050849300E+03  0.00000000000E+00 0. -1.
</event>
<event>
 7    1  0.4687179E-006  0.1153580E+03  0.7561462E-02  0.1250957E+00
          1   -1    0    0  501    0  0.00000000000E+00  0.00000000000E+00  0.24559746409E+02  0.24559746409E+02  0.00000000000E+00 0. -1.
         -1   -1    0    0    0  501 -0.00000000000E+00 -0.00000000000E+00 -0.78729115756E+03  0.78729115756E+03  0.00000000000E+00 0.  1.
         23    2    1    2    0    0 -0.15170716964E+01 -0.48527708401E+02 -0.14265174307E+03  0.17741954561E+03  0.93653272099E+02 0.  0.
          5    1    1    2  502    0 -0.50761912123E+02 -0.12575771813E+02 -0.28704175655E+03  0.29179678573E+03  0.41800000000E+01 0.  1.
         -5    1    1    2    0  502  0.52278983820E+02  0.61103480214E+02 -0.33303791153E+03  0.34263457263E+03  0.41800000000E+01 0.  1.
        -11    1    3    3    0    0 -0.32870895647E+02  0.73246815362E+01 -0.84283893237E+02  0.90762995760E+02  0.00000000000E+00 0.  1.
         11    1    3    3    0    0  0.31353823951E+02 -0.55852389937E+02 -0.58367849836E+02  0.86656549853E+02  0.00000000000E+00 0. -1.
</event>
<event>
 7    1  0.4687179E-006  0.1225902E+03  0.7561462E-02  0.1238884E+00
          2   -1    0    0  501    0  0.00000000000E+00  0.00000000000E+00  0.21598269885E+02  0.21598269885E+02  0.00000000000E+00 0. -1.
         -2   -1    0    0    0  501 -0.00000000000E+00 -0.00000000000E+00 -0.90420467794E+03  0.90420467794E+03  0.00000000000E+00 0.  1.
         23    2    1    2    0    0  0.55082120722E+02  0.89972266452E+01 -0.26798147972E+03  0.28933536149E+03  0.93733066881E+02 0.  0.
          5    1    1    2  502    0  0.46102487472E+02 -0.15597745085E+01 -0.81356877069E+02  0.93617765911E+02  0.41800000000E+01 0. -1.
         -5    1    1    2    0  502 -0.10118460819E+03 -0.74374521366E+01 -0.53326805127E+03  0.54284982042E+03  0.41800000000E+01 0.  1.
        -11    1    3    3    0    0  0.26825265044E+02 -0.35568431339E+02 -0.19016949675E+03  0.19531806277E+03  0.00000000000E+00 0.  1.
         11    1    3    3    0    0  0.28256855678E+02  0.44565657984E+02 -0.77811982972E+02  0.94017298719E+02  0.00000000000E+00 0. -1.
</event>
<event>
 7    1  0.4687179E-006  0.9887430E+02  0.7561462E-02  0.1282681E+00
         -2   -1    0    0    0  501 -0.00000000000E+00  0.00000000000E+00  0.54962906366E+02  0.54962906366E+02  0.00000000000E+00 0.  1.
          2   -1    0    0  501    0  0.00000000000E+00 -0.00000000000E+00 -0.29781685682E+03  0.29781685682E+03  0.00000000000E+00 0. -1.
         23    2    1    2    0    0  0.29490621131E+02  0.52013014702E+02 -0.14866080309E+03  0.18516160899E+03  0.92788666524E+02 0.  0.
          5    1    1    2  502    0 -0.24059835973E+02  0.22461846455E+02  0.14065474074E+02  0.36037760948E+02  0.41800000000E+01 0. -1.
         -5    1    1    2    0  502 -0.54307851578E+01 -0.74474861158E+02 -0.10825862144E+03  0.13158039325E+03  0.41800000000E+01 0. -1.
        -11    1    3    3    0    0  0.50333729002E+02  0.45742391837E+02 -0.50751282238E+02  0.84861907443E+02  0.00000000000E+00 0.  1.
         11    1    3    3    0    0 -0.20843107871E+02  0.62706228654E+01 -0.97909520853E+02  0.10029970155E+03  0.00000000000E+00 0. -1.
</event>
<event>
 7    1  0.4687179E-006  0.1333714E+03  0.7561462E-02  0.1222537E+00
          2   -1    0    0  501    0  0.00000000000E+00  0.00000000000E+00  0.10486272117E+03  0.10486272117E+03  0.00000000000E+00 0.  1.
         -2   -1    0    0    0  501 -0.00000000000E+00 -0.00000000000E+00 -0.34670701460E+03  0.34670701460E+03  0.00000000000E+00 0. -1.
         23    2    1    2    0    0  0.49636088626E+02 -0.85980032747E+02  0.28932212885E+02  0.13720649234E+03  0.90178940295E+02 0.  0.
          5    1    1    2  502    0 -0.18878859341E+02  0.11264626331E+03 -0.22869940565E+03  0.25566869678E+03  0.41800000000E+01 0. -1.
         -5    1    1    2    0  502 -0.30757229285E+02 -0.26666230561E+02 -0.42077100665E+02  0.58694546647E+02  0.41800000000E+01 0. -1.
        -11    1    3    3    0    0 -0.97563227399E+01 -0.46180225019E+01 -0.21869188563E+02  0.24387976006E+02  0.00000000000E+00 0. -1.
         11    1    3    3    0    0  0.59392411366E+02 -0.81362010245E+02  0.50801401448E+02  0.11281851634E+03  0.00000000000E+00 0.  1.
</event>
<event>
 7    1  0.4687179E-006  0.1594738E+03  0.7561462E-02  0.1189292E+00
         -1   -1    0    0    0  501 -0.00000000000E+00  0.00000000000E+00  0.59942249359E+02  0.59942249359E+02  0.00000000000E+00 0.  1.
          1   -1    0    0  501    0  0.00000000000E+00 -0.00000000000E+00 -0.47366938451E+03  0.47366938451E+03  0.00000000000E+00 0. -1.
         23    2    1    2    0    0  0.12039975629E+03 -0.44534746943E+02 -0.16749789052E+03  0.22905403826E+03  0.89054837681E+02 0.  0.
          5    1    1    2  502    0 -0.72068428822E+02  0.81029521852E+02 -0.20248253488E+03  0.22973091037E+03  0.41800000000E+01 0.  1.
         -5    1    1    2    0  502 -0.48331327470E+02 -0.36494774908E+02 -0.43746709745E+02  0.74826685241E+02  0.41800000000E+01 0.  1.
        -11    1    3    3    0    0  0.96585864082E+00 -0.29301438841E+02 -0.10363560687E+02  0.31095185980E+02  0.00000000000E+00 0.  1.
         11    1    3    3    0    0  0.11943389765E+03 -0.15233308103E+02 -0.15713432983E+03  0.19795885228E+03  0.00000000000E+00 0. -1.
</event>
<event>
 7    1  0.4687179E-006  0.1202762E+03  0.7561462E-02  0.1242642E+00
          1   -1    0    0  501    0  0.00000000000E+00  0.00000000000E+00  0.65399837261E+03  0.65399837261E+03  0.00000000000E+00 0. -1.
         -1   -1    0    0    0  501 -0.00000000000E+00 -0.00000000000E+00 -0.24477179489E+02  0.24477179489E+02  0.00000000000E+00 0.  1.
         23    2    1    2    0    0 -0.93526068230E+01  0.64536166628E+02  0.29995941271E+03  0.31998563349E+03  0.90348039847E+02 0.  0.
          5    1    1    2  502    0 -0.28048868526E+02  0.22547296237E+02  0.40900106728E+02  0.54638912174E+02  0.41800000000E+01 0.  1.
         -5    1    1    2    0  502  0.37401475349E+02 -0.87083462865E+02  0.28866167368E+03  0.30385100644E+03  0.41800000000E+01 0.  1.
        -11    1    3    3    0    0 -0.36388782623E+02  0.72627828849E+02  0.19374210354E+03  0.21008319235E+03  0.00000000000E+00 0.  1.
         11    1    3    3    0    0  0.27036175800E+02 -0.80916622207E+01  0.10621730917E+03  0.10990244113E+03  0.00000000000E+00 0. -1.
</event>
<event>
 7    1  0.4687179E-006  0.1022395E+03  0.7561462E-02  0.1275656E+00
          1   -1    0    0  501    0  0.00000000000E+00  0.00000000000E+00  0.37652598157E+03  0.37652598157E+03  0.00000000000E+00 0. -1.
         -1   -1    0    0    0  501 -0.00000000000E+00 -0.00000000000E+00 -0.45599179710E+02  0.45599179710E+02  0.00000000000E+00 0.  1.
         23    2    1    2    0    0  0.14499369638E+02  0.17804386971E+02  0.26121018861E+03  0.27709267693E+03  0.89567634000E+02 0.  0.
          5    1    1    2  502    0 -0.62500521706E+02 -0.12399363849E+02  0.72321399024E+02  0.96477544507E+02  0.41800000000E+01 0. -1.
         -5    1    1    2    0  502  0.48001152068E+02 -0.54050231211E+01 -0.26047857673E+01  0.48554939848E+02  0.41800000000E+01 0. -1.
        -11    1    3    3    0    0 -0.37863347323E+02  0.46425762519E+01  0.96859719871E+02  0.10410087376E+03  0.00000000000E+00 0.  1.
         11    1    3    3    0    0  0.52362716961E+02  0.13161810719E+02  0.16435046874E+03  0.17299180317E+03  0.00000000000E+00 0. -1.
</event>
<event>
 7    1  0.4687179E-006  0.1181434E+03  0.7561462E-02  0.1246192E+00
         -2   -1    0    0    0  501 -0.00000000000E+00  0.00000000000E+00  0.23439446206E+02  0.23439446206E+02  0.00000000000E+00 0.  1.
          2   -1    0    0  501    0  0.00000000000E+00 -0.00000000000E+00 -0.90456502110E+03  0.90456502110E+03  0.00000000000E+00 0. -1.
         23    2    1    2    0    0  0.87948580172E+02  0.25234847373E+02 -0.50516716609E+03  0.52134974187E+03  0.90774100821E+02 0.  0.
          5    1    1    2  502    0 -0.82921404429E+02 -0.17561521423E+01 -0.10162501151E+03  0.13124084252E+03  0.41800000000E+01 0.  1.
         -5    1    1    2    0  502 -0.50271757423E+01 -0.23478695230E+02 -0.27433339730E+03  0.27541388291E+03  0.41800000000E+01 0.  1.
        -11    1    3    3    0    0  0.70199243526E+02  0.58359302160E+02 -0.35399479128E+03  0.36557633156E+03  0.00000000000E+00 0. -1.
         11    1    3    3    0    0  0.17749336645E+02 -0.33124454788E+02 -0.15117237481E+03  0.15577341031E+03  0.00000000000E+00 0.  1.
</event>
<event>
 7    1  0.4687179E-006  0.6570272E+02  0.7561462E-02  0.1375347E+00
         -1   -1    0    0    0  501 -0.00000000000E+00  0.00000000000E+00  0.67790193330E+02  0.67790193330E+02  0.00000000000E+00 0.  1.
          1   -1    0    0  501    0  0.00000000000E+00 -0.00000000000E+00 -0.23582403722E+03  0.23582403722E+03  0.00000000000E+00 0. -1.
         23    2    1    2    0    0  0.37152363364E+02 -0.32749351405E+02 -0.25750924931E+02  0.10779366877E+03  0.92214677636E+02 0.  0.
          5    1    1    2  502    0 -0.34404984477E+02  0.51502322919E+02 -0.15869393117E+03  0.17040372183E+03  0.41800000000E+01 0. -1.
         -5    1    1    2    0  502 -0.27473788869E+01 -0.18752971514E+02  0.16411012209E+02  0.25416839950E+02  0.41800000000E+01 0. -1.
        -11    1    3    3    0    0  0.12743430592E+02 -0.15312886753E+02 -0.59437330313E+02  0.62687125940E+02  0.00000000000E+00 0. -1.
         11    1    3    3    0    0  0.24408932773E+02 -0.17436464652E+02  0.33686405382E+02  0.45106542832E+02  0.00000000000E+00 0.  1.
</event>
<event>
 7    1  0.6269746E-006  0.1680375E+03  0.7561462E-02  0.1179910E+00
         -1   -1    0    0    0  501 -0.00000000000E+00  0.00000000000E+00  0.32610938923E+02  0.32610938923E+02  0.00000000000E+00 0.  1.
          1   -1    0    0  501    0  0.00000000000E+00 -0.00000000000E+00 -0.11799842831E+04  0.11799842831E+04  0.00000000000E+00 0. -1.
         23    2    1    2    0    0 -0.15244798514E+03  0.47626726316E+01 -0.72541774140E+03  0.74680889209E+03  0.90716870234E+02 0.  0.
          5    1    1    2  502    0  0.55735557980E+02  0.27266830751E+02 -0.49085637305E+02  0.79226287760E+02  0.41800000000E+01 0.  1.
         -5    1    1    2    0  502  0.96712427156E+02 -0.32029503382E+02 -0.37286996548E+03  0.38656004218E+03  0.41800000000E+01 0.  1.
        -11    1    3    3    0    0 -0.10910584350E+03 -0.33473440884E+02 -0.38646467936E+03  0.40296340370E+03  0.00000000000E+00 0.  1.
         11    1    3    3    0    0 -0.43342141633E+02  0.38236113515E+02 -0.33895306204E+03  0.34384548839E+03  0.00000000000E+00 0. -1.
</event>
<event>
 7    1  0.4687179E-006  0.1343595E+03  0.7561462E-02  0.1221127E+00
          1   -1    0    0  501    0  0.00000000000E+00  0.00000000000E+00  0.68170058320E+03  0.68170058320E+03  0.00000000000E+00 0. -1.
         -1   -1    0    0    0  501 -0.00000000000E+00 -0.00000000000E+00 -0.28285825709E+02  0.28285825709E+02  0.00000000000E+00 0.  1.
         23    2    1    2    0    0 -0.73051305871E+02 -0.45242808373E+02  0.31349807501E+03  0.33773090314E+03  0.91639046792E+02 0.  0.
          5    1    1    2  502    0  0.77106820494E+02  0.78860330896E+02  0.30047435429E+03  0.32010423856E+03  0.41800000000E+01 0.  1.
         -5    1    1    2    0  502 -0.40555146234E+01 -0.33617522523E+02  0.39442328184E+02  0.52151267214E+02  0.41800000000E+01 0.  1.
        -11    1    3    3    0    0 -0.30382530910E+02 -0.68999657148E+02  0.16500022263E+03  0.18140872178E+03  0.00000000000E+00 0.  1.
         11    1    3    3    0    0 -0.42668774960E+02  0.23756848775E+02  0.14849785239E+03  0.15632218135E+03  0.00000000000E+00 0. -1.
</event>
<event>
 7    1  0.4687179E-006  0.9774488E+02  0.7561462E-02  0.1285111E+00
         -1   -1    0    0    0  501 -0.00000000000E+00  0.00000000000E+00  0.67949239223E+03  0.67949239223E+03  0.00000000000E+00 0.  1.
          1   -1    0    0  501    0  0.00000000000E+00 -0.00000000000E+00 -0.21635857068E+02  0.21635857068E+02  0.00000000000E+00 0. -1.
         23    2    1    2    0    0 -0.22329194335E+02 -0.14895163606E+02  0.15150329554E+03  0.18002881342E+03  0.93470135786E+02 0.  0.
          5    1    1    2  502    0 -0.45566277230E+02 -0.11527132525E+02  0.25662287065E+03  0.26092514356E+03  0.41800000000E+01 0. -1.
         -5    1    1    2    0  502  0.67895471565E+02  0.26422296131E+02  0.24973036898E+03  0.26017429231E+03  0.41800000000E+01 0.  1.
        -11    1    3    3    0    0  0.88282712289E+01 -0.36408864346E+02  0.18580351516E+02  0.41818336149E+02  0.00000000000E+00 0. -1.
         11    1    3    3    0    0 -0.31157465564E+02  0.21513700739E+02  0.13292294402E+03  0.13821047727E+03  0.00000000000E+00 0.  1.
</event>
<event>
 7    1  0.4687179E-006  0.1123824E+03  0.7561462E-02  0.1256221E+00
         -1   -1    0    0    0  501 -0.00000000000E+00  0.00000000000E+00  0.92574005027E+03  0.92574005027E+03  0.00000000000E+00 0.  1.
          1   -1    0    0  501    0  0.00000000000E+00 -0.00000000000E+00 -0.27246876841E+02  0.27246876841E+02  0.00000000000E+00 0. -1.
         23    2    1    2    0    0  0.53391028111E+02  0.71138096182E+02  0.19919035868E+03  0.23703773828E+03  0.92730037035E+02 0.  0.
          5    1    1    2  502    0 -0.73763334252E+02 -0.83456035602E+02  0.38752146533E+03  0.40323231251E+03  0.41800000000E+01 0.  1.
         -5    1    1    2    0  502  0.20372306140E+02  0.12317939420E+02  0.31178134942E+03  0.31271687632E+03  0.41800000000E+01 0.  1.
        -11    1    3    3    0    0  0.22778727805E+02  0.25656398687E+02  0.17283535593E+03  0.17620777933E+03  0.00000000000E+00 0.  1.
         11    1    3    3    0    0  0.30612300307E+02  0.45481697496E+02  0.26355002746E+02  0.60829958958E+02  0.00000000000E+00 0. -1.
</event>
<event>
 7    1  0.4687179E-006  0.1316422E+03  0.7561462E-02  0.1225039E+00
          2   -1    0    0  501    0  0.00000000000E+00  0.00000000000E+00  0.20709541497E+03  0.20709541497E+03  0.00000000000E+00 0. -1.
         -2   -1    0    0    0  501 -0.00000000000E+00 -0.00000000000E+00 -0.18051798530E+03  0.18051798530E+03  0.00000000000E+00 0.  1.
         23    2    1    2    0    0  0.64017354076E+02 -0.48666959584E+02  0.15035192785E+03  0.19414759392E+03  0.92848755720E+02 0.  0.
          5    1    1    2  502    0 -0.28846617508E+02  0.88859175809E+02 -0.64694616065E+02  0.11371431843E+03  0.41800000000E+01 0.  1.
         -5    1    1    2    0  502 -0.35170736568E+02 -0.40192216225E+02 -0.59079882110E+02  0.79751487923E+02  0.41800000000E+01 0.  1.
        -11    1    3    3    0    0 -0.19929659818E+02 -0.17900125258E+02  0.65999537990E+02  0.71228820288E+02  0.00000000000E+00 0. -1.
         11    1    3    3    0    0  0.83947013894E+02 -0.30766834326E+02  0.84352389861E+02  0.12291877363E+03  0.00000000000E+00 0.  1.
</event>
<event>
 7    1  0.4687179E-006  0.1968314E+03  0.7561462E-02  0.1152440E+00
          2   -1    0    0  501    0  0.00000000000E+00  0.00000000000E+00  0.47686753989E+02  0.47686753989E+02  0.00000000000E+00 0.  1.
         -2   -1    0    0    0  501 -0.00000000000E+00 -0.00000000000E+00 -0.13258701439E+04  0.13258701439E+04  0.00000000000E+00 0. -1.
         23    2    1    2    0    0 -0.76569230073E+02  0.17333199226E+02 -0.11135547222E+03  0.16419635979E+03  0.91635782233E+02 0.  0.
          5    1    1    2  502    0 -0.49699308491E+02 -0.11571724457E+03 -0.78904086941E+03  0.79903909038E+03  0.41800000000E+01 0.  1.
         -5    1    1    2    0  502  0.12626853856E+03  0.98384045348E+02 -0.37778704828E+03  0.41032144772E+03  0.41800000000E+01 0. -1.
        -11    1    3    3    0    0 -0.30967982993E+02 -0.29065739514E+02 -0.82986999182E+02  0.93223791049E+02  0.00000000000E+00 0.  1.
         11    1    3    3    0    0 -0.45601247080E+02  0.46398938740E+02 -0.28368473041E+02  0.70972568744E+02  0.00000000000E+00 0. -1.
</event>
<event>
 7    1  0.4687179E-006  0.1068800E+03  0.7561462E-02  0.1266459E+00
          2   -1    0    0  501    0  0.00000000000E+00  0.00000000000E+00  0.34851354049E+02  0.34851354049E+02  0.00000000000E+00 0.  1.
         -2   -1    0    0    0  501 -0.00000000000E+00 -0.00000000000E+00 -0.48386189441E+03  0.48386189441E+03  0.00000000000E+00 0. -1.
         23    2    1    2    0    0  0.22826704548E+02 -0.62930533062E+02 -0.16002300032E+03  0.19678196011E+03  0.92921842229E+02 0.  0.
          5    1    1    2  502    0 -0.48629652872E+02  0.56901581842E+02 -0.74212440775E+02  0.10548740171E+03  0.41800000000E+01 0.  1.
         -5    1    1    2    0  502  0.25802948323E+02  0.60289512194E+01 -0.21477509926E+03  0.21644388663E+03  0.41800000000E+01 0.  1.
        -11    1    3    3    0    0  0.55566608980E+02 -0.22515887194E+02 -0.64811290074E+02  0.88289957134E+02  0.00000000000E+00 0.  1.
         11    1    3    3    0    0 -0.32739904432E+02 -0.40414645868E+02 -0.95211710244E+02  0.10849200298E+03  0.00000000000E+00 0. -1.
</event>
<event>
 7    1  0.4687179E-006  0.1286143E+03  0.7561462E-02  0.1229526E+00
         -2   -1    0    0    0  501 -0.00000000000E+00  0.00000000000E+00  0.21265664664E+03  0.21265664664E+03  0.00000000000E+00 0.  1.
          2   -1    0    0  501    0  0.00000000000E+00 -0.00000000000E+00 -0.10269343056E+03  0.10269343056E+03  0.00000000000E+00 0. -1.
         23    2    1    2    0    0  0.16974965834E+02 -0.32923370349E+01  0.47901302160E+02  0.10441199738E+03  0.91150104226E+02 0.  0.
          5    1    1    2  502    0  0.59799357734E+02  0.48575433671E+02 -0.29949535153E+02  0.82764624070E+02  0.41800000000E+01 0. -1.
         -5    1    1    2    0  502 -0.76774323568E+02 -0.45283096636E+02  0.92011449072E+02  0.12817345576E+03  0.41800000000E+01 0.  1.
        -11    1    3    3    0    0  0.44368808055E+02  0.25438119323E+02  0.37369146050E+02  0.63341472350E+02  0.00000000000E+00 0. -1.
         11    1    3    3    0    0 -0.27393842220E+02 -0.28730456358E+02  0.10532156110E+02  0.41070525032E+02  0.00000000000E+00 0.  1.
</event>
<event>
 7    1  0.4687179E-006  0.1209896E+03  0.7561462E-02  0.1241473E+00
          1   -1    0    0  501    0  0.00000000000E+00  0.00000000000E+00  0.80431811189E+03  0.80431811189E+03  0.00000000000E+00 0. -1.
         -1   -1    0    0    0  501 -0.00000000000E+00 -0.00000000000E+00 -0.30417718096E+02  0.30417718096E+02  0.00000000000E+00 0.  1.
         23    2    1    2    0    0  0.62710946841E+02  0.22203865155E+02  0.60000763076E+03  0.61043269281E+03  0.90516523367E+02 0.  0.
          5    1    1    2  502    0 -0.68642860171E+02 -0.59951523685E+02  0.15853034876E+03  0.18290809529E+03  0.41800000000E+01 0.  1.
         -5    1    1    2    0  502  0.59319133308E+01  0.37747658529E+02  0.15362414273E+02  0.41395041883E+02  0.41800000000E+01 0.  1.
        -11    1    3    3    0    0  0.16612598708E+01 -0.31170869014E+02  0.17280023729E+03  0.17559699561E+03  0.00000000000E+00 0. -1.
         11    1    3    3    0    0  0.61049686970E+02  0.53374734169E+02  0.42720739347E+03  0.43483569720E+03  0.00000000000E+00 0.  1.
</event>
<event>
 7    1  0.4687179E-006  0.8683581E+02  0.7561462E-02  0.1310700E+00
          1   -1    0    0  501    0  0.00000000000E+00  0.00000000000E+00  0.34180438948E+02  0.34180438948E+02  0.00000000000E+00 0. -1.
         -1   -1    0    0    0  501 -0.00000000000E+00 -0.00000000000E+00 -0.39003434552E+03  0.39003434552E+03  0.00000000000E+00 0.  1.
         23    2    1    2    0    0  0.16192428027E+02 -0.23774185763E+02 -0.85537154578E+02  0.12497363992E+03  0.86454607904E+02 0.  0.
          5    1    1    2  502    0  0.97960969386E+01  0.62941077148E+02 -0.22475799032E+03  0.23364753223E+03  0.41800000000E+01 0. -1.
         -5    1    1    2    0  502 -0.25988524965E+02 -0.39166891385E+02 -0.45558761677E+02  0.65593612312E+02  0.41800000000E+01 0. -1.
        -11    1    3    3    0    0  0.31552699570E+02 -0.32236563094E+02 -0.94913513817E+02  0.10508731586E+03  0.00000000000E+00 0.  1.
         11    1    3    3    0    0 -0.15360271543E+02  0.84623773316E+01  0.93763592386E+01  0.19886324058E+02  0.00000000000E+00 0. -1.
</event>
<event>
 7    1  0.4687179E-006  0.1040123E+03  0.7561462E-02  0.1272078E+00
          1   -1    0    0  501    0  0.00000000000E+00  0.00000000000E+00  0.55971599926E+02  0.55971599926E+02  0.00000000000E+00 0. -1.
         -1   -1    0    0    0  501 -0.00000000000E+00 -0.00000000000E+00 -0.41614073262E+03  0.41614073262E+03  0.00000000000E+00 0.  1.
         23    2    1    2    0    0  0.64452971458E+02  0.29472228440E+02 -0.38748575772E+02  0.12000249928E+03  0.88748802409E+02 0.  0.
          5    1    1    2  502    0 -0.16987951809E+02  0.31392653653E+02 -0.20402851285E+02  0.41325996063E+02  0.41800000000E+01 0.  1.
         -5    1    1    2    0  502 -0.47465019649E+02 -0.60864882094E+02 -0.30101770564E+03  0.31078383721E+03  0.41800000000E+01 0.  1.
        -11    1    3    3    0    0  0.54001802824E+02 -0.91551986524E+01 -0.54247464787E+02  0.77089557051E+02  0.00000000000E+00 0.  1.
         11    1    3    3    0    0  0.10451168635E+02  0.38627427092E+02  0.15498889015E+02  0.42912942224E+02  0.00000000000E+00 0. -1.
</event>
<event>
 7    1  0.4687179E-006  0.1001169E+03  0.7561462E-02  0.1280050E+00
         -2   -1    0    0    0  501 -0.00000000000E+00  0.00000000000E+00  0.85819389436E+02  0.85819389436E+02  0.00000000000E+00 0.  1.
          2   -1    0    0  501    0  0.00000000000E+00 -0.00000000000E+00 -0.16213640456E+03  0.16213640456E+03  0.00000000000E+00 0. -1.
         23    2    1    2    0    0 -0.57598042966E+01 -0.43128367643E+02 -0.45342051660E+02  0.11194533915E+03  0.92642462550E+02 0.  0.
          5    1    1    2  502    0  0.97189077857E+01 -0.27094360095E+02  0.30758446860E+02  0.42333390731E+02  0.41800000000E+01 0.  1.
         -5    1    1    2    0  502 -0.39591034890E+01  0.70222727738E+02 -0.61733410328E+02  0.93677064120E+02  0.41800000000E+01 0.  1.
        -11    1    3    3    0    0  0.19000680011E+02 -0.64957721030E+02 -0.20771322221E+02  0.70795333103E+02  0.00000000000E+00 0.  1.
         11    1    3    3    0    0 -0.24760484308E+02  0.21829353387E+02 -0.24570729439E+02  0.41150006046E+02  0.00000000000E+00 0. -1.
</event>
<event>
 7    1  0.4687179E-006  0.9474797E+02  0.7561462E-02  0.1291745E+00
         -1   -1    0    0    0  501 -0.00000000000E+00  0.00000000000E+00  0.98648734218E+02  0.98648734218E+02  0.00000000000E+00 0.  1.
          1   -1    0    0  501    0  0.00000000000E+00 -0.00000000000E+00 -0.11562944186E+03  0.11562944186E+03  0.00000000000E+00 0. -1.
         23    2    1    2    0    0  0.86415073013E+00  0.16391723110E+01 -0.10837477689E+02  0.88881215517E+02  0.88198559551E+02 0.  0.
          5    1    1    2  502    0 -0.45494392165E+02 -0.42167871252E+02 -0.15925930092E+02  0.64179254699E+02  0.41800000000E+01 0.  1.
         -5    1    1    2    0  502  0.44630241435E+02  0.40528698941E+02  0.97827001430E+01  0.61217705858E+02  0.41800000000E+01 0.  1.
        -11    1    3    3    0    0 -0.25066390729E+02  0.22445515988E+02  0.23534924428E+02  0.41061147085E+02  0.00000000000E+00 0.  1.
         11    1    3    3    0    0  0.25930541459E+02 -0.20806343677E+02 -0.34372402117E+02  0.47820068432E+02  0.00000000000E+00 0. -1.
</event>
<event>
 7    1  0.4687179E-006  0.1004464E+03  0.7561462E-02  0.1279360E+00
          1   -1    0    0  501    0  0.00000000000E+00  0.00000000000E+00  0.53114925179E+02  0.53114925179E+02  0.00000000000E+00 0. -1.
         -1   -1    0    0    0  501 -0.00000000000E+00 -0.00000000000E+00 -0.31102369167E+03  0.31102369167E+03  0.00000000000E+00 0.  1.
         23    2    1    2    0    0 -0.18085276290E+02 -0.25682397130E+02 -0.31206725724E+02  0.10331739886E+03  0.93348607037E+02 0.  0.
          5    1    1    2  502    0  0.41716638299E+02  0.52208240745E+02 -0.21169171323E+03  0.22202889939E+03  0.41800000000E+01 0.  1.
         -5    1    1    2    0  502 -0.23631362009E+02 -0.26525843615E+02 -0.15010327537E+02  0.38792318604E+02  0.41800000000E+01 0.  1.
        -11    1    3    3    0    0 -0.20733977321E+02  0.33242881863E+02 -0.16602891386E+02  0.42551651114E+02  0.00000000000E+00 0. -1.
         11    1    3    3    0    0  0.26487010307E+01 -0.58925278994E+02 -0.14603834338E+02  0.60765747745E+02  0.00000000000E+00 0.  1.
</event>
<event>
 7    1  0.4687179E-006  0.1927817E+03  0.7561462E-02  0.1155976E+00
         -2   -1    0    0    0  501 -0.00000000000E+00  0.00000000000E+00  0.16787921871E+03  0.16787921871E+03  0.00000000000E+00 0. -1.
          2   -1    0    0  501    0  0.00000000000E+00 -0.00000000000E+00 -0.37561153375E+03  0.37561153375E+03  0.00000000000E+00 0.  1.
         23    2    1    2    0    0 -0.11681311630E+03  0.14347948714E+03 -0.24050542200E+03  0.31776412122E+03  0.94337221474E+02 0.  0.
          5    1    1    2  502    0  0.67837764288E+02 -0.88414347051E+02 -0.43391992397E+02  0.11966368051E+03  0.41800000000E+01 0. -1.
         -5    1    1    2    0  502  0.48975352007E+02 -0.55065140092E+02  0.76165099354E+02  0.10606295073E+03  0.41800000000E+01 0. -1.
        -11    1    3    3    0    0 -0.84483549576E+02  0.43236149441E+02 -0.15654972933E+03  0.18307007544E+03  0.00000000000E+00 0.  1.
         11    1    3    3    0    0 -0.32329566719E+02  0.10024333770E+03 -0.83955692665E+02  0.13469404578E+03  0.00000000000E+00 0. -1.
</event>
<event>
 7    1  0.4687179E-006  0.9481340E+02  0.7561462E-02  0.1291597E+00
         -1   -1    0    0    0  501 -0.00000000000E+00  0.00000000000E+00  0.22133891954E+02  0.22133891954E+02  0.00000000000E+00 0.  1.
          1   -1    0    0  501    0  0.00000000000E+00 -0.00000000000E+00 -0.65640058517E+03  0.65640058517E+03  0.00000000000E+00 0. -1.
         23    2    1    2    0    0 -0.58643494983E+01 -0.64394157599E+02 -0.31802141218E+03  0.33235651760E+03  0.71709400092E+02 0.  0.
          5    1    1    2  502    0  0.66868343408E+01 -0.16079806732E+02  0.18768122930E+01  0.18007464075E+02  0.41800000000E+01 0. -1.
         -5    1    1    2    0  502 -0.82248484251E+00  0.80473964331E+02 -0.31812209333E+03  0.32817049545E+03  0.41800000000E+01 0. -1.
        -11    1    3    3    0    0 -0.28207541264E+02 -0.62664791563E+02 -0.18279620980E+03  0.19528695758E+03  0.00000000000E+00 0.  1.
         11    1    3    3    0    0  0.22343191766E+02 -0.17293660367E+01 -0.13522520238E+03  0.13706956002E+03  0.00000000000E+00 0. -1.
</event>
<event>
 7    1  0.4687179E-006  0.1354319E+03  0.7561462E-02  0.1219611E+00
          2   -1    0    0  501    0  0.00000000000E+00  0.00000000000E+00  0.35564282054E+02  0.35564282054E+02  0.00000000000E+00 0. -1.
         -2   -1    0    0    0  501 -0.00000000000E+00 -0.00000000000E+00 -0.65609122100E+03  0.65609122100E+03  0.00000000000E+00 0.  1.
         23    2    1    2    0    0  0.98603447130E+02  0.61990471950E+01 -0.16861387603E+03  0.21504619867E+03  0.89739402713E+02 0.  0.
          5    1    1    2  502    0 -0.43848897847E+02  0.48524255171E+02 -0.13116950188E+03  0.14662960071E+03  0.41800000000E+01 0. -1.
         -5    1    1    2    0  502 -0.54754549283E+02 -0.54723302366E+02 -0.32074356104E+03  0.32997970368E+03  0.41800000000E+01 0.  1.
        -11    1    3    3    0    0 -0.11216592839E+02 -0.12067048866E+02 -0.51290296982E+01  0.17254928829E+02  0.00000000000E+00 0.  1.
         11    1    3    3    0    0  0.10982003997E+03  0.18266096061E+02 -0.16348484633E+03  0.19779126984E+03  0.00000000000E+00 0. -1.
</event>
<event>
 7    1  0.4687179E-006  0.8526822E+02  0.7561462E-02  0.1314733E+00
          1   -1    0    0  501    0  0.00000000000E+00  0.00000000000E+00  0.22041822020E+03  0.22041822020E+03  0.00000000000E+00 0.  1.
         -1   -1    0    0    0  501 -0.00000000000E+00 -0.00000000000E+00 -0.63993729372E+02  0.63993729372E+02  0.00000000000E+00 0. -1.
         23    2    1    2    0    0 -0.23415614961E+02 -0.19946871671E+02  0.11319043063E+03  0.14854068262E+03  0.91137764374E+02 0.  0.
          5    1    1    2  502    0  0.34874626988E+02 -0.18662654265E+02  0.74675030686E+02  0.84607132558E+02  0.41800000000E+01 0. -1.
         -5    1    1    2    0  502 -0.11459012027E+02  0.38609525935E+02 -0.31440970487E+02  0.51264134390E+02  0.41800000000E+01 0. -1.
        -11    1    3    3    0    0  0.31904504022E+02 -0.14368140737E+01  0.66681245539E+02  0.73934770699E+02  0.00000000000E+00 0.  1.
         11    1    3    3    0    0 -0.55320118983E+02 -0.18510057597E+02  0.46509185089E+02  0.74605911925E+02  0.00000000000E+00 0. -1.
</event>
<event>
 7    1  0.4687179E-006  0.1093342E+03  0.7561462E-02  0.1261808E+00
          2   -1    0    0  501    0  0.00000000000E+00  0.00000000000E+00  0.33904483310E+03  0.33904483310E+03  0.00000000000E+00 0. -1.
         -2   -1    0    0    0  501 -0.00000000000E+00 -0.00000000000E+00 -0.48595388828E+02  0.48595388828E+02  0.00000000000E+00 0.  1.
         23    2    1    2    0    0 -0.22528409971E+02 -0.61447464621E+02  0.11656325272E+03  0.16365776381E+03  0.94411607374E+02 0.  0.
          5    1    1    2  502    0  0.45340533332E+02 -0.15436965444E+02  0.23537856698E+02  0.53530990677E+02  0.41800000000E+01 0. -1.
         -5    1    1    2    0  502 -0.22812123361E+02  0.76884430065E+02  0.15034833485E+03  0.17045146744E+03  0.41800000000E+01 0. -1.
        -11    1    3    3    0    0 -0.33441575355E+02 -0.69227332642E+02  0.12576341379E+03  0.14740148844E+03  0.00000000000E+00 0. -1.
         11    1    3    3    0    0  0.10913165384E+02  0.77798680210E+01 -0.92001610716E+01  0.16256275369E+02  0.00000000000E+00 0.  1.
</event>
<event>
 7    1  0.4687179E-006  0.1112331E+03  0.7561462E-02  0.1258303E+00
         -1   -1    0    0    0  501 -0.00000000000E+00  0.00000000000E+00  0.78189251163E+02  0.78189251163E+02  0.00000000000E+00 0.  1.
          1   -1    0    0  501    0  0.00000000000E+00 -0.00000000000E+00 -0.20425047656E+03  0.20425047656E+03  0.00000000000E+00 0. -1.
         23    2    1    2    0    0 -0.31105267188E+01  0.64389690835E+02 -0.85761831164E+02  0.14806838341E+03  0.10204629743E+03 0.  0.
          5    1    1    2  502    0  0.19505841927E+02  0.13612098276E+02 -0.48455101503E+02  0.54139969990E+02  0.41800000000E+01 0. -1.
         -5    1    1    2    0  502 -0.16395315208E+02 -0.78001789111E+02  0.81557072668E+01  0.80231374326E+02  0.41800000000E+01 0.  1.
        -11    1    3    3    0    0 -0.50267715254E+02  0.45155379326E+02 -0.62629999477E+02  0.92132341300E+02  0.00000000000E+00 0. -1.
         11    1    3    3    0    0  0.47157188535E+02  0.19234311509E+02 -0.23131831687E+02  0.55936042110E+02  0.00000000000E+00 0.  1.
</event>
<event>
 7    1  0.4687179E-006  0.1332484E+03  0.7561462E-02  0.1222714E+00
         -2   -1    0    0    0  501 -0.00000000000E+00  0.00000000000E+00  0.47334939625E+03  0.47334939625E+03  0.00000000000E+00 0.  1.
          2   -1    0    0  501    0  0.00000000000E+00 -0.00000000000E+00 -0.43812764822E+02  0.43812764822E+02  0.00000000000E+00 0. -1.
         23    2    1    2    0    0  0.48957029158E+02  0.81024437714E+02  0.21567303838E+03  0.25193236455E+03  0.89405294106E+02 0.  0.
          5    1    1    2  502    0 -0.44865223328E+02 -0.11010804187E+03  0.19947305400E+03  0.23225770347E+03  0.41800000000E+01 0.  1.
         -5    1    1    2    0  502 -0.40918058299E+01  0.29083604158E+02  0.14390539046E+02  0.32972093046E+02  0.41800000000E+01 0.  1.
        -11    1    3    3    0    0 -0.15477838037E+02  0.36191210187E+02  0.27426050998E+02  0.47974529059E+02  0.00000000000E+00 0. -1.
         11    1    3    3    0    0  0.64434867195E+02  0.44833227527E+02  0.18824698738E+03  0.20395783549E+03  0.00000000000E+00 0.  1.
</event>
<event>
 7    1  0.4687179E-006  0.9540059E+02  0.7561462E-02  0.1290276E+00
         -1   -1    0    0    0  501 -0.00000000000E+00  0.00000000000E+00  0.10189778506E+03  0.10189778506E+03  0.00000000000E+00 0.  1.
          1   -1    0    0  501    0  0.00000000000E+00 -0.00000000000E+00 -0.14626231873E+03  0.14626231873E+03  0.00000000000E+00 0. -1.
         23    2    1    2    0    0  0.28509931356E+02 -0.48030787708E+02 -0.26829784387E+02  0.11004944811E+03  0.90946527945E+02 0.  0.
          5    1    1    2  502    0  0.15145720886E+02  0.45282920305E+02  0.42263891782E+02  0.63903401170E+02  0.41800000000E+01 0.  1.
         -5    1    1    2    0  502 -0.43655652241E+02  0.27478674028E+01 -0.59798641071E+02  0.74207254510E+02  0.41800000000E+01 0.  1.
        -11    1    3    3    0    0  0.40387230691E+02 -0.66007260181E+02 -0.37518040080E+02  0.85998198416E+02  0.00000000000E+00 0. -1.
         11    1    3    3    0    0 -0.11877299335E+02  0.17976472473E+02  0.10688255693E+02  0.24051249693E+02  0.00000000000E+00 0.  1.
</event>
<event>
 7    1  0.4687179E-006  0.9279242E+02  0.7561462E-02  0.1296227E+00
          1   -1    0    0  501    0  0.00000000000E+00  0.00000000000E+00  0.27107108245E+03  0.27107108245E+03  0.00000000000E+00 0. -1.
         -1   -1    0    0    0  501 -0.00000000000E+00 -0.00000000000E+00 -0.48071354825E+02  0.48071354825E+02  0.00000000000E+00 0.  1.
         23    2    1    2    0    0  0.18706300249E+02 -0.13909321800E+02  0.13549585933E+03  0.16471522848E+03  0.90711541138E+02 0.  0.
          5    1    1    2  502    0  0.17432112610E+02 -0.47148783370E+02  0.59578417503E+02  0.78063733932E+02  0.41800000000E+01 0.  1.
         -5    1    1    2    0  502 -0.36138412859E+02  0.61058105170E+02  0.27925450788E+02  0.76363474860E+02  0.41800000000E+01 0.  1.
        -11    1    3    3    0    0  0.32009793496E+02 -0.29530293078E+02  0.20916456883E+02  0.48313178921E+02  0.00000000000E+00 0.  1.
         11    1    3    3    0    0 -0.13303493247E+02  0.15620971278E+02  0.11457940245E+03  0.11640204956E+03  0.00000000000E+00 0. -1.
</event>
<event>
 7    1  0.4687179E-006  0.1072081E+03  0.7561462E-02  0.1265829E+00
          1   -1    0    0  501    0  0.00000000000E+00  0.00000000000E+00  0.86571091834E+03  0.86571091834E+03  0.00000000000E+00 0. -1.
         -1   -1    0    0    0  501 -0.00000000000E+00 -0.00000000000E+00 -0.13699485217E+02  0.13699485217E+02  0.00000000000E+00 0.  1.
         23    2    1    2    0    0  0.40876590359E+01  0.41037446670E+01  0.36427829747E+03  0.37585977415E+03  0.92403150052E+02 0.  0.
          5    1    1    2  502    0 -0.67393939823E+01 -0.64216127953E+02  0.23823711270E+03  0.24686742350E+03  0.41800000000E+01 0. -1.
         -5    1    1    2    0  502  0.26517349464E+01  0.60112383286E+02  0.24949602295E+03  0.25668320589E+03  0.41800000000E+01 0. -1.
        -11    1    3    3    0    0  0.46143582329E+02 -0.48502335460E+01  0.13973663555E+03  0.14723818211E+03  0.00000000000E+00 0. -1.
         11    1    3    3    0    0 -0.42055923293E+02  0.89539782130E+01  0.22454166193E+03  0.22862159205E+03  0.00000000000E+00 0.  1.
</event>
<event>
 7    1  0.4687179E-006  0.3800616E+03  0.7561462E-02  0.1050911E+00
         -1   -1    0    0    0  501 -0.00000000000E+00  0.00000000000E+00  0.58571502251E+03  0.58571502251E+03  0.00000000000E+00 0.  1.
          1   -1    0    0  501    0  0.00000000000E+00 -0.00000000000E+00 -0.37553938322E+03  0.37553938322E+03  0.00000000000E+00 0. -1.
         23    2    1    2    0    0 -0.31440888207E+03 -0.19684162335E+03 -0.16824356960E+03  0.41678985382E+03  0.88364663350E+02 0.  0.
          5    1    1    2  502    0  0.18272352533E+03  0.16971587704E+03  0.19288947213E+03  0.31530173879E+03  0.41800000000E+01 0. -1.
         -5    1    1    2    0  502  0.13168535674E+03  0.27125746310E+02  0.18552973677E+03  0.22916281312E+03  0.41800000000E+01 0. -1.
        -11    1    3    3    0    0 -0.11385959605E+03 -0.36951776610E+02 -0.22544126000E+02  0.12181001200E+03  0.00000000000E+00 0.  1.
         11    1    3    3    0    0 -0.20054928602E+03 -0.15988984674E+03 -0.14569944360E+03  0.29497984182E+03  0.00000000000E+00 0. -1.
</event>
<event>
 7    1  0.4687179E-006  0.8487249E+02  0.7561462E-02  0.1315766E+00
         -1   -1    0    0    0  501 -0.00000000000E+00  0.00000000000E+00  0.33746280549E+02  0.33746280549E+02  0.00000000000E+00 0.  1.
          1   -1    0    0  501    0  0.00000000000E+00 -0.00000000000E+00 -0.44594635215E+03  0.44594635215E+03  0.00000000000E+00 0. -1.
         23    2    1    2    0    0 -0.75488409120E+01  0.43255135875E+02 -0.25297462991E+03  0.27250088854E+03  0.91282961712E+02 0.  0.
          5    1    1    2  502    0  0.55744847708E+02 -0.17818203459E+02 -0.13540419900E+03  0.14756946136E+03  0.41800000000E+01 0. -1.
         -5    1    1    2    0  502 -0.48196006796E+02 -0.25436932416E+02 -0.23821242687E+02  0.59622282790E+02  0.41800000000E+01 0. -1.
        -11    1    3    3    0    0  0.10991147426E+02  0.19801567333E+01  0.37794667319E+01  0.11790280370E+02  0.00000000000E+00 0.  1.
         11    1    3    3    0    0 -0.18539988338E+02  0.41274979142E+02 -0.25675409664E+03  0.26071060817E+03  0.00000000000E+00 0. -1.
</event>
<event>
 7    1  0.4687179E-006  0.2072498E+03  0.7561462E-02  0.1143763E+00
         -2   -1    0    0    0  501 -0.00000000000E+00  0.00000000000E+00  0.10726078651E+03  0.10726078651E+03  0.00000000000E+00 0.  1.
          2   -1    0    0  501    0  0.00000000000E+00 -0.00000000000E+00 -0.75057886160E+03  0.75057886160E+03  0.00000000000E+00 0. -1.
         23    2    1    2    0    0 -0.71678216453E+02  0.18787780046E+03 -0.56896146932E+03  0.60962262084E+03  0.86526017222E+02 0.  0.
          5    1    1    2  502    0  0.84821069885E+02 -0.15116015862E+03 -0.10113694521E+03  0.20072409307E+03  0.41800000000E+01 0.  1.
         -5    1    1    2    0  502 -0.13142853432E+02 -0.36717641836E+02  0.26780339440E+02  0.47492934200E+02  0.41800000000E+01 0.  1.
        -11    1    3    3    0    0 -0.43334864702E+02  0.88281698373E+02 -0.39603605927E+03  0.40806387859E+03  0.00000000000E+00 0. -1.
         11    1    3    3    0    0 -0.28343351751E+02  0.99596102084E+02 -0.17292541004E+03  0.20155874225E+03  0.00000000000E+00 0.  1.
</event>
<event>
 7    1  0.4687179E-006  0.1218302E+03  0.7561462E-02  0.1240108E+00
         -1   -1    0    0    0  501 -0.00000000000E+00  0.00000000000E+00  0.30952884414E+03  0.30952884414E+03  0.00000000000E+00 0.  1.
          1   -1    0    0  501    0  0.00000000000E+00 -0.00000000000E+00 -0.52862574459E+02  0.52862574459E+02  0.00000000000E+00 0. -1.
         23    2    1    2    0    0  0.52763755934E+02 -0.17182949013E+02  0.59616407273E+02  0.12248354341E+03  0.91481335324E+02 0.  0.
          5    1    1    2  502    0 -0.82293490954E+02 -0.24002609799E+02  0.11784799853E+03  0.14578740374E+03  0.41800000000E+01 0. -1.
         -5    1    1    2    0  502  0.29529735020E+02  0.41185558811E+02  0.79201863876E+02  0.94120471452E+02  0.41800000000E+01 0. -1.
        -11    1    3    3    0    0 -0.21080309170E+01 -0.45286884167E+02  0.26078968577E+02  0.52301608713E+02  0.00000000000E+00 0. -1.
         11    1    3    3    0    0  0.54871786851E+02  0.28103935154E+02  0.33537438696E+02  0.70181934696E+02  0.00000000000E+00 0.  1.
</event>
<event>
 7    1  0.4687179E-006  0.8973284E+02  0.7561462E-02  0.1303500E+00
         -3   -1    0    0    0  501 -0.00000000000E+00  0.00000000000E+00  0.49595882943E+02  0.49595882943E+02  0.00000000000E+00 0.  1.
          3   -1    0    0  501    0  0.00000000000E+00 -0.00000000000E+00 -0.34402365155E+03  0.34402365155E+03  0.00000000000E+00 0. -1.
         23    2    1    2    0    0 -0.38285795413E+02 -0.24930847078E+02 -0.21789656123E+03  0.24004733218E+03  0.89757790886E+02 0.  0.
          5    1    1    2  502    0 -0.39699499303E+02 -0.34893421023E+01 -0.54405580939E+02  0.67569707640E+02  0.41800000000E+01 0. -1.
         -5    1    1    2    0  502  0.77985294716E+02  0.28420189181E+02 -0.22125626441E+02  0.86002494676E+02  0.41800000000E+01 0. -1.
        -11    1    3    3    0    0 -0.14718975928E+02  0.72434555569E+01  0.20335976864E+01  0.16530318216E+02  0.00000000000E+00 0.  1.
         11    1    3    3    0    0 -0.23566819486E+02 -0.32174302635E+02 -0.21993015892E+03  0.22351701397E+03  0.00000000000E+00 0. -1.
</event>
<event>
 7    1  0.4687179E-006  0.8518173E+02  0.7561462E-02  0.1314958E+00
         -1   -1    0    0    0  501 -0.00000000000E+00  0.00000000000E+00  0.29967261495E+03  0.29967261495E+03  0.00000000000E+00 0.  1.
          1   -1    0    0  501    0  0.00000000000E+00 -0.00000000000E+00 -0.55467850771E+02  0.55467850771E+02  0.00000000000E+00 0. -1.
         23    2    1    2    0    0 -0.50106800973E+02  0.23989307291E+02  0.49882243768E+02  0.11745362808E+03  0.90669389195E+02 0.  0.
          5    1    1    2  502    0  0.53594465701E+02 -0.50884722086E+02  0.46668382539E+02  0.87504468596E+02  0.41800000000E+01 0.  1.
         -5    1    1    2    0  502 -0.34876647275E+01  0.26895414795E+02  0.14765413787E+03  0.15018236904E+03  0.41800000000E+01 0.  1.
        -11    1    3    3    0    0  0.62376179556E+01  0.83584561433E+01  0.57543958801E+02  0.58481440316E+02  0.00000000000E+00 0.  1.
         11    1    3    3    0    0 -0.56344418929E+02  0.15630851147E+02 -0.76617150333E+01  0.58972187761E+02  0.00000000000E+00 0. -1.
</event>
<event>
 7    1  0.4687179E-006  0.1247954E+03  0.7561462E-02  0.1235389E+00
         -2   -1    0    0    0  501 -0.00000000000E+00  0.00000000000E+00  0.20631296659E+02  0.20631296659E+02  0.00000000000E+00 0. -1.
          2   -1    0    0  501    0  0.00000000000E+00 -0.00000000000E+00 -0.97047968261E+03  0.97047968261E+03  0.00000000000E+00 0.  1.
         23    2    1    2    0    0  0.67204330060E+01  0.89644145900E+02 -0.39874460373E+03  0.41888355445E+03  0.91569296550E+02 0.  0.
          5    1    1    2  502    0 -0.22711321532E+02 -0.10189766812E+03 -0.53750270283E+03  0.54756329939E+03  0.41800000000E+01 0.  1.
         -5    1    1    2    0  502  0.15990888526E+02  0.12253522217E+02 -0.13601079399E+02  0.24664125434E+02  0.41800000000E+01 0.  1.
        -11    1    3    3    0    0 -0.22875631881E+01  0.10591314230E+03 -0.29407220359E+03  0.31257205182E+03  0.00000000000E+00 0. -1.
         11    1    3    3    0    0  0.90079961940E+01 -0.16268996401E+02 -0.10467240014E+03  0.10631150263E+03  0.00000000000E+00 0.  1.
</event>
<event>
 7    1  0.4687179E-006  0.1187194E+03  0.7561462E-02  0.1245225E+00
          2   -1    0    0  501    0  0.00000000000E+00  0.00000000000E+00  0.64496610599E+02  0.64496610599E+02  0.00000000000E+00 0. -1.
         -2   -1    0    0    0  501 -0.00000000000E+00 -0.00000000000E+00 -0.33293382382E+03  0.33293382382E+03  0.00000000000E+00 0.  1.
         23    2    1    2    0    0  0.13359225818E+02 -0.61783122477E+02 -0.22354819166E+02  0.11423593171E+03  0.92490469863E+02 0.  0.
          5    1    1    2  502    0 -0.48378967329E+02  0.83830590455E+02 -0.15090862234E+03  0.17932924210E+03  0.41800000000E+01 0. -1.
         -5    1    1    2    0  502  0.35019741511E+02 -0.22047467978E+02 -0.95173771713E+02  0.10386526061E+03  0.41800000000E+01 0. -1.
        -11    1    3    3    0    0 -0.31649194923E+02 -0.19265204258E+02  0.17111111350E+02  0.40811882657E+02  0.00000000000E+00 0. -1.
         11    1    3    3    0    0  0.45008420742E+02 -0.42517918219E+02 -0.39465930516E+02  0.73424049050E+02  0.00000000000E+00 0.  1.
</event>
<event>
 7    1  0.4687179E-006  0.1592863E+03  0.7561462E-02  0.1189505E+00
          2   -1    0    0  501    0  0.00000000000E+00  0.00000000000E+00  0.11784417658E+04  0.11784417658E+04  0.00000000000E+00 0. -1.
         -2   -1    0    0    0  501 -0.00000000000E+00 -0.00000000000E+00 -0.25660007148E+02  0.25660007148E+02  0.00000000000E+00 0.  1.
         23    2    1    2    0    0 -0.98697417970E+02 -0.86002628790E+02  0.66581279595E+03  0.68456003171E+03  0.90432987872E+02 0.  0.
          5    1    1    2  502    0  0.61137993805E+02 -0.56539283838E+01  0.81483179158E+02  0.10211171372E+03  0.41800000000E+01 0. -1.
         -5    1    1    2    0  502  0.37559424165E+02  0.91656557174E+02  0.40548578357E+03  0.41743002754E+03  0.41800000000E+01 0. -1.
        -11    1    3    3    0    0 -0.87216940766E+02 -0.18166301614E+02  0.33307716892E+03  0.34478574467E+03  0.00000000000E+00 0.  1.
         11    1    3    3    0    0 -0.11480477204E+02 -0.67836327176E+02  0.33273562703E+03  0.33977428704E+03  0.00000000000E+00 0. -1.
</event>
<event>
 7    1  0.4687179E-006  0.1920613E+03  0.7561462E-02  0.1156615E+00
         -1   -1    0    0    0  501 -0.00000000000E+00  0.00000000000E+00  0.22076651766E+03  0.22076651766E+03  0.00000000000E+00 0.  1.
          1   -1    0    0  501    0  0.00000000000E+00 -0.00000000000E+00 -0.21474174278E+03  0.21474174278E+03  0.00000000000E+00 0. -1.
         23    2    1    2    0    0  0.16786493016E+03 -0.80691596683E+02  0.31960529386E+02  0.20965446652E+03  0.90795106371E+02 0.  0.
          5    1    1    2  502    0 -0.81964647534E+02  0.58067752854E+02  0.46869176705E+02  0.11092456667E+03  0.41800000000E+01 0. -1.
         -5    1    1    2    0  502 -0.85900282626E+02  0.22623843829E+02 -0.72804931220E+02  0.11492922724E+03  0.41800000000E+01 0. -1.
        -11    1    3    3    0    0  0.10825120482E+03 -0.20946919051E+02 -0.17787260411E+02  0.11168475006E+03  0.00000000000E+00 0.  1.
         11    1    3    3    0    0  0.59613725341E+02 -0.59744677632E+02  0.49747789797E+02  0.97969716464E+02  0.00000000000E+00 0. -1.
</event>
<event>
 7    1  0.4687179E-006  0.1271544E+03  0.7561462E-02  0.1231740E+00
         -1   -1    0    0    0  501 -0.00000000000E+00  0.00000000000E+00  0.89120888203E+03  0.89120888203E+03  0.00000000000E+00 0.  1.
          1   -1    0    0  501    0  0.00000000000E+00 -0.00000000000E+00 -0.28923640337E+02  0.28923640337E+02  0.00000000000E+00 0. -1.
         23    2    1    2    0    0  0.10408613487E+03 -0.21461954532E+02  0.30306673752E+03  0.33732284660E+03  0.10316354240E+03 0.  0.
          5    1    1    2  502    0 -0.84116884663E+02  0.20786151195E+02  0.55528599385E+03  0.56202110435E+03  0.41800000000E+01 0.  1.
         -5    1    1    2    0  502 -0.19969250209E+02  0.67580333737E+00  0.39325103168E+01  0.20788571415E+02  0.41800000000E+01 0.  1.
        -11    1    3    3    0    0  0.57220240124E+02  0.40030031311E+02  0.16311950792E+03  0.17743881523E+03  0.00000000000E+00 0.  1.
         11    1    3    3    0    0  0.46865894748E+02 -0.61491985843E+02  0.13994722960E+03  0.15988403137E+03  0.00000000000E+00 0. -1.
</event>
<event>
 7    1  0.4687179E-006  0.6737845E+02  0.7561462E-02  0.1369242E+00
          1   -1    0    0  501    0  0.00000000000E+00  0.00000000000E+00  0.23153882768E+02  0.23153882768E+02  0.00000000000E+00 0. -1.
         -1   -1    0    0    0  501 -0.00000000000E+00 -0.00000000000E+00 -0.71440640457E+03  0.71440640457E+03  0.00000000000E+00 0.  1.
         23    2    1    2    0    0 -0.50153697757E+02  0.10240532528E+02 -0.17786913340E+03  0.20668308794E+03  0.91979390722E+02 0.  0.
          5    1    1    2  502    0  0.32943385719E+02 -0.37973795104E+02 -0.70045904135E+02  0.86320199625E+02  0.41800000000E+01 0. -1.
         -5    1    1    2    0  502  0.17210312037E+02  0.27733262576E+02 -0.44333748426E+03  0.44455699977E+03  0.41800000000E+01 0. -1.
        -11    1    3    3    0    0 -0.33775942359E+02  0.91399821388E+01 -0.18536444456E+03  0.18863809494E+03  0.00000000000E+00 0.  1.
         11    1    3    3    0    0 -0.16377755397E+02  0.11005503890E+01  0.74953111565E+01  0.18044992999E+02  0.00000000000E+00 0. -1.
</event>
<event>
 7    1  0.4687179E-006  0.8116507E+02  0.7561462E-02  0.1325777E+00
         -2   -1    0    0    0  501 -0.00000000000E+00  0.00000000000E+00  0.43294306466E+02  0.43294306466E+02  0.00000000000E+00 0.  1.
          2   -1    0    0  501    0  0.00000000000E+00 -0.00000000000E+00 -0.34821431931E+03  0.34821431931E+03  0.00000000000E+00 0. -1.
         23    2    1    2    0    0  0.12250705721E+02 -0.39625055881E+02 -0.21016908377E+03  0.22920026585E+03  0.81495357227E+02 0.  0.
          5    1    1    2  502    0  0.21386034958E+02  0.27051904316E+02  0.21306464760E+02  0.40750532008E+02  0.41800000000E+01 0. -1.
         -5    1    1    2    0  502 -0.33636740679E+02  0.12573151566E+02 -0.11605739384E+03  0.12155782792E+03  0.41800000000E+01 0. -1.
        -11    1    3    3    0    0  0.41276137810E+02  0.12662957346E+01 -0.94305775071E+02  0.10295097022E+03  0.00000000000E+00 0.  1.
         11    1    3    3    0    0 -0.29025432090E+02 -0.40891351616E+02 -0.11586330869E+03  0.12624929563E+03  0.00000000000E+00 0. -1.
</event>
<event>
 7    1  0.4687179E-006  0.1289567E+03  0.7561462E-02  0.1229012E+00
         -2   -1    0    0    0  501 -0.00000000000E+00  0.00000000000E+00  0.47990681964E+02  0.47990681964E+02  0.00000000000E+00 0.  1.
          2   -1    0    0  501    0  0.00000000000E+00 -0.00000000000E+00 -0.40169355096E+03  0.40169355096E+03  0.00000000000E+00 0. -1.
         23    2    1    2    0    0 -0.13292693334E+02  0.72251676241E+02 -0.20517459700E+03  0.24206776128E+03  0.10537165359E+03 0.  0.
          5    1    1    2  502    0 -0.20245440436E+02  0.29904625600E+02 -0.49228659558E+02  0.61197204287E+02  0.41800000000E+01 0.  1.
         -5    1    1    2    0  502  0.33538133770E+02 -0.10215630184E+03 -0.99299612431E+02  0.14641926735E+03  0.41800000000E+01 0.  1.
        -11    1    3    3    0    0  0.20750917602E+02  0.76851939124E+02 -0.18692244225E+03  0.20316697701E+03  0.00000000000E+00 0. -1.
         11    1    3    3    0    0 -0.34043610936E+02 -0.46002628830E+01 -0.18252154751E+02  0.38900784275E+02  0.00000000000E+00 0.  1.
</event>
<event>
 7    1  0.4687179E-006  0.1164908E+03  0.7561462E-02  0.1249001E+00
          1   -1    0    0  501    0  0.00000000000E+00  0.00000000000E+00  0.18649928121E+03  0.18649928121E+03  0.00000000000E+00 0. -1.
         -1   -1    0    0    0  501 -0.00000000000E+00 -0.00000000000E+00 -0.11911025183E+03  0.11911025183E+03  0.00000000000E+00 0.  1.
         23    2    1    2    0    0 -0.89418344778E+02  0.20308131321E+02  0.71067724153E+02  0.15046964533E+03  0.95825008051E+02 0.  0.
          5    1    1    2  502    0  0.51181026907E+02  0.40952485666E+02 -0.37123458317E+02  0.75446849867E+02  0.41800000000E+01 0. -1.
         -5    1    1    2    0  502  0.38237317871E+02 -0.61260616987E+02  0.33444763547E+02  0.79693037841E+02  0.41800000000E+01 0. -1.
        -11    1    3    3    0    0 -0.21798874308E+02  0.16313230321E+02 -0.22247819962E+02  0.35160743702E+02  0.00000000000E+00 0.  1.
         11    1    3    3    0    0 -0.67619470470E+02  0.39949009997E+01  0.93315544114E+02  0.11530890162E+03  0.00000000000E+00 0. -1.
</event>
<event>
 7    1  0.4687179E-006  0.9407630E+02  0.7561462E-02  0.1293270E+00
         -4   -1    0    0    0  501 -0.00000000000E+00  0.00000000000E+00  0.43375888546E+03  0.43375888546E+03  0.00000000000E+00 0.  1.
          4   -1    0    0  501    0  0.00000000000E+00 -0.00000000000E+00 -0.40995758185E+02  0.40995758185E+02  0.00000000000E+00 0. -1.
         23    2    1    2    0    0  0.30494530019E+02 -0.52550332526E+02  0.90643011565E+02  0.14216435962E+03  0.91121324575E+02 0.  0.
          5    1    1    2  502    0 -0.30145141783E+02  0.61747926039E+02  0.63185891758E+02  0.93442309799E+02  0.41800000000E+01 0. -1.
         -5    1    1    2    0  502 -0.34938823617E+00 -0.91975935129E+01  0.23893422395E+03  0.23914797422E+03  0.41800000000E+01 0. -1.
        -11    1    3    3    0    0  0.62681502866E+02 -0.27650807941E+02  0.62021161405E+02  0.92412999320E+02  0.00000000000E+00 0. -1.
         11    1    3    3    0    0 -0.32186972847E+02 -0.24899524585E+02  0.28621850159E+02  0.49751360304E+02  0.00000000000E+00 0.  1.
</event>
<event>
 7    1  0.4687179E-006  0.1090132E+03  0.7561462E-02  0.1262408E+00
         -2   -1    0    0    0  501 -0.00000000000E+00  0.00000000000E+00  0.75788649414E+02  0.75788649414E+02  0.00000000000E+00 0.  1.
          2   -1    0    0  501    0  0.00000000000E+00 -0.00000000000E+00 -0.20911974446E+03  0.20911974446E+03  0.00000000000E+00 0. -1.
         23    2    1    2    0    0 -0.44342030503E+02 -0.35259171028E+02 -0.27302479057E+02  0.11141761792E+03  0.91973014572E+02 0.  0.
          5    1    1    2  502    0 -0.28397911330E+02 -0.19924240501E+01 -0.83935443588E+02  0.88730165175E+02  0.41800000000E+01 0. -1.
         -5    1    1    2    0  502  0.72739941833E+02  0.37251595078E+02 -0.22093172406E+02  0.84760610785E+02  0.41800000000E+01 0. -1.
        -11    1    3    3    0    0  0.24748972694E+02 -0.28886245873E+02 -0.15313000847E+02  0.41005058773E+02  0.00000000000E+00 0. -1.
         11    1    3    3    0    0 -0.69091003196E+02 -0.63729251550E+01 -0.11989478209E+02  0.70412559146E+02  0.00000000000E+00 0.  1.
</event>
<event>
 7    1  0.4687179E-006  0.1938779E+03  0.7561462E-02  0.1155010E+00
          1   -1    0    0  501    0  0.00000000000E+00  0.00000000000E+00  0.13598435941E+03  0.13598435941E+03  0.00000000000E+00 0. -1.
         -1   -1    0    0    0  501 -0.00000000000E+00 -0.00000000000E+00 -0.30932398570E+03  0.30932398570E+03  0.00000000000E+00 0.  1.
         23    2    1    2    0    0 -0.15724190324E+03  0.43662665061E+02 -0.18071192398E+02  0.18765167923E+03  0.90857802455E+02 0.  0.
          5    1    1    2  502    0  0.25498898718E+02 -0.66336217602E+02 -0.44110350592E+02  0.83748928536E+02  0.41800000000E+01 0. -1.
         -5    1    1    2    0  502  0.13174300452E+03  0.22673552541E+02 -0.11115808330E+03  0.17390773735E+03  0.41800000000E+01 0. -1.
        -11    1    3    3    0    0  0.10092909207E+02  0.39392076179E+01  0.83108447776E+01  0.13654827492E+02  0.00000000000E+00 0.  1.
         11    1    3    3    0    0 -0.16733481245E+03  0.39723457443E+02 -0.26382037175E+02  0.17399685174E+03  0.00000000000E+00 0. -1.
</event>
<event>
 7    1  0.4687179E-006  0.2040810E+03  0.7561462E-02  0.1146341E+00
         -1   -1    0    0    0  501 -0.00000000000E+00  0.00000000000E+00  0.99127726504E+02  0.99127726504E+02  0.00000000000E+00 0.  1.
          1   -1    0    0  501    0  0.00000000000E+00 -0.00000000000E+00 -0.46223889743E+03  0.46223889743E+03  0.00000000000E+00 0. -1.
         23    2    1    2    0    0 -0.18123488750E+03  0.19165342520E+02 -0.14726585122E+03  0.25241667318E+03  0.93880515349E+02 0.  0.
          5    1    1    2  502    0  0.58762622781E+02  0.45407175534E+02 -0.11753495314E+03  0.13909275695E+03  0.41800000000E+01 0. -1.
         -5    1    1    2    0  502  0.12247226472E+03 -0.64572518055E+02 -0.98310366572E+02  0.16985719381E+03  0.41800000000E+01 0. -1.
        -11    1    3    3    0    0 -0.34219612071E+02  0.33079733934E+02 -0.72939274579E+02  0.87094135414E+02  0.00000000000E+00 0. -1.
         11    1    3    3    0    0 -0.14701527543E+03 -0.13914391414E+02 -0.74326576641E+02  0.16532253777E+03  0.00000000000E+00 0.  1.
</event>
<event>
 7    1  0.4687179E-006  0.1696298E+03  0.7561462E-02  0.1178234E+00
         -4   -1    0    0    0  501 -0.00000000000E+00  0.00000000000E+00  0.24080032374E+03  0.24080032374E+03  0.00000000000E+00 0.  1.
          4   -1    0    0  501    0  0.00000000000E+00 -0.00000000000E+00 -0.21943108772E+03  0.21943108772E+03  0.00000000000E+00 0. -1.
         23    2    1    2    0    0 -0.74315681225E+02 -0.12640426345E+03 -0.12963725604E+03  0.21538889030E+03  0.89920507219E+02 0.  0.
          5    1    1    2  502    0 -0.16666585776E+02  0.36781287254E+02 -0.74597694246E+01  0.41276612426E+02  0.41800000000E+01 0. -1.
         -5    1    1    2    0  502  0.90982267001E+02  0.89622976197E+02  0.15846626149E+03  0.20356590874E+03  0.41800000000E+01 0. -1.
        -11    1    3    3    0    0 -0.78034461232E+02 -0.46388753764E+02 -0.81084562835E+02  0.12172099221E+03  0.00000000000E+00 0. -1.
         11    1    3    3    0    0  0.37187800067E+01 -0.80015509686E+02 -0.48552693206E+02  0.93667898090E+02  0.00000000000E+00 0.  1.
</event>
<event>
 7    1  0.4687179E-006  0.8004588E+02  0.7561462E-02  0.1328921E+00
          4   -1    0    0  501    0  0.00000000000E+00  0.00000000000E+00  0.10274846987E+03  0.10274846987E+03  0.00000000000E+00 0.  1.
         -4   -1    0    0    0  501 -0.00000000000E+00 -0.00000000000E+00 -0.15841284536E+03  0.15841284536E+03  0.00000000000E+00 0. -1.
         23    2    1    2    0    0  0.22463999430E+02 -0.43236311624E+02  0.27857635041E+02  0.10305741981E+03  0.86433639480E+02 0.  0.
          5    1    1    2  502    0  0.76309403607E+01  0.43730826348E+02 -0.10943360434E+03  0.11816853466E+03  0.41800000000E+01 0. -1.
         -5    1    1    2    0  502 -0.30094939791E+02 -0.49451472377E+00  0.25911593809E+02  0.39935360767E+02  0.41800000000E+01 0. -1.
        -11    1    3    3    0    0  0.15434436778E+02 -0.62621487925E+02  0.42964022273E+02  0.77495675998E+02  0.00000000000E+00 0.  1.
         11    1    3    3    0    0  0.70295626519E+01  0.19385176301E+02 -0.15106387232E+02  0.25561743807E+02  0.00000000000E+00 0. -1.
</event>
<event>
 7    1  0.4687179E-006  0.9636161E+02  0.7561462E-02  0.1288139E+00
         -1   -1    0    0    0  501 -0.00000000000E+00  0.00000000000E+00  0.35707989500E+02  0.35707989500E+02  0.00000000000E+00 0.  1.
          1   -1    0    0  501    0  0.00000000000E+00 -0.00000000000E+00 -0.34216098016E+03  0.34216098016E+03  0.00000000000E+00 0. -1.
         23    2    1    2    0    0  0.57055206389E+01  0.17885610462E+02 -0.14677064311E+03  0.17415746401E+03  0.91851796737E+02 0.  0.
          5    1    1    2  502    0  0.29004155498E+02 -0.45941387055E+02 -0.14752369999E+03  0.15726591029E+03  0.41800000000E+01 0. -1.
         -5    1    1    2    0  502 -0.34709676137E+02  0.28055776593E+02 -0.12158647559E+02  0.46445595359E+02  0.41800000000E+01 0. -1.
        -11    1    3    3    0    0  0.48687228627E+02  0.10133991960E+02 -0.70660906957E+02  0.86406642086E+02  0.00000000000E+00 0. -1.
         11    1    3    3    0    0 -0.42981707989E+02  0.77516185023E+01 -0.76109736150E+02  0.87750821921E+02  0.00000000000E+00 0.  1.
</event>
<event>
 7    1  0.8657529E-006  0.2571711E+03  0.7561462E-02  0.1108855E+00
          2   -1    0    0  501    0  0.00000000000E+00  0.00000000000E+00  0.71120066793E+03  0.71120066793E+03  0.00000000000E+00 0. -1.
         -2   -1    0    0    0  501 -0.00000000000E+00 -0.00000000000E+00 -0.98588102074E+02  0.98588102074E+02  0.00000000000E+00 0.  1.
         23    2    1    2    0    0 -0.10358083022E+03 -0.21404252663E+03  0.37083781805E+03  0.44833924204E+03  0.83331849030E+02 0.  0.
          5    1    1    2  502    0  0.25535896259E+02 -0.83572914035E+01  0.52535508152E+02  0.59155543563E+02  0.41800000000E+01 0.  1.
         -5    1    1    2    0  502  0.78044933957E+02  0.22239981804E+03  0.18923923966E+03  0.30229398440E+03  0.41800000000E+01 0.  1.
        -11    1    3    3    0    0 -0.11198765007E+03 -0.15195602627E+03  0.26520481395E+03  0.32552336480E+03  0.00000000000E+00 0. -1.
         11    1    3    3    0    0  0.84068198561E+01 -0.62086500363E+02  0.10563300410E+03  0.12281587725E+03  0.00000000000E+00 0.  1.
</event>
<event>
 7    1  0.4687179E-006  0.8780169E+02  0.7561462E-02  0.1308264E+00
          2   -1    0    0  501    0  0.00000000000E+00  0.00000000000E+00  0.13669868151E+03  0.13669868151E+03  0.00000000000E+00 0. -1.
         -2   -1    0    0    0  501 -0.00000000000E+00 -0.00000000000E+00 -0.12343300867E+03  0.12343300867E+03  0.00000000000E+00 0.  1.
         23    2    1    2    0    0 -0.26061748221E+02  0.39131970157E+01  0.71758813981E+02  0.11954353610E+03  0.91906484032E+02 0.  0.
          5    1    1    2  502    0  0.37350231215E+02 -0.39263586971E+02 -0.80583455140E+02  0.97199972613E+02  0.41800000000E+01 0.  1.
         -5    1    1    2    0  502 -0.11288482994E+02  0.35350389955E+02  0.22090314000E+02  0.43388181466E+02  0.41800000000E+01 0.  1.
        -11    1    3    3    0    0  0.25510190380E+02 -0.14262586607E+02  0.55116310328E+02  0.62385886658E+02  0.00000000000E+00 0. -1.
         11    1    3    3    0    0 -0.51571938601E+02  0.18175783622E+02  0.16642503653E+02  0.57157649437E+02  0.00000000000E+00 0.  1.
</event>
<event>
 7    1  0.4687179E-006  0.1700668E+03  0.7561462E-02  0.1177778E+00
          4   -1    0    0  501    0  0.00000000000E+00  0.00000000000E+00  0.35373777723E+03  0.35373777723E+03  0.00000000000E+00 0. -1.
         -4   -1    0    0    0  501 -0.00000000000E+00 -0.00000000000E+00 -0.84503892912E+02  0.84503892912E+02  0.00000000000E+00 0.  1.
         23    2    1    2    0    0 -0.12894777434E+03 -0.24183803068E+02  0.16120263836E+03  0.22719848763E+03  0.91763158880E+02 0.  0.
          5    1    1    2  502    0  0.12295260386E+03 -0.29108096180E+02  0.86090157212E+02  0.15294970293E+03  0.41800000000E+01 0. -1.
         -5    1    1    2    0  502  0.59951704797E+01  0.53291899247E+02  0.21941088744E+02  0.58093479580E+02  0.41800000000E+01 0. -1.
        -11    1    3    3    0    0  0.14112353441E+02  0.26733371436E+01  0.11539988470E+02  0.18424890366E+02  0.00000000000E+00 0.  1.
         11    1    3    3    0    0 -0.14306012778E+03 -0.26857140211E+02  0.14966264989E+03  0.20877359726E+03  0.00000000000E+00 0. -1.
</event>
<event>
 7    1  0.4687179E-006  0.8200843E+02  0.7561462E-02  0.1323447E+00
          2   -1    0    0  501    0  0.00000000000E+00  0.00000000000E+00  0.90648039395E+03  0.90648039395E+03  0.00000000000E+00 0. -1.
         -2   -1    0    0    0  501 -0.00000000000E+00 -0.00000000000E+00 -0.13761408540E+02  0.13761408540E+02  0.00000000000E+00 0.  1.
         23    2    1    2    0    0  0.96834438050E+01  0.11802538303E+02  0.47350346800E+03  0.48249464301E+03  0.91446581816E+02 0.  0.
          5    1    1    2  502    0 -0.29542741398E+02  0.18549047719E+02  0.28253777440E+02  0.45084244257E+02  0.41800000000E+01 0.  1.
         -5    1    1    2    0  502  0.19859297593E+02 -0.30351586022E+02  0.39096173997E+03  0.39266291523E+03  0.41800000000E+01 0.  1.
        -11    1    3    3    0    0 -0.40962391108E+02  0.46970280267E+01  0.23204424778E+03  0.23567883335E+03  0.00000000000E+00 0. -1.
         11    1    3    3    0    0  0.50645834913E+02  0.71055102764E+01  0.24145922022E+03  0.24681580966E+03  0.00000000000E+00 0.  1.
</event>
<event>
 7    1  0.4687179E-006  0.2001217E+03  0.7561462E-02  0.1149636E+00
         -2   -1    0    0    0  501 -0.00000000000E+00  0.00000000000E+00  0.33429907656E+02  0.33429907656E+02  0.00000000000E+00 0.  1.
          2   -1    0    0  501    0  0.00000000000E+00 -0.00000000000E+00 -0.13270283975E+04  0.13270283975E+04  0.00000000000E+00 0. -1.
         23    2    1    2    0    0 -0.68337278919E+02  0.16702696640E+03 -0.55722222523E+03  0.59204208804E+03  0.86308948150E+02 0.  0.
          5    1    1    2  502    0  0.10251310793E+03 -0.10992931400E+03 -0.56068830439E+03  0.58050171271E+03  0.41800000000E+01 0.  1.
         -5    1    1    2    0  502 -0.34175829011E+02 -0.57097652400E+02 -0.17568796020E+03  0.18791450438E+03  0.41800000000E+01 0.  1.
        -11    1    3    3    0    0 -0.19239977312E+02  0.88649759576E+02 -0.39524076232E+03  0.40551722133E+03  0.00000000000E+00 0.  1.
         11    1    3    3    0    0 -0.49097301607E+02  0.78377206823E+02 -0.16198146291E+03  0.18652486671E+03  0.00000000000E+00 0. -1.
</event>
<event>
 7    1  0.4687179E-006  0.1070767E+03  0.7561462E-02  0.1266081E+00
          1   -1    0    0  501    0  0.00000000000E+00  0.00000000000E+00  0.13884467696E+03  0.13884467696E+03  0.00000000000E+00 0. -1.
         -1   -1    0    0    0  501 -0.00000000000E+00 -0.00000000000E+00 -0.96308144433E+02  0.96308144433E+02  0.00000000000E+00 0.  1.
         23    2    1    2    0    0  0.12153092302E+01  0.21981244027E+02  0.55400267013E+02  0.10748900912E+03  0.89442973067E+02 0.  0.
          5    1    1    2  502    0  0.59313587577E+02 -0.21120348992E+01  0.90110581190E+01  0.60176689267E+02  0.41800000000E+01 0. -1.
         -5    1    1    2    0  502 -0.60528896807E+02 -0.19869209128E+02 -0.21874792605E+02  0.67487123006E+02  0.41800000000E+01 0. -1.
        -11    1    3    3    0    0  0.45834794694E+01 -0.34211910527E+02  0.29989260263E+02  0.45725472519E+02  0.00000000000E+00 0.  1.
         11    1    3    3    0    0 -0.33681702391E+01  0.56193154554E+02  0.25411006750E+02  0.61763536601E+02  0.00000000000E+00 0. -1.
</event>
<event>
 7    1  0.4687179E-006  0.1271232E+03  0.7561462E-02  0.1231788E+00
          1   -1    0    0  501    0  0.00000000000E+00  0.00000000000E+00  0.65581655623E+03  0.65581655623E+03  0.00000000000E+00 0. -1.
         -1   -1    0    0    0  501 -0.00000000000E+00 -0.00000000000E+00 -0.43171315409E+02  0.43171315409E+02  0.00000000000E+00 0.  1.
         23    2    1    2    0    0  0.18491085733E+02  0.71567125993E+02  0.50423932114E+03  0.51770691597E+03  0.91100955472E+02 0.  0.
          5    1    1    2  502    0 -0.34266208826E+00 -0.10230018518E+03  0.53128948842E+02  0.11534991508E+03  0.41800000000E+01 0.  1.
         -5    1    1    2    0  502 -0.18148423644E+02  0.30733059183E+02  0.55276970843E+02  0.65931040588E+02  0.41800000000E+01 0.  1.
        -11    1    3    3    0    0 -0.27579973453E+02  0.63395189706E+02  0.33859349343E+03  0.34557945368E+03  0.00000000000E+00 0. -1.
         11    1    3    3    0    0  0.46071059186E+02  0.81719362865E+01  0.16564582771E+03  0.17212746229E+03  0.00000000000E+00 0.  1.
</event>
<event>
 7    1  0.4687179E-006  0.1312612E+03  0.7561462E-02  0.1225596E+00
         -4   -1    0    0    0  501 -0.00000000000E+00  0.00000000000E+00  0.34875299042E+02  0.34875299042E+02  0.00000000000E+00 0.  1.
          4   -1    0    0  501    0  0.00000000000E+00 -0.00000000000E+00 -0.49843580034E+03  0.49843580034E+03  0.00000000000E+00 0. -1.
         23    2    1    2    0    0  0.33728750455E+02 -0.62282028788E+02 -0.21797900561E+03  0.24875073950E+03  0.96671628708E+02 0.  0.
          5    1    1    2  502    0  0.47306604168E+02  0.28452463823E+02 -0.10635180248E+03  0.11989843947E+03  0.41800000000E+01 0.  1.
         -5    1    1    2    0  502 -0.81035354623E+02  0.33829564965E+02 -0.13922969320E+03  0.16466192041E+03  0.41800000000E+01 0.  1.
        -11    1    3    3    0    0  0.65778719063E+02 -0.56432234587E+02 -0.16897255054E+03  0.18990302741E+03  0.00000000000E+00 0. -1.
         11    1    3    3    0    0 -0.32049968607E+02 -0.58497942008E+01 -0.49006455067E+02  0.58847712090E+02  0.00000000000E+00 0.  1.
</event>
<event>
 7    1  0.4687179E-006  0.1054646E+03  0.7561462E-02  0.1269207E+00
         -2   -1    0    0    0  501 -0.00000000000E+00  0.00000000000E+00  0.19101440161E+02  0.19101440161E+02  0.00000000000E+00 0.  1.
          2   -1    0    0  501    0  0.00000000000E+00 -0.00000000000E+00 -0.86286152210E+03  0.86286152210E+03  0.00000000000E+00 0. -1.
         23    2    1    2    0    0 -0.10302362969E+02  0.33311521301E+02 -0.55848860378E+03  0.56718898800E+03  0.92617662602E+02 0.  0.
          5    1    1    2  502    0  0.38117018843E+02 -0.61300233608E+02 -0.25446740214E+03  0.26454065267E+03  0.41800000000E+01 0. -1.
         -5    1    1    2    0  502 -0.27814655873E+02  0.27988712306E+02 -0.30804076021E+02  0.50233321585E+02  0.41800000000E+01 0.  1.
        -11    1    3    3    0    0  0.40728087748E+02  0.63231817112E+01 -0.22702208170E+03  0.23073314746E+03  0.00000000000E+00 0.  1.
         11    1    3    3    0    0 -0.51030450717E+02  0.26988339590E+02 -0.33146652208E+03  0.33645584054E+03  0.00000000000E+00 0. -1.
</event>
<event>
 7    1  0.4687179E-006  0.1166277E+03  0.7561462E-02  0.1248766E+00
         -1   -1    0    0    0  501 -0.00000000000E+00  0.00000000000E+00  0.96806038289E+02  0.96806038289E+02  0.00000000000E+00 0.  1.
          1   -1    0    0  501    0  0.00000000000E+00 -0.00000000000E+00 -0.18318434123E+03  0.18318434123E+03  0.00000000000E+00 0. -1.
         23    2    1    2    0    0 -0.73307986826E+02  0.90039580235E+01 -0.50582438886E+02  0.13037657184E+03  0.94785732932E+02 0.  0.
          5    1    1    2  502    0  0.56310390293E+01 -0.48913683280E+02 -0.49280313488E+02  0.69787382170E+02  0.41800000000E+01 0.  1.
         -5    1    1    2    0  502  0.67676947797E+02  0.39909725257E+02  0.13484449436E+02  0.79826425510E+02  0.41800000000E+01 0.  1.
        -11    1    3    3    0    0  0.83135096034E+01  0.21072672295E+02  0.13083509803E+02  0.26160087698E+02  0.00000000000E+00 0.  1.
         11    1    3    3    0    0 -0.81621496429E+02 -0.12068714272E+02 -0.63665948690E+02  0.10421648414E+03  0.00000000000E+00 0. -1.
</event>
<event>
 7    1  0.4687179E-006  0.1152927E+03  0.7561462E-02  0.1251071E+00
         -1   -1    0    0    0  501 -0.00000000000E+00  0.00000000000E+00  0.88932744356E+03  0.88932744356E+03  0.00000000000E+00 0.  1.
          1   -1    0    0  501    0  0.00000000000E+00 -0.00000000000E+00 -0.42523546946E+02  0.42523546946E+02  0.00000000000E+00 0. -1.
         23    2    1    2    0    0  0.30266635588E+02 -0.31566125832E+02  0.40709850964E+02  0.10958382726E+03  0.91863124820E+02 0.  0.
          5    1    1    2  502    0  0.45797994567E+02 -0.66917875714E+01  0.91687142155E+02  0.10279222132E+03  0.41800000000E+01 0. -1.
         -5    1    1    2    0  502 -0.76064630154E+02  0.38257913403E+02  0.71440690349E+03  0.71947494192E+03  0.41800000000E+01 0.  1.
        -11    1    3    3    0    0 -0.27050229935E+02  0.91541123217E+01  0.24032528246E+02  0.37323921630E+02  0.00000000000E+00 0.  1.
         11    1    3    3    0    0  0.57316865523E+02 -0.40720238153E+02  0.16677322718E+02  0.72259905630E+02  0.00000000000E+00 0. -1.
</event>
