<event>
 7    1  0.2394257E-009  0.8414843E+02  0.7561462E-02  0.1317675E+00
          1   -1    0    0  501    0  0.00000000000E+00  0.00000000000E+00  0.23422425600E+03  0.23422425600E+03  0.00000000000E+00 0. -1.
         -1   -1    0    0    0  501 -0.00000000000E+00 -0.00000000000E+00 -0.79956727234E+02  0.79956727234E+02  0.00000000000E+00 0.  1.
         25    2    1    2    0    0  0.69644619285E+02  0.32926346887E+01  0.35333416046E+02  0.14750332600E+03  0.12509023325E+03 0.  0.
          5    1    3    3  502    0  0.74587739779E+02  0.17389308508E+02 -0.28489766859E+02  0.81822113096E+02  0.41800000000E+01 0.  1.
         -5    1    3    3    0  502 -0.49431204936E+01 -0.14096673820E+02  0.63823182905E+02  0.65681212909E+02  0.41800000000E+01 0.  1.
        -11    1    1    2    0    0 -0.20612631004E+02  0.13053127361E+02 -0.11058328158E+02  0.26787148270E+02  0.00000000000E+00 0.  1.
         11    1    1    2    0    0 -0.49031988281E+02 -0.16345762050E+02  0.12999244087E+03  0.13989050896E+03  0.00000000000E+00 0. -1.
</event>
<event>
 7    1  0.2394257E-009  0.1175116E+03  0.7561462E-02  0.1247260E+00
          2   -1    0    0  501    0  0.00000000000E+00  0.00000000000E+00  0.12770873580E+03  0.12770873580E+03  0.00000000000E+00 0. -1.
         -2   -1    0    0    0  501 -0.00000000000E+00 -0.00000000000E+00 -0.25630392222E+03  0.25630392222E+03  0.00000000000E+00 0.  1.
         25    2    1    2    0    0 -0.91731772073E+02 -0.26018917209E+02 -0.18342169672E+03  0.24161944080E+03  0.12507890823E+03 0.  0.
          5    1    3    3  502    0 -0.57557978925E+02 -0.43981718447E+02 -0.22335646161E+02  0.75918811799E+02  0.41800000000E+01 0.  1.
         -5    1    3    3    0  502 -0.34173793147E+02  0.17962801238E+02 -0.16108605056E+03  0.16570062900E+03  0.41800000000E+01 0.  1.
        -11    1    1    2    0    0  0.37802830525E+02 -0.28197531287E+02 -0.18690089135E+01  0.47197965642E+02  0.00000000000E+00 0.  1.
         11    1    1    2    0    0  0.53928941547E+02  0.54216448496E+02  0.56695519216E+02  0.95195251578E+02  0.00000000000E+00 0. -1.
</event>
<event>
 7    1  0.2394257E-009  0.1293040E+03  0.7561462E-02  0.1228492E+00
          2   -1    0    0  501    0  0.00000000000E+00  0.00000000000E+00  0.10993024158E+04  0.10993024158E+04  0.00000000000E+00 0. -1.
         -2   -1    0    0    0  501 -0.00000000000E+00 -0.00000000000E+00 -0.22384536978E+02  0.22384536978E+02  0.00000000000E+00 0.  1.
         25    2    1    2    0    0 -0.10784496013E+03  0.13104603420E+02  0.68352890575E+03  0.70332154385E+03  0.12508862056E+03 0.  0.
          5    1    3    3  502    0 -0.34694190962E+02 -0.16718515553E+02  0.42800853958E+02  0.57728512438E+02  0.41800000000E+01 0. -1.
         -5    1    3    3    0  502 -0.73150769166E+02  0.29823118973E+02  0.64072805180E+03  0.64559303142E+03  0.41800000000E+01 0. -1.
        -11    1    1    2    0    0  0.11433496396E+03  0.11878416442E+02  0.29383431073E+03  0.31551891056E+03  0.00000000000E+00 0.  1.
         11    1    1    2    0    0 -0.64900038327E+01 -0.24983019862E+02  0.99554662290E+02  0.10284649831E+03  0.00000000000E+00 0. -1.
</event>
<event>
 7    1  0.2611503E-009  0.1334307E+03  0.7561462E-02  0.1222452E+00
          3   -1    0    0  501    0  0.00000000000E+00  0.00000000000E+00  0.46962570445E+03  0.46962570445E+03  0.00000000000E+00 0. -1.
         -3   -1    0    0    0  501 -0.00000000000E+00 -0.00000000000E+00 -0.65752297420E+02  0.65752297420E+02  0.00000000000E+00 0.  1.
         25    2    1    2    0    0 -0.12345921217E+03 -0.30806799805E+02  0.13347462213E+03  0.22283184566E+03  0.12508925095E+03 0.  0.
          5    1    3    3  502    0 -0.47422868348E+02 -0.29505876342E+02  0.13552446009E+03  0.14664200238E+03  0.41800000000E+01 0.  1.
         -5    1    3    3    0  502 -0.76036343820E+02 -0.13009234629E+01 -0.20498379539E+01  0.76189843279E+02  0.41800000000E+01 0.  1.
        -11    1    1    2    0    0  0.39130263180E+02 -0.10887876792E+02  0.20438135071E+02  0.45469118342E+02  0.00000000000E+00 0.  1.
         11    1    1    2    0    0  0.84328948988E+02  0.41694676597E+02  0.24996064983E+03  0.26707703787E+03  0.00000000000E+00 0. -1.
</event>
<event>
 7    1  0.2394257E-009  0.8824769E+02  0.7561462E-02  0.1307152E+00
          1   -1    0    0  501    0  0.00000000000E+00  0.00000000000E+00  0.67733710632E+03  0.67733710632E+03  0.00000000000E+00 0. -1.
         -1   -1    0    0    0  501 -0.00000000000E+00 -0.00000000000E+00 -0.23500153808E+02  0.23500153808E+02  0.00000000000E+00 0.  1.
         25    2    1    2    0    0 -0.10620405744E+02  0.19213161107E+02  0.19554528864E+03  0.23316970830E+03  0.12509282306E+03 0.  0.
          5    1    3    3  502    0 -0.30852275483E+02  0.42769992730E+02  0.19477112953E+03  0.20182765043E+03  0.41800000000E+01 0. -1.
         -5    1    3    3    0  502  0.20231869739E+02 -0.23556831622E+02  0.77415911069E+00  0.31342057870E+02  0.41800000000E+01 0. -1.
        -11    1    1    2    0    0  0.49586640227E+02 -0.19528517718E+02  0.23173823497E+03  0.23778731556E+03  0.00000000000E+00 0. -1.
         11    1    1    2    0    0 -0.38966234483E+02  0.31535661088E+00  0.22655342890E+03  0.22988023627E+03  0.00000000000E+00 0.  1.
</event>
<event>
 7    1  0.2394257E-009  0.1214090E+03  0.7561462E-02  0.1240791E+00
         -1   -1    0    0    0  501 -0.00000000000E+00  0.00000000000E+00  0.18224484208E+03  0.18224484208E+03  0.00000000000E+00 0.  1.
          1   -1    0    0  501    0  0.00000000000E+00 -0.00000000000E+00 -0.10339639373E+03  0.10339639373E+03  0.00000000000E+00 0. -1.
         25    2    1    2    0    0  0.17750053974E+02  0.80871900250E+02  0.27239276698E+02  0.15246485104E+03  0.12509286127E+03 0.  0.
          5    1    3    3  502    0  0.56875602121E+02 -0.29552689976E+01  0.15112786025E+02  0.59071451928E+02  0.41800000000E+01 0. -1.
         -5    1    3    3    0  502 -0.39125548147E+02  0.83827169248E+02  0.12126490673E+02  0.93393399113E+02  0.41800000000E+01 0. -1.
        -11    1    1    2    0    0  0.13672907774E+02 -0.16132227869E+02 -0.21804344652E+02  0.30374769607E+02  0.00000000000E+00 0. -1.
         11    1    1    2    0    0 -0.31422961747E+02 -0.64739672381E+02  0.73413516300E+02  0.10280161516E+03  0.00000000000E+00 0.  1.
</event>
<event>
 7    1  0.2394257E-009  0.1229858E+03  0.7561462E-02  0.1238251E+00
         -1   -1    0    0    0  501 -0.00000000000E+00  0.00000000000E+00  0.15721171263E+02  0.15721171263E+02  0.00000000000E+00 0.  1.
          1   -1    0    0  501    0  0.00000000000E+00 -0.00000000000E+00 -0.14595849926E+04  0.14595849926E+04  0.00000000000E+00 0. -1.
         25    2    1    2    0    0 -0.77966810193E+02  0.13958230394E+02 -0.11301241151E+04  0.11397814985E+04  0.12509073926E+03 0.  0.
          5    1    3    3  502    0 -0.78371357113E+02 -0.34177978701E+02 -0.45856751221E+03  0.46648884178E+03  0.41800000000E+01 0.  1.
         -5    1    3    3    0  502  0.40454692060E+00  0.48136209095E+02 -0.67155660290E+03  0.67329265671E+03  0.41800000000E+01 0.  1.
        -11    1    1    2    0    0  0.34402325926E+02  0.33228076266E+02 -0.19218883747E+03  0.19805093872E+03  0.00000000000E+00 0. -1.
         11    1    1    2    0    0  0.43564484267E+02 -0.47186306660E+02 -0.12155086879E+03  0.13747372669E+03  0.00000000000E+00 0.  1.
</event>
<event>
 7    1  0.2394257E-009  0.1295588E+03  0.7561462E-02  0.1228112E+00
         -2   -1    0    0    0  501 -0.00000000000E+00  0.00000000000E+00  0.36402670203E+02  0.36402670203E+02  0.00000000000E+00 0.  1.
          2   -1    0    0  501    0  0.00000000000E+00 -0.00000000000E+00 -0.47454541922E+03  0.47454541922E+03  0.00000000000E+00 0. -1.
         25    2    1    2    0    0  0.10569374888E+02 -0.75901926251E+02 -0.24264277899E+03  0.28354318358E+03  0.12509358363E+03 0.  0.
          5    1    3    3  502    0 -0.55035488065E+02 -0.30222885815E+02 -0.75996402886E+02  0.98667387850E+02  0.41800000000E+01 0.  1.
         -5    1    3    3    0  502  0.65604862952E+02 -0.45679040436E+02 -0.16664637610E+03  0.18487579573E+03  0.41800000000E+01 0.  1.
        -11    1    1    2    0    0  0.36998086789E+02  0.17819847478E+02 -0.67228183909E+02  0.78778386007E+02  0.00000000000E+00 0. -1.
         11    1    1    2    0    0 -0.47567461677E+02  0.58082078772E+02 -0.12827178612E+03  0.14862651984E+03  0.00000000000E+00 0.  1.
</event>
<event>
 7    1  0.2394257E-009  0.1035298E+03  0.7561462E-02  0.1273044E+00
         -2   -1    0    0    0  501 -0.00000000000E+00  0.00000000000E+00  0.29517683126E+03  0.29517683126E+03  0.00000000000E+00 0.  1.
          2   -1    0    0  501    0  0.00000000000E+00 -0.00000000000E+00 -0.48393334858E+02  0.48393334858E+02  0.00000000000E+00 0. -1.
         25    2    1    2    0    0 -0.41900599730E+02 -0.82426642220E+01  0.15361275839E+03  0.20265335759E+03  0.12509157458E+03 0.  0.
          5    1    3    3  502    0 -0.97870318259E+01 -0.52818320276E+02  0.18883048197E+02  0.57092931769E+02  0.41800000000E+01 0. -1.
         -5    1    3    3    0  502 -0.32113567904E+02  0.44575656054E+02  0.13472971019E+03  0.14556042582E+03  0.41800000000E+01 0. -1.
        -11    1    1    2    0    0  0.79877271875E+01 -0.39065878358E+02  0.64986540887E+02  0.76244325257E+02  0.00000000000E+00 0.  1.
         11    1    1    2    0    0  0.33912872542E+02  0.47308542580E+02  0.28184197129E+02  0.64672483274E+02  0.00000000000E+00 0. -1.
</event>
<event>
 7    1  0.2394257E-009  0.1124313E+03  0.7561462E-02  0.1256133E+00
         -2   -1    0    0    0  501 -0.00000000000E+00  0.00000000000E+00  0.24162146441E+02  0.24162146441E+02  0.00000000000E+00 0.  1.
          2   -1    0    0  501    0  0.00000000000E+00 -0.00000000000E+00 -0.64744870787E+03  0.64744870787E+03  0.00000000000E+00 0. -1.
         25    2    1    2    0    0 -0.15394353942E+02  0.19136755130E+02 -0.22763517215E+03  0.26090430379E+03  0.12510029021E+03 0.  0.
          5    1    3    3  502    0 -0.66439770540E+02  0.30775917560E+01 -0.81831763073E+02  0.10553494458E+03  0.41800000000E+01 0.  1.
         -5    1    3    3    0  502  0.51045416599E+02  0.16059163374E+02 -0.14580340907E+03  0.15536935921E+03  0.41800000000E+01 0.  1.
        -11    1    1    2    0    0  0.18297404746E+02 -0.60435550778E+02 -0.17130965186E+03  0.18257668974E+03  0.00000000000E+00 0.  1.
         11    1    1    2    0    0 -0.29030508045E+01  0.41298795648E+02 -0.22434173743E+03  0.22812986078E+03  0.00000000000E+00 0. -1.
</event>
<event>
 7    1  0.2394257E-009  0.1103652E+03  0.7561462E-02  0.1259895E+00
          3   -1    0    0  501    0  0.00000000000E+00  0.00000000000E+00  0.79370443965E+02  0.79370443965E+02  0.00000000000E+00 0. -1.
         -3   -1    0    0    0  501 -0.00000000000E+00 -0.00000000000E+00 -0.22253186498E+03  0.22253186498E+03  0.00000000000E+00 0.  1.
         25    2    1    2    0    0 -0.20939849398E+02 -0.50918789022E+02 -0.13469266295E+03  0.19188755590E+03  0.12509004872E+03 0.  0.
          5    1    3    3  502    0 -0.40574103248E+01  0.40058902884E+02 -0.22198352333E+02  0.46167277644E+02  0.41800000000E+01 0. -1.
         -5    1    3    3    0  502 -0.16882439073E+02 -0.90977691906E+02 -0.11249431062E+03  0.14572027826E+03  0.41800000000E+01 0. -1.
        -11    1    1    2    0    0  0.46010219224E+02  0.29538554484E+02  0.27528229146E+02  0.61214948125E+02  0.00000000000E+00 0. -1.
         11    1    1    2    0    0 -0.25070369826E+02  0.21380234538E+02 -0.35996987210E+02  0.48799804921E+02  0.00000000000E+00 0.  1.
</event>
<event>
 7    1  0.2394257E-009  0.1234455E+03  0.7561462E-02  0.1237519E+00
         -2   -1    0    0    0  501 -0.00000000000E+00  0.00000000000E+00  0.33865657388E+02  0.33865657388E+02  0.00000000000E+00 0.  1.
          2   -1    0    0  501    0  0.00000000000E+00 -0.00000000000E+00 -0.59993792884E+03  0.59993792884E+03  0.00000000000E+00 0. -1.
         25    2    1    2    0    0 -0.85148013658E+02  0.19567985004E+02 -0.23593825624E+03  0.28097884158E+03  0.12509659624E+03 0.  0.
          5    1    3    3  502    0  0.12994580728E+02  0.20060296361E+02  0.12059882612E+01  0.24294061539E+02  0.41800000000E+01 0. -1.
         -5    1    3    3    0  502 -0.98142594386E+02 -0.49231135680E+00 -0.23714424450E+03  0.25668478004E+03  0.41800000000E+01 0. -1.
        -11    1    1    2    0    0  0.55092636149E+02  0.32725067540E+02 -0.17684269633E+03  0.18809430574E+03  0.00000000000E+00 0.  1.
         11    1    1    2    0    0  0.30055377509E+02 -0.52293052543E+02 -0.15329131887E+03  0.16473043891E+03  0.00000000000E+00 0. -1.
</event>
<event>
 7    1  0.2394257E-009  0.1376469E+03  0.7561462E-02  0.1216531E+00
         -1   -1    0    0    0  501 -0.00000000000E+00  0.00000000000E+00  0.74320805826E+02  0.74320805826E+02  0.00000000000E+00 0.  1.
          1   -1    0    0  501    0  0.00000000000E+00 -0.00000000000E+00 -0.27108876682E+03  0.27108876682E+03  0.00000000000E+00 0. -1.
         25    2    1    2    0    0  0.81059963999E+02  0.27646488314E+02 -0.84531868801E+02  0.17357553913E+03  0.12509110625E+03 0.  0.
          5    1    3    3  502    0  0.65650531210E+02 -0.39181870724E+02 -0.19594701976E+02  0.79035662756E+02  0.41800000000E+01 0.  1.
         -5    1    3    3    0  502  0.15409432789E+02  0.66828359038E+02 -0.64937166824E+02  0.94539876379E+02  0.41800000000E+01 0.  1.
        -11    1    1    2    0    0  0.21986160247E+02  0.37276688690E+01 -0.21832835435E+02  0.31208323581E+02  0.00000000000E+00 0.  1.
         11    1    1    2    0    0 -0.10304612425E+03 -0.31374157183E+02 -0.90403256761E+02  0.14062570993E+03  0.00000000000E+00 0. -1.
</event>
<event>
 7    1  0.2394257E-009  0.2232139E+03  0.7561462E-02  0.1131509E+00
         -2   -1    0    0    0  501 -0.00000000000E+00  0.00000000000E+00  0.29293368692E+02  0.29293368692E+02  0.00000000000E+00 0.  1.
          2   -1    0    0  501    0  0.00000000000E+00 -0.00000000000E+00 -0.17703149954E+04  0.17703149954E+04  0.00000000000E+00 0. -1.
         25    2    1    2    0    0 -0.13995312787E+03  0.14289564674E+03 -0.88304986785E+03  0.91401850450E+03  0.12508682425E+03 0.  0.
          5    1    3    3  502    0 -0.92580075815E+02  0.16015519417E+02 -0.26227052531E+03  0.27862316513E+03  0.41800000000E+01 0. -1.
         -5    1    3    3    0  502 -0.47373052055E+02  0.12688012732E+03 -0.62077934254E+03  0.63539533937E+03  0.41800000000E+01 0. -1.
        -11    1    1    2    0    0  0.12021353703E+03 -0.65282783873E+02 -0.60370949787E+03  0.61901396928E+03  0.00000000000E+00 0.  1.
         11    1    1    2    0    0  0.19739590839E+02 -0.77612862864E+02 -0.25426226098E+03  0.26657589029E+03  0.00000000000E+00 0. -1.
</event>
<event>
 7    1  0.2394257E-009  0.1038429E+03  0.7561462E-02  0.1272416E+00
         -4   -1    0    0    0  501 -0.00000000000E+00  0.00000000000E+00  0.45039750559E+02  0.45039750559E+02  0.00000000000E+00 0.  1.
          4   -1    0    0  501    0  0.00000000000E+00 -0.00000000000E+00 -0.43844849069E+03  0.43844849069E+03  0.00000000000E+00 0. -1.
         25    2    1    2    0    0 -0.54630617748E+02 -0.50668301635E+02 -0.12953991088E+03  0.19488303787E+03  0.12508808398E+03 0.  0.
          5    1    3    3  502    0 -0.17297046403E+02  0.29842345156E+02 -0.92166866469E+02  0.98498512951E+02  0.41800000000E+01 0.  1.
         -5    1    3    3    0  502 -0.37333571344E+02 -0.80510646791E+02 -0.37373044407E+02  0.96384524921E+02  0.41800000000E+01 0.  1.
        -11    1    1    2    0    0  0.12827545032E+02  0.38466917290E+02 -0.29297536742E+02  0.50025946233E+02  0.00000000000E+00 0.  1.
         11    1    1    2    0    0  0.41803072716E+02  0.12201384345E+02 -0.23457129251E+03  0.23857925714E+03  0.00000000000E+00 0. -1.
</event>
<event>
 7    1  0.2394257E-009  0.7884246E+02  0.7561462E-02  0.1332369E+00
         -1   -1    0    0    0  501 -0.00000000000E+00  0.00000000000E+00  0.89129813822E+02  0.89129813822E+02  0.00000000000E+00 0.  1.
          1   -1    0    0  501    0  0.00000000000E+00 -0.00000000000E+00 -0.25304450175E+03  0.25304450175E+03  0.00000000000E+00 0. -1.
         25    2    1    2    0    0  0.27208113067E+02 -0.25255027708E+02 -0.19953075504E+03  0.23840131044E+03  0.12507823459E+03 0.  0.
          5    1    3    3  502    0 -0.15564007182E+02 -0.25290953546E+02  0.41152105373E+01  0.30270084384E+02  0.41800000000E+01 0.  1.
         -5    1    3    3    0  502  0.42772120250E+02  0.35925838352E-01 -0.20364596558E+03  0.20813122605E+03  0.41800000000E+01 0.  1.
        -11    1    1    2    0    0  0.16671420429E+02 -0.16994582392E+02  0.35639763822E+02  0.42859594667E+02  0.00000000000E+00 0.  1.
         11    1    1    2    0    0 -0.43879533496E+02  0.42249610100E+02 -0.23696707914E-01  0.60913410469E+02  0.00000000000E+00 0. -1.
</event>
<event>
 7    1  0.2394257E-009  0.1495844E+03  0.7561462E-02  0.1200985E+00
         -2   -1    0    0    0  501 -0.00000000000E+00  0.00000000000E+00  0.36714299908E+03  0.36714299908E+03  0.00000000000E+00 0.  1.
          2   -1    0    0  501    0  0.00000000000E+00 -0.00000000000E+00 -0.67220489149E+02  0.67220489149E+02  0.00000000000E+00 0. -1.
         25    2    1    2    0    0 -0.92935563469E+02  0.60746205685E+02  0.12254118105E+03  0.20734186132E+03  0.12508871228E+03 0.  0.
          5    1    3    3  502    0  0.24670210202E+02 -0.12771736679E+02  0.26238600279E+02  0.38440513444E+02  0.41800000000E+01 0. -1.
         -5    1    3    3    0  502 -0.11760577367E+03  0.73517942365E+02  0.96302580772E+02  0.16890134787E+03  0.41800000000E+01 0. -1.
        -11    1    1    2    0    0  0.71290457443E+02 -0.37929813382E+01  0.13528247688E+03  0.15296425916E+03  0.00000000000E+00 0.  1.
         11    1    1    2    0    0  0.21645106026E+02 -0.56953224347E+02  0.42098851998E+02  0.74057367749E+02  0.00000000000E+00 0. -1.
</event>
<event>
 7    1  0.2394257E-009  0.1296343E+03  0.7561462E-02  0.1227999E+00
          1   -1    0    0  501    0  0.00000000000E+00  0.00000000000E+00  0.44268163520E+03  0.44268163520E+03  0.00000000000E+00 0. -1.
         -1   -1    0    0    0  501 -0.00000000000E+00 -0.00000000000E+00 -0.43475802468E+02  0.43475802468E+02  0.00000000000E+00 0.  1.
         25    2    1    2    0    0 -0.61871471097E+02 -0.36345394981E+02  0.29643432942E+03  0.32965040344E+03  0.12508800965E+03 0.  0.
          5    1    3    3  502    0  0.36341802690E+02 -0.20334863089E+02  0.11939787601E+03  0.12652098038E+03  0.41800000000E+01 0.  1.
         -5    1    3    3    0  502 -0.98213273787E+02 -0.16010531892E+02  0.17703645341E+03  0.20312942307E+03  0.41800000000E+01 0.  1.
        -11    1    1    2    0    0  0.64463490812E+02  0.63531387656E+02  0.82864450836E+02  0.12271224909E+03  0.00000000000E+00 0. -1.
         11    1    1    2    0    0 -0.25920197145E+01 -0.27185992674E+02  0.19907052475E+02  0.33794785132E+02  0.00000000000E+00 0.  1.
</event>
<event>
 7    1  0.2394257E-009  0.1310920E+03  0.7561462E-02  0.1225844E+00
          2   -1    0    0  501    0  0.00000000000E+00  0.00000000000E+00  0.42911012246E+03  0.42911012246E+03  0.00000000000E+00 0. -1.
         -2   -1    0    0    0  501 -0.00000000000E+00 -0.00000000000E+00 -0.45716587909E+02  0.45716587909E+02  0.00000000000E+00 0.  1.
         25    2    1    2    0    0 -0.80521969987E+02  0.21979418847E+02  0.17030033383E+03  0.22719258066E+03  0.12508949797E+03 0.  0.
          5    1    3    3  502    0 -0.41312078091E+02  0.73877527171E+02  0.87447229802E+02  0.12177465753E+03  0.41800000000E+01 0.  1.
         -5    1    3    3    0  502 -0.39209891896E+02 -0.51898108324E+02  0.82853104027E+02  0.10541792313E+03  0.41800000000E+01 0.  1.
        -11    1    1    2    0    0  0.66458012613E+02  0.18845587508E+02  0.70728701902E+02  0.98865428142E+02  0.00000000000E+00 0.  1.
         11    1    1    2    0    0  0.14063957374E+02 -0.40825006354E+02  0.14236449882E+03  0.14876870157E+03  0.00000000000E+00 0. -1.
</event>
<event>
 7    1  0.2394257E-009  0.7927377E+02  0.7561462E-02  0.1331125E+00
          1   -1    0    0  501    0  0.00000000000E+00  0.00000000000E+00  0.50151159850E+02  0.50151159850E+02  0.00000000000E+00 0.  1.
         -1   -1    0    0    0  501 -0.00000000000E+00 -0.00000000000E+00 -0.33833557266E+03  0.33833557266E+03  0.00000000000E+00 0. -1.
         25    2    1    2    0    0  0.20984665811E+02  0.14982483843E+02 -0.26095024650E+03  0.29053319308E+03  0.12509865751E+03 0.  0.
          5    1    3    3  502    0  0.41814059999E+02 -0.66489036181E+00 -0.26078261993E+03  0.26414750604E+03  0.41800000000E+01 0.  1.
         -5    1    3    3    0  502 -0.20829394188E+02  0.15647374205E+02 -0.16762657562E+00  0.26385687037E+02  0.41800000000E+01 0.  1.
        -11    1    1    2    0    0 -0.14575538347E+02 -0.51261736422E+02 -0.20609855460E+01  0.53333475422E+02  0.00000000000E+00 0. -1.
         11    1    1    2    0    0 -0.64091274644E+01  0.36279252579E+02 -0.25173180764E+02  0.44620064011E+02  0.00000000000E+00 0.  1.
</event>
<event>
 7    1  0.2394257E-009  0.9105253E+02  0.7561462E-02  0.1300323E+00
         -1   -1    0    0    0  501 -0.00000000000E+00  0.00000000000E+00  0.22338323539E+02  0.22338323539E+02  0.00000000000E+00 0.  1.
          1   -1    0    0  501    0  0.00000000000E+00 -0.00000000000E+00 -0.71598950853E+03  0.71598950853E+03  0.00000000000E+00 0. -1.
         25    2    1    2    0    0  0.65286588814E+02  0.45238239630E+01 -0.40842170141E+03  0.43213293494E+03  0.12509110126E+03 0.  0.
          5    1    3    3  502    0  0.74552361443E+02 -0.43181949033E+01 -0.10778027627E+03  0.13118979289E+03  0.41800000000E+01 0. -1.
         -5    1    3    3    0  502 -0.92657726294E+01  0.88420188663E+01 -0.30064142514E+03  0.30094314206E+03  0.41800000000E+01 0. -1.
        -11    1    1    2    0    0 -0.31924839142E+02  0.31423427979E+02 -0.55668007031E+02  0.71453160791E+02  0.00000000000E+00 0.  1.
         11    1    1    2    0    0 -0.33361749672E+02 -0.35947251942E+02 -0.22956147654E+03  0.23474173633E+03  0.00000000000E+00 0. -1.
</event>
<event>
 7    1  0.2394257E-009  0.7280061E+02  0.7561462E-02  0.1350820E+00
         -2   -1    0    0    0  501 -0.00000000000E+00  0.00000000000E+00  0.38082376273E+03  0.38082376273E+03  0.00000000000E+00 0. -1.
          2   -1    0    0  501    0  0.00000000000E+00 -0.00000000000E+00 -0.58078940811E+02  0.58078940811E+02  0.00000000000E+00 0.  1.
         25    2    1    2    0    0 -0.44257824292E+02 -0.31613727888E+01  0.31119109350E+03  0.33831967177E+03  0.12510617229E+03 0.  0.
          5    1    3    3  502    0 -0.54135915946E+02 -0.80707110092E+01  0.42637903483E+02  0.69507531857E+02  0.41800000000E+01 0. -1.
         -5    1    3    3    0  502  0.98780916538E+01  0.49093382203E+01  0.26855319002E+03  0.26881213992E+03  0.41800000000E+01 0. -1.
        -11    1    1    2    0    0 -0.10363476787E+02 -0.17643503847E+02 -0.24490339882E+02  0.31913502262E+02  0.00000000000E+00 0.  1.
         11    1    1    2    0    0  0.54621301079E+02  0.20804876635E+02  0.36044068300E+02  0.68669529509E+02  0.00000000000E+00 0. -1.
</event>
<event>
 7    1  0.2394257E-009  0.1159571E+03  0.7561462E-02  0.1249920E+00
         -1   -1    0    0    0  501 -0.00000000000E+00  0.00000000000E+00  0.34734605624E+03  0.34734605624E+03  0.00000000000E+00 0.  1.
          1   -1    0    0  501    0  0.00000000000E+00 -0.00000000000E+00 -0.57322138236E+02  0.57322138236E+02  0.00000000000E+00 0. -1.
         25    2    1    2    0    0 -0.57143799216E+02 -0.68592018470E+02  0.14956242491E+03  0.21444750786E+03  0.12509410815E+03 0.  0.
          5    1    3    3  502    0  0.20461454645E+02  0.34491306051E+01  0.90880833368E+02  0.93313267555E+02  0.41800000000E+01 0.  1.
         -5    1    3    3    0  502 -0.77605253861E+02 -0.72041149075E+02  0.58681591546E+02  0.12113424030E+03  0.41800000000E+01 0.  1.
        -11    1    1    2    0    0  0.33332654557E+02  0.73282451407E+02  0.46064784142E+02  0.92754233769E+02  0.00000000000E+00 0. -1.
         11    1    1    2    0    0  0.23811144659E+02 -0.46904329367E+01  0.94396708949E+02  0.97466452851E+02  0.00000000000E+00 0.  1.
</event>
<event>
 7    1  0.2394257E-009  0.7228094E+02  0.7561462E-02  0.1352504E+00
         -2   -1    0    0    0  501 -0.00000000000E+00  0.00000000000E+00  0.85623224466E+02  0.85623224466E+02  0.00000000000E+00 0.  1.
          2   -1    0    0  501    0  0.00000000000E+00 -0.00000000000E+00 -0.16874153720E+03  0.16874153720E+03  0.00000000000E+00 0. -1.
         25    2    1    2    0    0  0.22862152857E+02 -0.11278504077E+02 -0.27381850469E+02  0.13056577288E+03  0.12509105734E+03 0.  0.
          5    1    3    3  502    0  0.50053562150E+02 -0.34575834269E+02 -0.57332073831E+02  0.83697589506E+02  0.41800000000E+01 0.  1.
         -5    1    3    3    0  502 -0.27191409292E+02  0.23297330192E+02  0.29950223362E+02  0.46868183375E+02  0.41800000000E+01 0.  1.
        -11    1    1    2    0    0 -0.31633072105E+02 -0.19148350661E+01 -0.84893479985E+02  0.90615786638E+02  0.00000000000E+00 0. -1.
         11    1    1    2    0    0  0.87709192481E+01  0.13193339143E+02  0.29157017722E+02  0.33183202146E+02  0.00000000000E+00 0.  1.
</event>
<event>
 7    1  0.2394257E-009  0.8185149E+02  0.7561462E-02  0.1323878E+00
          1   -1    0    0  501    0  0.00000000000E+00  0.00000000000E+00  0.13113398748E+03  0.13113398748E+03  0.00000000000E+00 0. -1.
         -1   -1    0    0    0  501 -0.00000000000E+00 -0.00000000000E+00 -0.10310267026E+03  0.10310267026E+03  0.00000000000E+00 0.  1.
         25    2    1    2    0    0 -0.16102641274E+02  0.29771348190E+02  0.36569805866E+02  0.13464814875E+03  0.12508854877E+03 0.  0.
          5    1    3    3  502    0 -0.10365345128E+02  0.63651319388E+02  0.63643634711E+02  0.90702345498E+02  0.41800000000E+01 0. -1.
         -5    1    3    3    0  502 -0.57372961457E+01 -0.33879971198E+02 -0.27073828845E+02  0.43945803256E+02  0.41800000000E+01 0. -1.
        -11    1    1    2    0    0  0.87407224722E+01 -0.45904250266E+02  0.31121835027E+02  0.56144180796E+02  0.00000000000E+00 0. -1.
         11    1    1    2    0    0  0.73619188020E+01  0.16132902076E+02 -0.39660323679E+02  0.43444328193E+02  0.00000000000E+00 0.  1.
</event>
<event>
 7    1  0.2394257E-009  0.1180257E+03  0.7561462E-02  0.1246390E+00
         -2   -1    0    0    0  501 -0.00000000000E+00  0.00000000000E+00  0.25833568393E+02  0.25833568393E+02  0.00000000000E+00 0.  1.
          2   -1    0    0  501    0  0.00000000000E+00 -0.00000000000E+00 -0.78369133177E+03  0.78369133177E+03  0.00000000000E+00 0. -1.
         25    2    1    2    0    0 -0.73904272971E+02  0.53082943424E+01 -0.25864771642E+03  0.29670748591E+03  0.12508665569E+03 0.  0.
          5    1    3    3  502    0  0.21456771952E+02  0.14108029047E+02 -0.14818684485E+03  0.15045345769E+03  0.41800000000E+01 0. -1.
         -5    1    3    3    0  502 -0.95361044923E+02 -0.87997347047E+01 -0.11046087158E+03  0.14625402821E+03  0.41800000000E+01 0. -1.
        -11    1    1    2    0    0  0.67742012809E+02  0.33016498514E+02 -0.26894852531E+03  0.27930696150E+03  0.00000000000E+00 0.  1.
         11    1    1    2    0    0  0.61622601616E+01 -0.38324792857E+02 -0.23026152165E+03  0.23351045276E+03  0.00000000000E+00 0. -1.
</event>
<event>
 7    1  0.2394257E-009  0.2105962E+03  0.7561462E-02  0.1141095E+00
         -2   -1    0    0    0  501 -0.00000000000E+00  0.00000000000E+00  0.53911246739E+03  0.53911246739E+03  0.00000000000E+00 0.  1.
          2   -1    0    0  501    0  0.00000000000E+00 -0.00000000000E+00 -0.97528343793E+02  0.97528343793E+02  0.00000000000E+00 0. -1.
         25    2    1    2    0    0  0.48130064702E+02 -0.19516634676E+03  0.25433083220E+03  0.34746718187E+03  0.12507143652E+03 0.  0.
          5    1    3    3  502    0  0.61561269021E+02 -0.67476949947E+02  0.45113774845E+02  0.10195907855E+03  0.41800000000E+01 0. -1.
         -5    1    3    3    0  502 -0.13431204320E+02 -0.12768939681E+03  0.20921705736E+03  0.24550810332E+03  0.41800000000E+01 0. -1.
        -11    1    1    2    0    0 -0.33407590969E+02  0.15382081447E+03  0.87266947162E+02  0.17997897145E+03  0.00000000000E+00 0. -1.
         11    1    1    2    0    0 -0.14722473733E+02  0.41345532290E+02  0.99986344234E+02  0.10919465787E+03  0.00000000000E+00 0.  1.
</event>
<event>
 7    1  0.2394257E-009  0.3794719E+03  0.7561462E-02  0.1051129E+00
         -2   -1    0    0    0  501 -0.00000000000E+00  0.00000000000E+00  0.19593100033E+03  0.19593100033E+03  0.00000000000E+00 0.  1.
          2   -1    0    0  501    0  0.00000000000E+00 -0.00000000000E+00 -0.82058183741E+03  0.82058183741E+03  0.00000000000E+00 0. -1.
         25    2    1    2    0    0 -0.88433188037E+02 -0.35705933861E+03 -0.46171187934E+03  0.60344070343E+03  0.12510404867E+03 0.  0.
          5    1    3    3  502    0  0.31767517680E+02 -0.88157909330E+02 -0.11915368279E+03  0.15164453396E+03  0.41800000000E+01 0. -1.
         -5    1    3    3    0  502 -0.12020070572E+03 -0.26890142928E+03 -0.34255819655E+03  0.45179616947E+03  0.41800000000E+01 0. -1.
        -11    1    1    2    0    0  0.59011806606E+00  0.78199765775E+02  0.33524237942E+00  0.78202710912E+02  0.00000000000E+00 0. -1.
         11    1    1    2    0    0  0.87843069971E+02  0.27885957284E+03 -0.16327420011E+03  0.33486942340E+03  0.00000000000E+00 0.  1.
</event>
<event>
 7    1  0.2394257E-009  0.1489192E+03  0.7561462E-02  0.1201807E+00
         -2   -1    0    0    0  501 -0.00000000000E+00  0.00000000000E+00  0.28045259606E+03  0.28045259606E+03  0.00000000000E+00 0.  1.
          2   -1    0    0  501    0  0.00000000000E+00 -0.00000000000E+00 -0.13403972320E+03  0.13403972320E+03  0.00000000000E+00 0. -1.
         25    2    1    2    0    0 -0.91390171871E+02 -0.83338218186E+02 -0.31623019921E+02  0.17873305459E+03  0.12509223512E+03 0.  0.
          5    1    3    3  502    0 -0.42241282863E+01 -0.86573801307E+02 -0.29774208008E+01  0.86828588420E+02  0.41800000000E+01 0. -1.
         -5    1    3    3    0  502 -0.87166043585E+02  0.32355831207E+01 -0.28645599120E+02  0.91904466166E+02  0.41800000000E+01 0. -1.
        -11    1    1    2    0    0  0.80015059748E+02  0.71315982506E+02  0.18802361157E+03  0.21642841231E+03  0.00000000000E+00 0.  1.
         11    1    1    2    0    0  0.11375112123E+02  0.12022235680E+02 -0.99877187920E+01  0.19330852367E+02  0.00000000000E+00 0. -1.
</event>
<event>
 7    1  0.2394257E-009  0.1070753E+03  0.7561462E-02  0.1266084E+00
          2   -1    0    0  501    0  0.00000000000E+00  0.00000000000E+00  0.89013597565E+02  0.89013597565E+02  0.00000000000E+00 0. -1.
         -2   -1    0    0    0  501 -0.00000000000E+00 -0.00000000000E+00 -0.21751664258E+03  0.21751664258E+03  0.00000000000E+00 0.  1.
         25    2    1    2    0    0 -0.14520652844E+02 -0.61574140458E+02 -0.13663708871E+03  0.19575771372E+03  0.12509662000E+03 0.  0.
          5    1    3    3  502    0  0.38786366376E+02 -0.45454676537E+02 -0.12514265114E+03  0.13873955950E+03  0.41800000000E+01 0. -1.
         -5    1    3    3    0  502 -0.53307019220E+02 -0.16119463921E+02 -0.11494437576E+02  0.57018154218E+02  0.41800000000E+01 0. -1.
        -11    1    1    2    0    0  0.37147917804E+02  0.50136784185E+01  0.27899287222E+02  0.46727668420E+02  0.00000000000E+00 0. -1.
         11    1    1    2    0    0 -0.22627264960E+02  0.56560462039E+02 -0.19765243520E+02  0.64044858007E+02  0.00000000000E+00 0.  1.
</event>
<event>
 7    1  0.2394257E-009  0.9561083E+02  0.7561462E-02  0.1289806E+00
          1   -1    0    0  501    0  0.00000000000E+00  0.00000000000E+00  0.12320698908E+04  0.12320698908E+04  0.00000000000E+00 0. -1.
         -1   -1    0    0    0  501 -0.00000000000E+00 -0.00000000000E+00 -0.16284493033E+02  0.16284493033E+02  0.00000000000E+00 0.  1.
         25    2    1    2    0    0 -0.16060566539E+02  0.33246903918E+02  0.10283560909E+04  0.10365936277E+04  0.12508717330E+03 0.  0.
          5    1    3    3  502    0  0.29271370833E+02 -0.91671398990E+01  0.74037453509E+02  0.80248778972E+02  0.41800000000E+01 0. -1.
         -5    1    3    3    0  502 -0.45331937372E+02  0.42414043817E+02  0.95431863734E+03  0.95634484870E+03  0.41800000000E+01 0. -1.
        -11    1    1    2    0    0 -0.10054612591E+02  0.28918306460E+02  0.48916096167E+02  0.57707435804E+02  0.00000000000E+00 0.  1.
         11    1    1    2    0    0  0.26115179130E+02 -0.62165210377E+02  0.13851321079E+03  0.15405332040E+03  0.00000000000E+00 0. -1.
</event>
<event>
 7    1  0.2394257E-009  0.1016866E+03  0.7561462E-02  0.1276789E+00
         -2   -1    0    0    0  501 -0.00000000000E+00  0.00000000000E+00  0.91287771314E+02  0.91287771314E+02  0.00000000000E+00 0. -1.
          2   -1    0    0  501    0  0.00000000000E+00 -0.00000000000E+00 -0.20594939723E+03  0.20594939723E+03  0.00000000000E+00 0.  1.
         25    2    1    2    0    0 -0.66104753022E+02 -0.41269367119E+02 -0.96243738767E+02  0.17602145474E+03  0.12509075202E+03 0.  0.
          5    1    3    3  502    0  0.10022427017E+02 -0.46666180857E+02  0.60858701575E+01  0.48297947106E+02  0.41800000000E+01 0.  1.
         -5    1    3    3    0  502 -0.76127180039E+02  0.53968137380E+01 -0.10232960892E+03  0.12772350763E+03  0.41800000000E+01 0.  1.
        -11    1    1    2    0    0  0.44142633709E+02  0.34564127461E+02 -0.54667030109E+02  0.78305396998E+02  0.00000000000E+00 0.  1.
         11    1    1    2    0    0  0.21962119312E+02  0.67052396575E+01  0.36249142959E+02  0.42910316811E+02  0.00000000000E+00 0. -1.
</event>
<event>
 7    1  0.2394257E-009  0.1090490E+03  0.7561462E-02  0.1262341E+00
         -2   -1    0    0    0  501 -0.00000000000E+00  0.00000000000E+00  0.19067640884E+03  0.19067640884E+03  0.00000000000E+00 0.  1.
          2   -1    0    0  501    0  0.00000000000E+00 -0.00000000000E+00 -0.72417881675E+02  0.72417881675E+02  0.00000000000E+00 0. -1.
         25    2    1    2    0    0  0.23763736039E+02  0.38353146165E+02  0.55974983510E+02  0.14428133723E+03  0.12509287159E+03 0.  0.
          5    1    3    3  502    0  0.55459521665E+02 -0.22020711070E+02  0.70039220899E+01  0.60226220070E+02  0.41800000000E+01 0.  1.
         -5    1    3    3    0  502 -0.31695785626E+02  0.60373857235E+02  0.48971061420E+02  0.84055117158E+02  0.41800000000E+01 0.  1.
        -11    1    1    2    0    0 -0.26779522646E+02 -0.61261159023E+02  0.67627244961E+02  0.95097406374E+02  0.00000000000E+00 0.  1.
         11    1    1    2    0    0  0.30157866071E+01  0.22908012857E+02 -0.53437013033E+01  0.23715546917E+02  0.00000000000E+00 0. -1.
</event>
<event>
 7    1  0.2394257E-009  0.1188294E+03  0.7561462E-02  0.1245041E+00
         -1   -1    0    0    0  501 -0.00000000000E+00  0.00000000000E+00  0.13794627451E+03  0.13794627451E+03  0.00000000000E+00 0.  1.
          1   -1    0    0  501    0  0.00000000000E+00 -0.00000000000E+00 -0.14746453038E+03  0.14746453038E+03  0.00000000000E+00 0. -1.
         25    2    1    2    0    0 -0.17861673098E+02 -0.83524868887E+02 -0.39153829099E+02  0.15644815553E+03  0.12509020724E+03 0.  0.
          5    1    3    3  502    0 -0.45054247933E+02  0.13492003735E+02  0.26353705715E+01  0.47289924928E+02  0.41800000000E+01 0. -1.
         -5    1    3    3    0  502  0.27192574835E+02 -0.97016872622E+02 -0.41789199671E+02  0.10915823060E+03  0.41800000000E+01 0. -1.
        -11    1    1    2    0    0  0.24552871802E+02  0.73944452868E+02 -0.17956744911E+02  0.79956677717E+02  0.00000000000E+00 0. -1.
         11    1    1    2    0    0 -0.66911987032E+01  0.95804160187E+01  0.47592318133E+02  0.49005971641E+02  0.00000000000E+00 0.  1.
</event>
<event>
 7    1  0.2394257E-009  0.7275951E+02  0.7561462E-02  0.1350953E+00
          1   -1    0    0  501    0  0.00000000000E+00  0.00000000000E+00  0.20529625721E+03  0.20529625721E+03  0.00000000000E+00 0. -1.
         -1   -1    0    0    0  501 -0.00000000000E+00 -0.00000000000E+00 -0.77491296946E+02  0.77491296946E+02  0.00000000000E+00 0.  1.
         25    2    1    2    0    0  0.33812028973E+02 -0.40432645952E+02  0.28689507260E+02  0.13874766809E+03  0.12509906239E+03 0.  0.
          5    1    3    3  502    0 -0.72963020821E+01  0.46505654145E+01 -0.43263205031E+02  0.44317503227E+02  0.41800000000E+01 0. -1.
         -5    1    3    3    0  502  0.41108331055E+02 -0.45083211366E+02  0.71952712290E+02  0.94430164858E+02  0.41800000000E+01 0. -1.
        -11    1    1    2    0    0 -0.47432842698E+02  0.23237299939E+02  0.11946579165E+02  0.54153184843E+02  0.00000000000E+00 0.  1.
         11    1    1    2    0    0  0.13620813725E+02  0.17195346013E+02  0.87168873840E+02  0.89886701228E+02  0.00000000000E+00 0. -1.
</event>
<event>
 7    1  0.2394257E-009  0.1344258E+03  0.7561462E-02  0.1221033E+00
          4   -1    0    0  501    0  0.00000000000E+00  0.00000000000E+00  0.56626621734E+03  0.56626621734E+03  0.00000000000E+00 0. -1.
         -4   -1    0    0    0  501 -0.00000000000E+00 -0.00000000000E+00 -0.34800864140E+02  0.34800864140E+02  0.00000000000E+00 0.  1.
         25    2    1    2    0    0  0.87192904573E+02  0.10565495022E+02  0.25656676632E+03  0.29864307278E+03  0.12508775737E+03 0.  0.
          5    1    3    3  502    0  0.88103630189E+02 -0.43658356200E+02  0.16216645867E+03  0.18969379124E+03  0.41800000000E+01 0.  1.
         -5    1    3    3    0  502 -0.91072561587E+00  0.54223851221E+02  0.94400307646E+02  0.10894928153E+03  0.41800000000E+01 0.  1.
        -11    1    1    2    0    0  0.10460503891E+02 -0.15001892935E+02  0.10354515331E+03  0.10514788494E+03  0.00000000000E+00 0. -1.
         11    1    1    2    0    0 -0.97653408464E+02  0.44363979133E+01  0.17135343357E+03  0.19727612377E+03  0.00000000000E+00 0.  1.
</event>
<event>
 7    1  0.2394257E-009  0.4526233E+02  0.7561462E-02  0.1472711E+00
         -3   -1    0    0    0  501 -0.00000000000E+00  0.00000000000E+00  0.83770930070E+02  0.83770930070E+02  0.00000000000E+00 0.  1.
          3   -1    0    0  501    0  0.00000000000E+00 -0.00000000000E+00 -0.15761888050E+03  0.15761888050E+03  0.00000000000E+00 0. -1.
         25    2    1    2    0    0 -0.17943661165E+02  0.10808562806E+02 -0.25147997659E+01  0.12685030084E+03  0.12508347053E+03 0.  0.
          5    1    3    3  502    0  0.48768452817E+00 -0.32187953844E+01  0.59905908320E+02  0.60139743361E+02  0.41800000000E+01 0. -1.
         -5    1    3    3    0  502 -0.18431345693E+02  0.14027358190E+02 -0.62420708086E+02  0.66710557483E+02  0.41800000000E+01 0. -1.
        -11    1    1    2    0    0  0.24218174448E+02 -0.31691107625E+02  0.65558848667E-01  0.39885468207E+02  0.00000000000E+00 0.  1.
         11    1    1    2    0    0 -0.62745132833E+01  0.20882544820E+02 -0.71398709514E+02  0.74654041521E+02  0.00000000000E+00 0. -1.
</event>
<event>
 7    1  0.2394257E-009  0.2421418E+03  0.7561462E-02  0.1118374E+00
          3   -1    0    0  501    0  0.00000000000E+00  0.00000000000E+00  0.45771461455E+03  0.45771461455E+03  0.00000000000E+00 0. -1.
         -3   -1    0    0    0  501 -0.00000000000E+00 -0.00000000000E+00 -0.13320355883E+03  0.13320355883E+03  0.00000000000E+00 0.  1.
         25    2    1    2    0    0  0.12353069044E+03 -0.18463195236E+03  0.16167611228E+03  0.30188605631E+03  0.12508891399E+03 0.  0.
          5    1    3    3  502    0  0.14619674948E+03 -0.13306604197E+03  0.11599626730E+03  0.22924368587E+03  0.41800000000E+01 0. -1.
         -5    1    3    3    0  502 -0.22666059042E+02 -0.51565910383E+02  0.45679844976E+02  0.72642370440E+02  0.41800000000E+01 0. -1.
        -11    1    1    2    0    0 -0.11840087054E+03  0.13252837478E+03  0.15554585670E+03  0.23617165326E+03  0.00000000000E+00 0.  1.
         11    1    1    2    0    0 -0.51298198926E+01  0.52103577579E+02  0.72890867526E+01  0.52860463811E+02  0.00000000000E+00 0. -1.
</event>
<event>
 7    1  0.2394257E-009  0.9421687E+02  0.7561462E-02  0.1292950E+00
          2   -1    0    0  501    0  0.00000000000E+00  0.00000000000E+00  0.30224362470E+03  0.30224362470E+03  0.00000000000E+00 0. -1.
         -2   -1    0    0    0  501 -0.00000000000E+00 -0.00000000000E+00 -0.50686230336E+02  0.50686230336E+02  0.00000000000E+00 0.  1.
         25    2    1    2    0    0  0.39197281905E+02 -0.87251451841E+01  0.78334002872E+02  0.15295632703E+03  0.12508743704E+03 0.  0.
          5    1    3    3  502    0  0.25313685264E+02 -0.56715204078E+02  0.28150719478E+01  0.62312069981E+02  0.41800000000E+01 0. -1.
         -5    1    3    3    0  502  0.13883596642E+02  0.47990058894E+02  0.75518930925E+02  0.90644257051E+02  0.41800000000E+01 0. -1.
        -11    1    1    2    0    0 -0.55814501419E+02 -0.27113883758E+01  0.17073644704E+03  0.17964839143E+03  0.00000000000E+00 0. -1.
         11    1    1    2    0    0  0.16617219514E+02  0.11436533560E+02  0.24869444579E+01  0.20325136579E+02  0.00000000000E+00 0.  1.
</event>
<event>
 7    1  0.2394257E-009  0.1209741E+03  0.7561462E-02  0.1241499E+00
          3   -1    0    0  501    0  0.00000000000E+00  0.00000000000E+00  0.32894161947E+03  0.32894161947E+03  0.00000000000E+00 0. -1.
         -3   -1    0    0    0  501 -0.00000000000E+00 -0.00000000000E+00 -0.59877101993E+02  0.59877101993E+02  0.00000000000E+00 0.  1.
         25    2    1    2    0    0  0.64849739377E+02  0.57662396202E+02  0.16399370713E+03  0.22376693467E+03  0.12508902605E+03 0.  0.
          5    1    3    3  502    0  0.97685220258E+02  0.65249551462E+02  0.11761551637E+03  0.16628526187E+03  0.41800000000E+01 0.  1.
         -5    1    3    3    0  502 -0.32835480881E+02 -0.75871552592E+01  0.46378190760E+02  0.57481672799E+02  0.41800000000E+01 0.  1.
        -11    1    1    2    0    0 -0.24453251768E+02 -0.38790258965E+02 -0.51607682281E+01  0.46144113832E+02  0.00000000000E+00 0.  1.
         11    1    1    2    0    0 -0.40396487609E+02 -0.18872137237E+02  0.11023157857E+03  0.11890767296E+03  0.00000000000E+00 0. -1.
</event>
<event>
 7    1  0.2394257E-009  0.1046886E+03  0.7561462E-02  0.1270734E+00
          1   -1    0    0  501    0  0.00000000000E+00  0.00000000000E+00  0.32795333896E+03  0.32795333896E+03  0.00000000000E+00 0. -1.
         -1   -1    0    0    0  501 -0.00000000000E+00 -0.00000000000E+00 -0.43415129220E+02  0.43415129220E+02  0.00000000000E+00 0.  1.
         25    2    1    2    0    0  0.48983094926E+02  0.10811270742E+02  0.15123169399E+03  0.20257035899E+03  0.12508995928E+03 0.  0.
          5    1    3    3  502    0  0.36970750427E+02  0.63996174596E+02  0.56254001970E+02  0.92974899234E+02  0.41800000000E+01 0.  1.
         -5    1    3    3    0  502  0.12012344498E+02 -0.53184903853E+02  0.94977692015E+02  0.10959545975E+03  0.41800000000E+01 0.  1.
        -11    1    1    2    0    0  0.78071841559E+01 -0.21505196767E+02  0.98966606907E+02  0.10157664542E+03  0.00000000000E+00 0. -1.
         11    1    1    2    0    0 -0.56790279081E+02  0.10693926025E+02  0.34339908852E+02  0.67221463774E+02  0.00000000000E+00 0.  1.
</event>
<event>
 7    1  0.2394257E-009  0.1075778E+03  0.7561462E-02  0.1265122E+00
          1   -1    0    0  501    0  0.00000000000E+00  0.00000000000E+00  0.60560909776E+02  0.60560909776E+02  0.00000000000E+00 0. -1.
         -1   -1    0    0    0  501 -0.00000000000E+00 -0.00000000000E+00 -0.23697748891E+03  0.23697748891E+03  0.00000000000E+00 0.  1.
         25    2    1    2    0    0 -0.22893900443E+02 -0.44652054335E+02 -0.12034589147E+03  0.18068806489E+03  0.12508839500E+03 0.  0.
          5    1    3    3  502    0 -0.18831617469E+02 -0.84595888086E+02 -0.10787273009E+03  0.13843804533E+03  0.41800000000E+01 0.  1.
         -5    1    3    3    0  502 -0.40622829744E+01  0.39943833750E+02 -0.12473161382E+02  0.42250019556E+02  0.41800000000E+01 0.  1.
        -11    1    1    2    0    0  0.23281326271E+02  0.64292116693E+02 -0.65829596168E+02  0.94915921496E+02  0.00000000000E+00 0.  1.
         11    1    1    2    0    0 -0.38742582801E+00 -0.19640062357E+02  0.97589085017E+01  0.21934412308E+02  0.00000000000E+00 0. -1.
</event>
<event>
 7    1  0.2394257E-009  0.1133656E+03  0.7561462E-02  0.1254461E+00
          1   -1    0    0  501    0  0.00000000000E+00  0.00000000000E+00  0.73467421715E+02  0.73467421715E+02  0.00000000000E+00 0. -1.
         -1   -1    0    0    0  501 -0.00000000000E+00 -0.00000000000E+00 -0.33520939435E+03  0.33520939435E+03  0.00000000000E+00 0.  1.
         25    2    1    2    0    0 -0.11205826735E+03 -0.15171011691E+02 -0.14758004526E+03  0.22408613636E+03  0.12509001507E+03 0.  0.
          5    1    3    3  502    0 -0.28019637298E+02 -0.56875384555E+01 -0.13550823209E+03  0.13855468788E+03  0.41800000000E+01 0.  1.
         -5    1    3    3    0  502 -0.84038630056E+02 -0.94834732350E+01 -0.12071813167E+02  0.85531448482E+02  0.41800000000E+01 0.  1.
        -11    1    1    2    0    0  0.39334633550E+02  0.32756034601E+01 -0.10268811967E+03  0.11001269425E+03  0.00000000000E+00 0.  1.
         11    1    1    2    0    0  0.72723633805E+02  0.11895408230E+02 -0.11473807700E+02  0.74577985451E+02  0.00000000000E+00 0. -1.
</event>
<event>
 7    1  0.2394257E-009  0.1510068E+03  0.7561462E-02  0.1199241E+00
          2   -1    0    0  501    0  0.00000000000E+00  0.00000000000E+00  0.74623659278E+02  0.74623659278E+02  0.00000000000E+00 0. -1.
         -2   -1    0    0    0  501 -0.00000000000E+00 -0.00000000000E+00 -0.32784390956E+03  0.32784390956E+03  0.00000000000E+00 0.  1.
         25    2    1    2    0    0  0.96018676091E+02  0.57589042404E+02 -0.13808903225E+03  0.21737728524E+03  0.12509284291E+03 0.  0.
          5    1    3    3  502    0  0.82178023730E+01 -0.37047284787E+02 -0.24401225554E+02  0.45309224165E+02  0.41800000000E+01 0. -1.
         -5    1    3    3    0  502  0.87800873718E+02  0.94636327191E+02 -0.11368780670E+03  0.17206806107E+03  0.41800000000E+01 0. -1.
        -11    1    1    2    0    0 -0.35501708446E+02 -0.64641680009E+02 -0.96348874151E+02  0.12133434653E+03  0.00000000000E+00 0.  1.
         11    1    1    2    0    0 -0.60516967645E+02  0.70526376050E+01 -0.18782343878E+02  0.63755937070E+02  0.00000000000E+00 0. -1.
</event>
<event>
 7    1  0.2394257E-009  0.2070680E+03  0.7561462E-02  0.1143909E+00
         -2   -1    0    0    0  501 -0.00000000000E+00  0.00000000000E+00  0.12138358628E+03  0.12138358628E+03  0.00000000000E+00 0.  1.
          2   -1    0    0  501    0  0.00000000000E+00 -0.00000000000E+00 -0.43862737245E+03  0.43862737245E+03  0.00000000000E+00 0. -1.
         25    2    1    2    0    0 -0.10140112270E+03 -0.17126262890E+03 -0.18584841311E+03  0.29966552055E+03  0.12508683308E+03 0.  0.
          5    1    3    3  502    0 -0.80907546513E+02 -0.67431983993E+02 -0.27113073854E+02  0.10883792869E+03  0.41800000000E+01 0.  1.
         -5    1    3    3    0  502 -0.20493576187E+02 -0.10383064490E+03 -0.15873533926E+03  0.19082759186E+03  0.41800000000E+01 0.  1.
        -11    1    1    2    0    0  0.99993619173E+02  0.14287413803E+03 -0.61541058846E+02  0.18492983836E+03  0.00000000000E+00 0.  1.
         11    1    1    2    0    0  0.14075035260E+01  0.28388490866E+02 -0.69854314220E+02  0.75415599812E+02  0.00000000000E+00 0. -1.
</event>
<event>
 7    1  0.2394257E-009  0.1342937E+03  0.7561462E-02  0.1221220E+00
         -2   -1    0    0    0  501 -0.00000000000E+00  0.00000000000E+00  0.10628845151E+03  0.10628845151E+03  0.00000000000E+00 0.  1.
          2   -1    0    0  501    0  0.00000000000E+00 -0.00000000000E+00 -0.35126654666E+03  0.35126654666E+03  0.00000000000E+00 0. -1.
         25    2    1    2    0    0  0.10077968359E+03 -0.15758939856E+02  0.15552886612E+02  0.16216110829E+03  0.12509773760E+03 0.  0.
          5    1    3    3  502    0  0.70768116755E+02 -0.69674449019E+02  0.59896838355E+01  0.99579133896E+02  0.41800000000E+01 0. -1.
         -5    1    3    3    0  502  0.30011566832E+02  0.53915509163E+02  0.95632027766E+01  0.62581974396E+02  0.41800000000E+01 0. -1.
        -11    1    1    2    0    0 -0.64343564705E+02  0.26147569641E+02 -0.24464040296E+03  0.25430830989E+03  0.00000000000E+00 0. -1.
         11    1    1    2    0    0 -0.36436118882E+02 -0.10388629786E+02 -0.15890578802E+02  0.41085579984E+02  0.00000000000E+00 0.  1.
</event>
<event>
 7    1  0.2394257E-009  0.9830291E+02  0.7561462E-02  0.1283906E+00
         -1   -1    0    0    0  501 -0.00000000000E+00  0.00000000000E+00  0.38539572411E+02  0.38539572411E+02  0.00000000000E+00 0.  1.
          1   -1    0    0  501    0  0.00000000000E+00 -0.00000000000E+00 -0.49630832637E+03  0.49630832637E+03  0.00000000000E+00 0. -1.
         25    2    1    2    0    0  0.36308148631E+02 -0.37304041547E+02 -0.38201256313E+03  0.40532653193E+03  0.12508447517E+03 0.  0.
          5    1    3    3  502    0  0.58592179266E+02  0.12068389258E+02 -0.88988978610E+02  0.10730890086E+03  0.41800000000E+01 0. -1.
         -5    1    3    3    0  502 -0.22284030634E+02 -0.49372430804E+02 -0.29302358452E+03  0.29801763107E+03  0.41800000000E+01 0. -1.
        -11    1    1    2    0    0 -0.77878818727E+01 -0.18260454555E+02 -0.62629291871E+02  0.65700254984E+02  0.00000000000E+00 0. -1.
         11    1    1    2    0    0 -0.28520266759E+02  0.55564496102E+02 -0.13126898958E+02  0.63821111862E+02  0.00000000000E+00 0.  1.
</event>
<event>
 7    1  0.2597554E-009  0.1142506E+03  0.7561462E-02  0.1252895E+00
         -2   -1    0    0    0  501 -0.00000000000E+00  0.00000000000E+00  0.36086565509E+02  0.36086565509E+02  0.00000000000E+00 0.  1.
          2   -1    0    0  501    0  0.00000000000E+00 -0.00000000000E+00 -0.68498595192E+03  0.68498595192E+03  0.00000000000E+00 0. -1.
         25    2    1    2    0    0 -0.99687626513E+02  0.29262388000E+02 -0.24468750963E+03  0.29379113677E+03  0.12508934584E+03 0.  0.
          5    1    3    3  502    0  0.87940433340E-01 -0.65589021215E+01  0.12982542292E+02  0.15134256999E+02  0.41800000000E+01 0. -1.
         -5    1    3    3    0  502 -0.99775566947E+02  0.35821290121E+02 -0.25767005192E+03  0.27865687977E+03  0.41800000000E+01 0. -1.
        -11    1    1    2    0    0  0.32293129160E+02  0.13295227401E+02 -0.34555684972E+02  0.49129468005E+02  0.00000000000E+00 0.  1.
         11    1    1    2    0    0  0.67394497354E+02 -0.42557615401E+02 -0.36965619181E+03  0.37815191265E+03  0.00000000000E+00 0. -1.
</event>
<event>
 7    1  0.2394257E-009  0.1071056E+03  0.7561462E-02  0.1266026E+00
         -1   -1    0    0    0  501 -0.00000000000E+00  0.00000000000E+00  0.33630881944E+02  0.33630881944E+02  0.00000000000E+00 0.  1.
          1   -1    0    0  501    0  0.00000000000E+00 -0.00000000000E+00 -0.34308285853E+03  0.34308285853E+03  0.00000000000E+00 0. -1.
         25    2    1    2    0    0 -0.76390146011E+01  0.45796355763E+01 -0.18529956229E+03  0.22374840428E+03  0.12509233800E+03 0.  0.
          5    1    3    3  502    0  0.24474845514E+02 -0.53460556014E+02 -0.86925382623E+02  0.10502639505E+03  0.41800000000E+01 0. -1.
         -5    1    3    3    0  502 -0.32113860116E+02  0.58040191590E+02 -0.98374179669E+02  0.11872200924E+03  0.41800000000E+01 0. -1.
        -11    1    1    2    0    0 -0.12669521625E+02  0.38847425126E+02 -0.48710489278E+02  0.63579485550E+02  0.00000000000E+00 0.  1.
         11    1    1    2    0    0  0.20308536227E+02 -0.43427060702E+02 -0.75441925021E+02  0.89385850646E+02  0.00000000000E+00 0. -1.
</event>
<event>
 7    1  0.2394257E-009  0.1724781E+03  0.7561462E-02  0.1175288E+00
          1   -1    0    0  501    0  0.00000000000E+00  0.00000000000E+00  0.43716873143E+03  0.43716873143E+03  0.00000000000E+00 0. -1.
         -1   -1    0    0    0  501 -0.00000000000E+00 -0.00000000000E+00 -0.77034577350E+02  0.77034577350E+02  0.00000000000E+00 0.  1.
         25    2    1    2    0    0  0.25239959707E+01 -0.14823505841E+03  0.17841417361E+03  0.26354400719E+03  0.12507527047E+03 0.  0.
          5    1    3    3  502    0  0.62442937330E+01  0.18229323658E+02  0.34598334890E+00  0.19720333408E+02  0.41800000000E+01 0.  1.
         -5    1    3    3    0  502 -0.37202977623E+01 -0.16646438207E+03  0.17806819026E+03  0.24382367378E+03  0.41800000000E+01 0.  1.
        -11    1    1    2    0    0 -0.29492528364E+02  0.71466939288E+02  0.13827144886E+03  0.15841820038E+03  0.00000000000E+00 0. -1.
         11    1    1    2    0    0  0.26968532393E+02  0.76768119127E+02  0.43448531610E+02  0.92241101212E+02  0.00000000000E+00 0.  1.
</event>
<event>
 7    1  0.2394257E-009  0.1634777E+03  0.7561462E-02  0.1184825E+00
         -1   -1    0    0    0  501 -0.00000000000E+00  0.00000000000E+00  0.44329835402E+02  0.44329835402E+02  0.00000000000E+00 0.  1.
          1   -1    0    0  501    0  0.00000000000E+00 -0.00000000000E+00 -0.10733408569E+04  0.10733408569E+04  0.00000000000E+00 0. -1.
         25    2    1    2    0    0  0.10033091443E+03 -0.10148048672E+03 -0.21662117052E+03  0.28798712019E+03  0.12508904151E+03 0.  0.
          5    1    3    3  502    0  0.32985050616E+02 -0.85865663369E+02 -0.19464497051E+03  0.21532548074E+03  0.41800000000E+01 0. -1.
         -5    1    3    3    0  502  0.67345863812E+02 -0.15614823355E+02 -0.21976200001E+02  0.72661639450E+02  0.41800000000E+01 0. -1.
        -11    1    1    2    0    0 -0.16390457675E+02  0.76215898279E+02 -0.30674479753E+03  0.31649625759E+03  0.00000000000E+00 0.  1.
         11    1    1    2    0    0 -0.83940456753E+02  0.25264588446E+02 -0.50564505346E+03  0.51318731453E+03  0.00000000000E+00 0. -1.
</event>
<event>
 7    1  0.2394257E-009  0.5721118E+02  0.7561462E-02  0.1409922E+00
          1   -1    0    0  501    0  0.00000000000E+00  0.00000000000E+00  0.79966838380E+02  0.79966838380E+02  0.00000000000E+00 0. -1.
         -1   -1    0    0    0  501 -0.00000000000E+00 -0.00000000000E+00 -0.15605280221E+03  0.15605280221E+03  0.00000000000E+00 0.  1.
         25    2    1    2    0    0 -0.13669172880E+01 -0.74716569571E+01 -0.66950366537E+02  0.14208317465E+03  0.12509029866E+03 0.  0.
          5    1    3    3  502    0 -0.16059841903E+02 -0.10290830434E+02 -0.10194368787E+03  0.10379695376E+03  0.41800000000E+01 0.  1.
         -5    1    3    3    0  502  0.14692924615E+02  0.28191734765E+01  0.34993321331E+02  0.38286220898E+02  0.41800000000E+01 0.  1.
        -11    1    1    2    0    0 -0.33087711145E+02  0.24265850255E+02  0.20137328666E+02  0.45707112392E+02  0.00000000000E+00 0. -1.
         11    1    1    2    0    0  0.34454628433E+02 -0.16794193298E+02 -0.29272925956E+02  0.48229353541E+02  0.00000000000E+00 0.  1.
</event>
<event>
 7    1  0.2394257E-009  0.1014529E+03  0.7561462E-02  0.1277270E+00
          1   -1    0    0  501    0  0.00000000000E+00  0.00000000000E+00  0.63040068902E+02  0.63040068902E+02  0.00000000000E+00 0. -1.
         -1   -1    0    0    0  501 -0.00000000000E+00 -0.00000000000E+00 -0.18989481216E+03  0.18989481216E+03  0.00000000000E+00 0.  1.
         25    2    1    2    0    0 -0.17860117131E+02  0.47072665130E+02 -0.84267132701E+02  0.15900917124E+03  0.12509255493E+03 0.  0.
          5    1    3    3  502    0 -0.13312070192E+02 -0.41716171708E+02 -0.40642791671E+02  0.59889557600E+02  0.41800000000E+01 0.  1.
         -5    1    3    3    0  502 -0.45480469391E+01  0.88788836837E+02 -0.43624341030E+02  0.99119613640E+02  0.41800000000E+01 0.  1.
        -11    1    1    2    0    0  0.31753213778E+02 -0.15320312806E+02  0.44097998966E+01  0.35530619258E+02  0.00000000000E+00 0. -1.
         11    1    1    2    0    0 -0.13893096647E+02 -0.31752352323E+02 -0.46997410450E+02  0.58395090560E+02  0.00000000000E+00 0.  1.
</event>
<event>
 7    1  0.2394257E-009  0.9955376E+02  0.7561462E-02  0.1281237E+00
          2   -1    0    0  501    0  0.00000000000E+00  0.00000000000E+00  0.16498392589E+03  0.16498392589E+03  0.00000000000E+00 0. -1.
         -2   -1    0    0    0  501 -0.00000000000E+00 -0.00000000000E+00 -0.11429919107E+03  0.11429919107E+03  0.00000000000E+00 0.  1.
         25    2    1    2    0    0 -0.35933700390E+01 -0.26970957583E+02  0.11854178966E+03  0.17446551663E+03  0.12508283550E+03 0.  0.
          5    1    3    3  502    0 -0.31392124306E+02 -0.69744305869E+02  0.76099375647E+02  0.10797370533E+03  0.41800000000E+01 0. -1.
         -5    1    3    3    0  502  0.27798754267E+02  0.42773348286E+02  0.42442414013E+02  0.66491811298E+02  0.41800000000E+01 0. -1.
        -11    1    1    2    0    0 -0.27282058941E+02 -0.40234597906E+01 -0.46795398126E+01  0.27971361454E+02  0.00000000000E+00 0. -1.
         11    1    1    2    0    0  0.30875428980E+02  0.30994417374E+02 -0.63177515029E+02  0.76846238869E+02  0.00000000000E+00 0.  1.
</event>
<event>
 7    1  0.2394257E-009  0.1167777E+03  0.7561462E-02  0.1248510E+00
         -1   -1    0    0    0  501 -0.00000000000E+00  0.00000000000E+00  0.17315551955E+03  0.17315551955E+03  0.00000000000E+00 0.  1.
          1   -1    0    0  501    0  0.00000000000E+00 -0.00000000000E+00 -0.11144009534E+03  0.11144009534E+03  0.00000000000E+00 0. -1.
         25    2    1    2    0    0  0.85780525405E+02 -0.18786661574E+01  0.29125081022E+02  0.15445989781E+03  0.12509101391E+03 0.  0.
          5    1    3    3  502    0  0.95734616368E+02 -0.72840411270E+01  0.65389311390E+02  0.11623858426E+03  0.41800000000E+01 0.  1.
         -5    1    3    3    0  502 -0.99540909624E+01  0.54053749695E+01 -0.36264230368E+02  0.38221313552E+02  0.41800000000E+01 0.  1.
        -11    1    1    2    0    0 -0.88777462993E+02  0.32554062979E+02  0.18985111588E+02  0.96445007200E+02  0.00000000000E+00 0.  1.
         11    1    1    2    0    0  0.29969375874E+01 -0.30675396821E+02  0.13605231605E+02  0.33690709878E+02  0.00000000000E+00 0. -1.
</event>
<event>
 7    1  0.2394257E-009  0.9759068E+02  0.7561462E-02  0.1285446E+00
          4   -1    0    0  501    0  0.00000000000E+00  0.00000000000E+00  0.14376767230E+03  0.14376767230E+03  0.00000000000E+00 0. -1.
         -4   -1    0    0    0  501 -0.00000000000E+00 -0.00000000000E+00 -0.20148783587E+03  0.20148783587E+03  0.00000000000E+00 0.  1.
         25    2    1    2    0    0 -0.18735507853E+02  0.91688392241E+02 -0.12396631374E+03  0.19943100381E+03  0.12508915945E+03 0.  0.
          5    1    3    3  502    0 -0.20110605440E+02  0.26496252285E+02  0.21593898522E+02  0.39878022641E+02  0.41800000000E+01 0.  1.
         -5    1    3    3    0  502  0.13750975866E+01  0.65192139955E+02 -0.14556021226E+03  0.15955298117E+03  0.41800000000E+01 0.  1.
        -11    1    1    2    0    0  0.18542201380E+02 -0.34842516187E+02  0.78326462651E+02  0.87708887336E+02  0.00000000000E+00 0. -1.
         11    1    1    2    0    0  0.19330647273E+00 -0.56845876054E+02 -0.12080312482E+02  0.58115617018E+02  0.00000000000E+00 0.  1.
</event>
<event>
 7    1  0.2394257E-009  0.1370878E+03  0.7561462E-02  0.1217302E+00
         -2   -1    0    0    0  501 -0.00000000000E+00  0.00000000000E+00  0.12732603145E+03  0.12732603145E+03  0.00000000000E+00 0.  1.
          2   -1    0    0  501    0  0.00000000000E+00 -0.00000000000E+00 -0.24843481901E+03  0.24843481901E+03  0.00000000000E+00 0. -1.
         25    2    1    2    0    0  0.78041195026E+02 -0.48604338665E+02 -0.17643596461E+03  0.23501040917E+03  0.12508969964E+03 0.  0.
          5    1    3    3  502    0 -0.82204184970E+01  0.28423668471E+02 -0.85076528680E+01  0.31069804746E+02  0.41800000000E+01 0. -1.
         -5    1    3    3    0  502  0.86261613523E+02 -0.77028007136E+02 -0.16792831174E+03  0.20394060443E+03  0.41800000000E+01 0. -1.
        -11    1    1    2    0    0 -0.69466960519E+02 -0.92532765006E+01  0.22103973212E+02  0.73483789787E+02  0.00000000000E+00 0.  1.
         11    1    1    2    0    0 -0.85742345065E+01  0.57857615166E+02  0.33223203833E+02  0.67266651492E+02  0.00000000000E+00 0. -1.
</event>
<event>
 7    1  0.2394257E-009  0.9516810E+02  0.7561462E-02  0.1290798E+00
         -1   -1    0    0    0  501 -0.00000000000E+00  0.00000000000E+00  0.11514723490E+03  0.11514723490E+03  0.00000000000E+00 0.  1.
          1   -1    0    0  501    0  0.00000000000E+00 -0.00000000000E+00 -0.12088945525E+03  0.12088945525E+03  0.00000000000E+00 0. -1.
         25    2    1    2    0    0  0.29697242210E+00  0.46634072964E+02 -0.21429344738E+01  0.13351743995E+03  0.12508992625E+03 0.  0.
          5    1    3    3  502    0  0.31043761752E+02  0.69387875950E+02  0.31514974893E+02  0.82395743307E+02  0.41800000000E+01 0.  1.
         -5    1    3    3    0  502 -0.30746789330E+02 -0.22753802986E+02 -0.33657909367E+02  0.51121696640E+02  0.41800000000E+01 0.  1.
        -11    1    1    2    0    0  0.18766694407E+02  0.60359883524E+01 -0.33615711092E+02  0.38969706268E+02  0.00000000000E+00 0. -1.
         11    1    1    2    0    0 -0.19063666829E+02 -0.52670061316E+02  0.30016425208E+02  0.63549543934E+02  0.00000000000E+00 0.  1.
</event>
<event>
 7    1  0.2394257E-009  0.1077067E+03  0.7561462E-02  0.1264877E+00
         -3   -1    0    0    0  501 -0.00000000000E+00  0.00000000000E+00  0.76819538995E+02  0.76819538995E+02  0.00000000000E+00 0.  1.
          3   -1    0    0  501    0  0.00000000000E+00 -0.00000000000E+00 -0.23550915799E+03  0.23550915799E+03  0.00000000000E+00 0. -1.
         25    2    1    2    0    0 -0.33462050649E+02  0.37099217856E+02 -0.88056819667E+01  0.13498673416E+03  0.12509123697E+03 0.  0.
          5    1    3    3  502    0 -0.77894316351E+02  0.30542940102E+02 -0.24409766492E+02  0.87256545944E+02  0.41800000000E+01 0. -1.
         -5    1    3    3    0  502  0.44432265702E+02  0.65562777535E+01  0.15604084525E+02  0.47730188217E+02  0.41800000000E+01 0. -1.
        -11    1    1    2    0    0 -0.18795576671E+02 -0.27641760900E+02 -0.96142855916E+02  0.10178796290E+03  0.00000000000E+00 0. -1.
         11    1    1    2    0    0  0.52257627320E+02 -0.94574569561E+01 -0.53741081116E+02  0.75553999925E+02  0.00000000000E+00 0.  1.
</event>
<event>
 7    1  0.2394257E-009  0.8623026E+02  0.7561462E-02  0.1312246E+00
          2   -1    0    0  501    0  0.00000000000E+00  0.00000000000E+00  0.16566844438E+04  0.16566844438E+04  0.00000000000E+00 0.  1.
         -2   -1    0    0    0  501 -0.00000000000E+00 -0.00000000000E+00 -0.14598073251E+02  0.14598073251E+02  0.00000000000E+00 0. -1.
         25    2    1    2    0    0  0.48631366806E+02  0.21411055569E+02  0.14039027680E+04  0.14104649351E+04  0.12507960763E+03 0.  0.
          5    1    3    3  502    0 -0.16247252604E+02 -0.17072631879E+02  0.62349544618E+02  0.66786121991E+02  0.41800000000E+01 0.  1.
         -5    1    3    3    0  502  0.64878619409E+02  0.38483687448E+02  0.13415532233E+04  0.13436788132E+04  0.41800000000E+01 0.  1.
        -11    1    1    2    0    0 -0.50018688901E+02 -0.33890675875E+02  0.24056589915E+03  0.24803709196E+03  0.00000000000E+00 0.  1.
         11    1    1    2    0    0  0.13873220956E+01  0.12479620305E+02 -0.23822965956E+01  0.12780489921E+02  0.00000000000E+00 0. -1.
</event>
<event>
 7    1  0.2394257E-009  0.1846804E+03  0.7561462E-02  0.1163349E+00
          2   -1    0    0  501    0  0.00000000000E+00  0.00000000000E+00  0.17656550826E+04  0.17656550826E+04  0.00000000000E+00 0. -1.
         -2   -1    0    0    0  501 -0.00000000000E+00 -0.00000000000E+00 -0.24432238753E+02  0.24432238753E+02  0.00000000000E+00 0.  1.
         25    2    1    2    0    0  0.83062972866E+02 -0.15119611353E+03  0.10937273044E+04  0.11142923624E+04  0.12509328617E+03 0.  0.
          5    1    3    3  502    0  0.47422557405E+02 -0.12829897613E+03  0.48099385716E+03  0.50008208251E+03  0.41800000000E+01 0. -1.
         -5    1    3    3    0  502  0.35640415460E+02 -0.22897137395E+02  0.61273344726E+03  0.61421027988E+03  0.41800000000E+01 0. -1.
        -11    1    1    2    0    0 -0.97582527011E+02  0.11425758865E+03  0.45229813068E+03  0.47660334153E+03  0.00000000000E+00 0.  1.
         11    1    1    2    0    0  0.14519554145E+02  0.36938524876E+02  0.19519740876E+03  0.19919161744E+03  0.00000000000E+00 0. -1.
</event>
<event>
 7    1  0.2394257E-009  0.1346406E+03  0.7561462E-02  0.1220728E+00
         -2   -1    0    0    0  501 -0.00000000000E+00  0.00000000000E+00  0.26688572978E+03  0.26688572978E+03  0.00000000000E+00 0.  1.
          2   -1    0    0  501    0  0.00000000000E+00 -0.00000000000E+00 -0.73994482782E+02  0.73994482782E+02  0.00000000000E+00 0. -1.
         25    2    1    2    0    0 -0.52249046157E+02 -0.68124254481E+02  0.76267681399E+02  0.16980783427E+03  0.12508822678E+03 0.  0.
          5    1    3    3  502    0 -0.48205158254E+02 -0.10118234420E+03  0.77319635147E+02  0.13622555722E+03  0.41800000000E+01 0. -1.
         -5    1    3    3    0  502 -0.40438879034E+01  0.33058089718E+02 -0.10519537478E+01  0.33582277050E+02  0.41800000000E+01 0. -1.
        -11    1    1    2    0    0 -0.25095087893E+02  0.22842641311E+02  0.20488785940E+02  0.39640131782E+02  0.00000000000E+00 0.  1.
         11    1    1    2    0    0  0.77344134050E+02  0.45281613170E+02  0.96134779655E+02  0.13143224651E+03  0.00000000000E+00 0. -1.
</event>
<event>
 7    1  0.2394257E-009  0.1708065E+03  0.7561462E-02  0.1177009E+00
         -1   -1    0    0    0  501 -0.00000000000E+00  0.00000000000E+00  0.65814872094E+03  0.65814872094E+03  0.00000000000E+00 0.  1.
          1   -1    0    0  501    0  0.00000000000E+00 -0.00000000000E+00 -0.55574483573E+02  0.55574483573E+02  0.00000000000E+00 0. -1.
         25    2    1    2    0    0 -0.15025016814E+03 -0.24421338740E+02  0.39105778848E+03  0.43788770625E+03  0.12509170452E+03 0.  0.
          5    1    3    3  502    0 -0.12774386583E+03  0.24593782632E+02  0.33765393113E+03  0.36187152280E+03  0.41800000000E+01 0. -1.
         -5    1    3    3    0  502 -0.22506302307E+02 -0.49015121371E+02  0.53403857347E+02  0.76016183449E+02  0.41800000000E+01 0. -1.
        -11    1    1    2    0    0  0.88060188314E+02  0.34077632308E+02  0.60274948885E+02  0.11202210163E+03  0.00000000000E+00 0. -1.
         11    1    1    2    0    0  0.62189979825E+02 -0.96562935680E+01  0.15124150000E+03  0.16381339664E+03  0.00000000000E+00 0.  1.
</event>
<event>
 7    1  0.2394257E-009  0.8988186E+02  0.7561462E-02  0.1303138E+00
         -1   -1    0    0    0  501 -0.00000000000E+00  0.00000000000E+00  0.36668385478E+03  0.36668385478E+03  0.00000000000E+00 0.  1.
          1   -1    0    0  501    0  0.00000000000E+00 -0.00000000000E+00 -0.32282096426E+02  0.32282096426E+02  0.00000000000E+00 0. -1.
         25    2    1    2    0    0 -0.67730796038E+01  0.11951842144E+02  0.24279573978E+03  0.27347171046E+03  0.12509310143E+03 0.  0.
          5    1    3    3  502    0  0.27927306741E+02 -0.38134460477E+02  0.41247944581E+02  0.62873180847E+02  0.41800000000E+01 0. -1.
         -5    1    3    3    0  502 -0.34700386345E+02  0.50086302620E+02  0.20154779520E+03  0.21059852961E+03  0.41800000000E+01 0. -1.
        -11    1    1    2    0    0 -0.31298696879E+02  0.11314676003E+00  0.76743659099E+02  0.82880700048E+02  0.00000000000E+00 0.  1.
         11    1    1    2    0    0  0.38071776483E+02 -0.12064988904E+02  0.14862359466E+02  0.42613540697E+02  0.00000000000E+00 0. -1.
</event>
<event>
 7    1  0.2394257E-009  0.1077963E+03  0.7561462E-02  0.1264706E+00
          1   -1    0    0  501    0  0.00000000000E+00  0.00000000000E+00  0.88032340154E+03  0.88032340154E+03  0.00000000000E+00 0. -1.
         -1   -1    0    0    0  501 -0.00000000000E+00 -0.00000000000E+00 -0.26192394891E+02  0.26192394891E+02  0.00000000000E+00 0.  1.
         25    2    1    2    0    0  0.61926068245E+02  0.20527446220E+02  0.70909834882E+03  0.72299736090E+03  0.12509397108E+03 0.  0.
          5    1    3    3  502    0  0.82626731453E+02 -0.21275292762E+02  0.56651087651E+03  0.57291522971E+03  0.41800000000E+01 0. -1.
         -5    1    3    3    0  502 -0.20700663208E+02  0.41802738982E+02  0.14258747231E+03  0.15008213119E+03  0.41800000000E+01 0. -1.
        -11    1    1    2    0    0 -0.47723166018E+02 -0.37866179649E+02  0.33037237954E+02  0.69302288762E+02  0.00000000000E+00 0.  1.
         11    1    1    2    0    0 -0.14202902227E+02  0.17338733430E+02  0.11199541988E+03  0.11421614677E+03  0.00000000000E+00 0. -1.
</event>
<event>
 7    1  0.2394257E-009  0.9287755E+02  0.7561462E-02  0.1296029E+00
         -1   -1    0    0    0  501 -0.00000000000E+00  0.00000000000E+00  0.25542691240E+02  0.25542691240E+02  0.00000000000E+00 0.  1.
          1   -1    0    0  501    0  0.00000000000E+00 -0.00000000000E+00 -0.65294242273E+03  0.65294242273E+03  0.00000000000E+00 0. -1.
         25    2    1    2    0    0 -0.15239248239E+02  0.59046333396E+02 -0.43409116085E+03  0.45585098872E+03  0.12508510626E+03 0.  0.
          5    1    3    3  502    0 -0.35371831978E+02  0.16380160630E+01 -0.28348923611E+02  0.45551986390E+02  0.41800000000E+01 0.  1.
         -5    1    3    3    0  502  0.20132583740E+02  0.57408317333E+02 -0.40574223724E+03  0.41029900233E+03  0.41800000000E+01 0.  1.
        -11    1    1    2    0    0  0.40290404123E+02 -0.27248253567E+02 -0.16798555087E+03  0.17488547478E+03  0.00000000000E+00 0. -1.
         11    1    1    2    0    0 -0.25051155884E+02 -0.31798079829E+02 -0.25323019760E+02  0.47748650470E+02  0.00000000000E+00 0.  1.
</event>
<event>
 7    1  0.2394257E-009  0.1090147E+03  0.7561462E-02  0.1262405E+00
         -2   -1    0    0    0  501 -0.00000000000E+00  0.00000000000E+00  0.33825865843E+02  0.33825865843E+02  0.00000000000E+00 0.  1.
          2   -1    0    0  501    0  0.00000000000E+00 -0.00000000000E+00 -0.44517514314E+03  0.44517514314E+03  0.00000000000E+00 0. -1.
         25    2    1    2    0    0  0.36000050582E+02 -0.27552013410E+02 -0.16117132556E+03  0.20899584902E+03  0.12509177287E+03 0.  0.
          5    1    3    3  502    0  0.72886314670E+02 -0.32535911682E+01 -0.47985214065E+02  0.87424561140E+02  0.41800000000E+01 0.  1.
         -5    1    3    3    0  502 -0.36886264088E+02 -0.24298422241E+02 -0.11318611149E+03  0.12157128788E+03  0.41800000000E+01 0.  1.
        -11    1    1    2    0    0 -0.42269585521E+02  0.56726188345E+02 -0.15791820408E+03  0.17303969915E+03  0.00000000000E+00 0.  1.
         11    1    1    2    0    0  0.62695349393E+01 -0.29174174936E+02 -0.92259747666E+02  0.96965460815E+02  0.00000000000E+00 0. -1.
</event>
<event>
 7    1  0.2394257E-009  0.1272011E+03  0.7561462E-02  0.1231669E+00
          1   -1    0    0  501    0  0.00000000000E+00  0.00000000000E+00  0.34200524226E+02  0.34200524226E+02  0.00000000000E+00 0. -1.
         -1   -1    0    0    0  501 -0.00000000000E+00 -0.00000000000E+00 -0.69398324240E+03  0.69398324240E+03  0.00000000000E+00 0.  1.
         25    2    1    2    0    0 -0.63178800310E+02 -0.88121243787E+02 -0.36710720435E+03  0.40270425319E+03  0.12508437805E+03 0.  0.
          5    1    3    3  502    0 -0.46949337322E+02 -0.83790095005E+02 -0.11451579662E+03  0.14952043463E+03  0.41800000000E+01 0.  1.
         -5    1    3    3    0  502 -0.16229462988E+02 -0.43311487818E+01 -0.25259140774E+03  0.25318381856E+03  0.41800000000E+01 0.  1.
        -11    1    1    2    0    0  0.46866109499E+02  0.10651480450E+03 -0.25738960447E+03  0.28247343996E+03  0.00000000000E+00 0. -1.
         11    1    1    2    0    0  0.16312690811E+02 -0.18393560708E+02 -0.35285909353E+02  0.43006073477E+02  0.00000000000E+00 0.  1.
</event>
<event>
 7    1  0.2394257E-009  0.2230160E+03  0.7561462E-02  0.1131654E+00
          1   -1    0    0  501    0  0.00000000000E+00  0.00000000000E+00  0.10841340542E+04  0.10841340542E+04  0.00000000000E+00 0. -1.
         -1   -1    0    0    0  501 -0.00000000000E+00 -0.00000000000E+00 -0.66530061063E+02  0.66530061063E+02  0.00000000000E+00 0.  1.
         25    2    1    2    0    0  0.14442755443E+03 -0.15578580852E+03  0.25858382444E+03  0.35726851698E+03  0.12508661938E+03 0.  0.
          5    1    3    3  502    0  0.12473308260E+02 -0.80345826870E+02  0.14916407701E+03  0.16993654576E+03  0.41800000000E+01 0.  1.
         -5    1    3    3    0  502  0.13195424617E+03 -0.75439981650E+02  0.10941974743E+03  0.18733197122E+03  0.41800000000E+01 0.  1.
        -11    1    1    2    0    0 -0.79008778769E+02  0.79828008306E+02  0.24263201722E+03  0.26736715171E+03  0.00000000000E+00 0.  1.
         11    1    1    2    0    0 -0.65418775659E+02  0.75957800214E+02  0.51638815145E+03  0.52602844655E+03  0.00000000000E+00 0. -1.
</event>
<event>
 7    1  0.2394257E-009  0.6765271E+02  0.7561462E-02  0.1368262E+00
          1   -1    0    0  501    0  0.00000000000E+00  0.00000000000E+00  0.50501968068E+03  0.50501968068E+03  0.00000000000E+00 0. -1.
         -1   -1    0    0    0  501 -0.00000000000E+00 -0.00000000000E+00 -0.34758383741E+02  0.34758383741E+02  0.00000000000E+00 0.  1.
         25    2    1    2    0    0  0.29623110122E+02 -0.48726804474E+02  0.36649619795E+03  0.39143284796E+03  0.12509348994E+03 0.  0.
          5    1    3    3  502    0  0.30620034813E+02 -0.17308274380E+02  0.14929005338E+02  0.38438398696E+02  0.41800000000E+01 0. -1.
         -5    1    3    3    0  502 -0.99692469082E+00 -0.31418530094E+02  0.35156719261E+03  0.35299444926E+03  0.41800000000E+01 0. -1.
        -11    1    1    2    0    0  0.90203518697E+01  0.99159116301E+01 -0.13435546754E+02  0.18979092915E+02  0.00000000000E+00 0.  1.
         11    1    1    2    0    0 -0.38643461992E+02  0.38810892844E+02  0.11720064574E+03  0.12936612354E+03  0.00000000000E+00 0. -1.
</event>
<event>
 7    1  0.2394257E-009  0.1410392E+03  0.7561462E-02  0.1211937E+00
         -4   -1    0    0    0  501 -0.00000000000E+00  0.00000000000E+00  0.38052124013E+02  0.38052124013E+02  0.00000000000E+00 0.  1.
          4   -1    0    0  501    0  0.00000000000E+00 -0.00000000000E+00 -0.72530150811E+03  0.72530150811E+03  0.00000000000E+00 0. -1.
         25    2    1    2    0    0 -0.43178342362E+01  0.11520982835E+03 -0.24785082771E+03  0.30061499712E+03  0.12508954977E+03 0.  0.
          5    1    3    3  502    0 -0.43250853478E+02  0.11878357716E+03 -0.21469663792E+03  0.24918325237E+03  0.41800000000E+01 0.  1.
         -5    1    3    3    0  502  0.38933019241E+02 -0.35737488105E+01 -0.33154189784E+02  0.51431744750E+02  0.41800000000E+01 0.  1.
        -11    1    1    2    0    0 -0.52232898568E+01 -0.23561415545E+02 -0.14917552703E+02  0.28371754229E+02  0.00000000000E+00 0.  1.
         11    1    1    2    0    0  0.95411240930E+01 -0.91648412800E+02 -0.42448100368E+03  0.43436688077E+03  0.00000000000E+00 0. -1.
</event>
<event>
 7    1  0.2394257E-009  0.2427666E+03  0.7561462E-02  0.1117963E+00
         -3   -1    0    0    0  501 -0.00000000000E+00  0.00000000000E+00  0.80084157717E+02  0.80084157717E+02  0.00000000000E+00 0.  1.
          3   -1    0    0  501    0  0.00000000000E+00 -0.00000000000E+00 -0.83247759612E+03  0.83247759612E+03  0.00000000000E+00 0. -1.
         25    2    1    2    0    0  0.78269349010E+02  0.21901012269E+03 -0.34161315348E+03  0.43178385168E+03  0.12508486360E+03 0.  0.
          5    1    3    3  502    0 -0.21956190256E+02  0.44589746929E+02 -0.22928888342E+02  0.54895593105E+02  0.41800000000E+01 0. -1.
         -5    1    3    3    0  502  0.10022553927E+03  0.17442037576E+03 -0.31868426514E+03  0.37688825857E+03  0.41800000000E+01 0. -1.
        -11    1    1    2    0    0 -0.75798919415E+02 -0.17935506144E+03 -0.39007933025E+03  0.43597660274E+03  0.00000000000E+00 0. -1.
         11    1    1    2    0    0 -0.24704295947E+01 -0.39655061248E+02 -0.20700954665E+02  0.44801299412E+02  0.00000000000E+00 0.  1.
</event>
<event>
 7    1  0.2394257E-009  0.1048634E+03  0.7561462E-02  0.1270389E+00
         -4   -1    0    0    0  501 -0.00000000000E+00  0.00000000000E+00  0.47061494511E+02  0.47061494511E+02  0.00000000000E+00 0.  1.
          4   -1    0    0  501    0  0.00000000000E+00 -0.00000000000E+00 -0.51906252483E+03  0.51906252483E+03  0.00000000000E+00 0. -1.
         25    2    1    2    0    0  0.25222341614E+02  0.99934745092E+02 -0.33538105160E+03  0.37249364833E+03  0.12509176023E+03 0.  0.
          5    1    3    3  502    0  0.75820280884E+01  0.62248058890E+02 -0.40733951929E+02  0.74893492543E+02  0.41800000000E+01 0. -1.
         -5    1    3    3    0  502  0.17640313525E+02  0.37686686203E+02 -0.29464709967E+03  0.29760015578E+03  0.41800000000E+01 0. -1.
        -11    1    1    2    0    0 -0.41976814018E+01 -0.57974847143E+02 -0.10508393553E+02  0.59068856138E+02  0.00000000000E+00 0.  1.
         11    1    1    2    0    0 -0.21024660212E+02 -0.41959897950E+02 -0.12611158517E+03  0.13456151488E+03  0.00000000000E+00 0. -1.
</event>
<event>
 7    1  0.2394257E-009  0.1717611E+03  0.7561462E-02  0.1176024E+00
         -2   -1    0    0    0  501 -0.00000000000E+00  0.00000000000E+00  0.34021816980E+03  0.34021816980E+03  0.00000000000E+00 0.  1.
          2   -1    0    0  501    0  0.00000000000E+00 -0.00000000000E+00 -0.12440680508E+03  0.12440680508E+03  0.00000000000E+00 0. -1.
         25    2    1    2    0    0 -0.76674627608E+02 -0.11457625003E+03  0.23443350810E+03  0.29935428670E+03  0.12508878310E+03 0.  0.
          5    1    3    3  502    0 -0.45359479267E+02  0.18359312614E+02  0.53512964071E+02  0.72633714229E+02  0.41800000000E+01 0. -1.
         -5    1    3    3    0  502 -0.31315148340E+02 -0.13293556264E+03  0.18092054403E+03  0.22672057247E+03  0.41800000000E+01 0. -1.
        -11    1    1    2    0    0  0.54189672186E+02  0.15767664384E+02  0.15187165884E+02  0.58444758699E+02  0.00000000000E+00 0.  1.
         11    1    1    2    0    0  0.22484955422E+02  0.98808585645E+02 -0.33809309262E+02  0.10682592948E+03  0.00000000000E+00 0. -1.
</event>
<event>
 7    1  0.2400167E-009  0.1273785E+03  0.7561462E-02  0.1231398E+00
         -2   -1    0    0    0  501 -0.00000000000E+00  0.00000000000E+00  0.32851972888E+02  0.32851972888E+02  0.00000000000E+00 0.  1.
          2   -1    0    0  501    0  0.00000000000E+00 -0.00000000000E+00 -0.68206928413E+03  0.68206928413E+03  0.00000000000E+00 0. -1.
         25    2    1    2    0    0 -0.10118128256E+03  0.52946058823E+01 -0.38966449818E+03  0.42160674452E+03  0.12509253010E+03 0.  0.
          5    1    3    3  502    0 -0.10848880552E+03 -0.93562453249E+00 -0.39514246658E+03  0.40978742979E+03  0.41800000000E+01 0. -1.
         -5    1    3    3    0  502  0.73075229665E+01  0.62302304148E+01  0.54779683959E+01  0.11819314729E+02  0.41800000000E+01 0. -1.
        -11    1    1    2    0    0  0.54471438796E+02 -0.47863941253E+02 -0.12168643670E+03  0.14165339174E+03  0.00000000000E+00 0.  1.
         11    1    1    2    0    0  0.46709843759E+02  0.42569335371E+02 -0.13786637636E+03  0.15166112075E+03  0.00000000000E+00 0. -1.
</event>
<event>
 7    1  0.2394257E-009  0.1031639E+03  0.7561462E-02  0.1273780E+00
          2   -1    0    0  501    0  0.00000000000E+00  0.00000000000E+00  0.10357491116E+04  0.10357491116E+04  0.00000000000E+00 0. -1.
         -2   -1    0    0    0  501 -0.00000000000E+00 -0.00000000000E+00 -0.12239945766E+02  0.12239945766E+02  0.00000000000E+00 0.  1.
         25    2    1    2    0    0 -0.27760373158E+02  0.44274766402E+01  0.66701876521E+03  0.67923140170E+03  0.12510404888E+03 0.  0.
          5    1    3    3  502    0 -0.71010869805E+02  0.77124473419E+01  0.25291481746E+03  0.26284102184E+03  0.41800000000E+01 0. -1.
         -5    1    3    3    0  502  0.43250496647E+02 -0.32849707017E+01  0.41410394775E+03  0.41639037985E+03  0.41800000000E+01 0. -1.
        -11    1    1    2    0    0 -0.31291483901E+02 -0.71073568111E+01  0.17393749816E+03  0.17687262296E+03  0.00000000000E+00 0. -1.
         11    1    1    2    0    0  0.59051857059E+02  0.26798801709E+01  0.18255290250E+03  0.19188503274E+03  0.00000000000E+00 0.  1.
</event>
<event>
 7    1  0.2394257E-009  0.2515797E+03  0.7561462E-02  0.1112311E+00
         -2   -1    0    0    0  501 -0.00000000000E+00  0.00000000000E+00  0.10343398364E+03  0.10343398364E+03  0.00000000000E+00 0.  1.
          2   -1    0    0  501    0  0.00000000000E+00 -0.00000000000E+00 -0.66179429850E+03  0.66179429850E+03  0.00000000000E+00 0. -1.
         25    2    1    2    0    0 -0.22293005177E+03 -0.81921873302E+02 -0.31014681933E+03  0.41018044329E+03  0.12509174715E+03 0.  0.
          5    1    3    3  502    0 -0.23242805293E+03 -0.73334415368E+02 -0.25242641192E+03  0.35090925052E+03  0.41800000000E+01 0.  1.
         -5    1    3    3    0  502  0.94980011625E+01 -0.85874579338E+01 -0.57720407415E+02  0.59271192767E+02  0.41800000000E+01 0.  1.
        -11    1    1    2    0    0  0.40841912264E+02  0.43815365590E+02 -0.10259342554E+03  0.11879923831E+03  0.00000000000E+00 0. -1.
         11    1    1    2    0    0  0.18208813950E+03  0.38106507712E+02 -0.14562006998E+03  0.23624860054E+03  0.00000000000E+00 0.  1.
</event>
<event>
 7    1  0.2394257E-009  0.2410676E+03  0.7561462E-02  0.1119084E+00
         -2   -1    0    0    0  501 -0.00000000000E+00  0.00000000000E+00  0.13304001429E+04  0.13304001429E+04  0.00000000000E+00 0.  1.
          2   -1    0    0  501    0  0.00000000000E+00 -0.00000000000E+00 -0.49026201297E+02  0.49026201297E+02  0.00000000000E+00 0. -1.
         25    2    1    2    0    0  0.18399490218E+03 -0.12256597939E+03  0.88187183398E+03  0.91772662763E+03  0.12509071972E+03 0.  0.
          5    1    3    3  502    0  0.14234758718E+03 -0.14767845951E+03  0.71927994785E+03  0.74796582726E+03  0.41800000000E+01 0. -1.
         -5    1    3    3    0  502  0.41647315001E+02  0.25112480121E+02  0.16259188614E+03  0.16976080037E+03  0.41800000000E+01 0. -1.
        -11    1    1    2    0    0 -0.11212674980E+03  0.10624589323E+03  0.30473503038E+03  0.34164899618E+03  0.00000000000E+00 0.  1.
         11    1    1    2    0    0 -0.71868152380E+02  0.16320086167E+02  0.94767077279E+02  0.12005072043E+03  0.00000000000E+00 0. -1.
</event>
<event>
 7    1  0.2394257E-009  0.7598230E+02  0.7561462E-02  0.1340856E+00
          1   -1    0    0  501    0  0.00000000000E+00  0.00000000000E+00  0.16868563723E+02  0.16868563723E+02  0.00000000000E+00 0. -1.
         -1   -1    0    0    0  501 -0.00000000000E+00 -0.00000000000E+00 -0.84086731983E+03  0.84086731983E+03  0.00000000000E+00 0.  1.
         25    2    1    2    0    0  0.27737311420E+02  0.42733549876E+02 -0.60074264909E+03  0.61573674770E+03  0.12507796487E+03 0.  0.
          5    1    3    3  502    0  0.99636607198E+01 -0.39331469786E+01 -0.52372761904E+03  0.52385383030E+03  0.41800000000E+01 0. -1.
         -5    1    3    3    0  502  0.17773650701E+02  0.46666696855E+02 -0.77015030054E+02  0.91882917394E+02  0.41800000000E+01 0. -1.
        -11    1    1    2    0    0 -0.29102007438E+02 -0.63338604430E+02 -0.14235943786E+03  0.15850840733E+03  0.00000000000E+00 0. -1.
         11    1    1    2    0    0  0.13646960174E+01  0.20605054554E+02 -0.80896669156E+02  0.83490728521E+02  0.00000000000E+00 0.  1.
</event>
<event>
 7    1  0.2394257E-009  0.1075072E+03  0.7561462E-02  0.1265257E+00
         -2   -1    0    0    0  501 -0.00000000000E+00  0.00000000000E+00  0.21527910234E+02  0.21527910234E+02  0.00000000000E+00 0.  1.
          2   -1    0    0  501    0  0.00000000000E+00 -0.00000000000E+00 -0.63307091510E+03  0.63307091510E+03  0.00000000000E+00 0. -1.
         25    2    1    2    0    0 -0.20955998029E+02 -0.43671027686E+02 -0.37993105339E+03  0.40291630807E+03  0.12509050109E+03 0.  0.
          5    1    3    3  502    0 -0.17054590696E+02 -0.79779531078E+02 -0.15672954118E+03  0.17674064083E+03  0.41800000000E+01 0. -1.
         -5    1    3    3    0  502 -0.39014073330E+01  0.36108503392E+02 -0.22320151221E+03  0.22617566724E+03  0.41800000000E+01 0. -1.
        -11    1    1    2    0    0  0.49472723216E+02  0.46772014481E+02 -0.18279129111E+03  0.19505852400E+03  0.00000000000E+00 0. -1.
         11    1    1    2    0    0 -0.28516725187E+02 -0.31009867952E+01 -0.48820660368E+02  0.56623993265E+02  0.00000000000E+00 0.  1.
</event>
<event>
 7    1  0.2394257E-009  0.1020673E+03  0.7561462E-02  0.1276008E+00
         -2   -1    0    0    0  501 -0.00000000000E+00  0.00000000000E+00  0.25028515686E+02  0.25028515686E+02  0.00000000000E+00 0.  1.
          2   -1    0    0  501    0  0.00000000000E+00 -0.00000000000E+00 -0.56576132496E+03  0.56576132496E+03  0.00000000000E+00 0. -1.
         25    2    1    2    0    0 -0.41687371116E+02 -0.61123675531E+01 -0.24012435250E+03  0.27401393911E+03  0.12509490884E+03 0.  0.
          5    1    3    3  502    0 -0.45993773892E+02 -0.61152797944E+02 -0.13905685647E+03  0.15877460018E+03  0.41800000000E+01 0.  1.
         -5    1    3    3    0  502  0.43064027768E+01  0.55040430391E+02 -0.10106749603E+03  0.11523933893E+03  0.41800000000E+01 0.  1.
        -11    1    1    2    0    0 -0.11582894650E+02  0.14123734731E+02 -0.92409326370E+01  0.20470421765E+02  0.00000000000E+00 0.  1.
         11    1    1    2    0    0  0.53270265766E+02 -0.80113671778E+01 -0.29136752414E+03  0.29630547977E+03  0.00000000000E+00 0. -1.
</event>
<event>
 7    1  0.2394257E-009  0.7475636E+02  0.7561462E-02  0.1344627E+00
         -1   -1    0    0    0  501 -0.00000000000E+00  0.00000000000E+00  0.44001266801E+02  0.44001266801E+02  0.00000000000E+00 0.  1.
          1   -1    0    0  501    0  0.00000000000E+00 -0.00000000000E+00 -0.32149254000E+03  0.32149254000E+03  0.00000000000E+00 0. -1.
         25    2    1    2    0    0 -0.32210840724E+02  0.36871039382E+02 -0.15084582634E+03  0.20198794592E+03  0.12509058785E+03 0.  0.
          5    1    3    3  502    0 -0.97702512936E+01  0.12654823582E+02  0.21128522822E+02  0.26823296719E+02  0.41800000000E+01 0. -1.
         -5    1    3    3    0  502 -0.22440589430E+02  0.24216215800E+02 -0.17197434916E+03  0.17516464920E+03  0.41800000000E+01 0. -1.
        -11    1    1    2    0    0  0.32553324989E+02 -0.64409392237E+02 -0.70097271989E+02  0.10060773487E+03  0.00000000000E+00 0.  1.
         11    1    1    2    0    0 -0.34248426564E+00  0.27538352855E+02 -0.56548174866E+02  0.62898125998E+02  0.00000000000E+00 0. -1.
</event>
<event>
 7    1  0.2394257E-009  0.1526988E+03  0.7561462E-02  0.1197195E+00
         -2   -1    0    0    0  501 -0.00000000000E+00  0.00000000000E+00  0.21542604533E+02  0.21542604533E+02  0.00000000000E+00 0.  1.
          2   -1    0    0  501    0  0.00000000000E+00 -0.00000000000E+00 -0.11018469096E+04  0.11018469096E+04  0.00000000000E+00 0. -1.
         25    2    1    2    0    0  0.64676704060E+02 -0.84728158844E+02 -0.51032492893E+03  0.53613491738E+03  0.12508868690E+03 0.  0.
          5    1    3    3  502    0  0.32528680968E+02 -0.11524500428E+03 -0.37108828555E+03  0.38995322049E+03  0.41800000000E+01 0. -1.
         -5    1    3    3    0  502  0.32148023092E+02  0.30516845437E+02 -0.13923664338E+03  0.14618169689E+03  0.41800000000E+01 0. -1.
        -11    1    1    2    0    0  0.15564032238E+01 -0.18412826873E+02 -0.61964954410E+02  0.64661504463E+02  0.00000000000E+00 0.  1.
         11    1    1    2    0    0 -0.66233107284E+02  0.10314098572E+03 -0.50801442175E+03  0.52259309232E+03  0.00000000000E+00 0. -1.
</event>
<event>
 7    1  0.2953887E-009  0.1349421E+03  0.7561462E-02  0.1220301E+00
         -1   -1    0    0    0  501 -0.00000000000E+00  0.00000000000E+00  0.53803269293E+02  0.53803269293E+02  0.00000000000E+00 0.  1.
          1   -1    0    0  501    0  0.00000000000E+00 -0.00000000000E+00 -0.52307616372E+03  0.52307616372E+03  0.00000000000E+00 0. -1.
         25    2    1    2    0    0  0.13052684091E+02  0.94899189390E+02 -0.10501452208E+03  0.18934541036E+03  0.12508959136E+03 0.  0.
          5    1    3    3  502    0  0.28583825677E+02 -0.14676667198E+02 -0.63092604553E+02  0.70926643793E+02  0.41800000000E+01 0.  1.
         -5    1    3    3    0  502 -0.15531141586E+02  0.10957585659E+03 -0.41921917526E+02  0.11841876657E+03  0.41800000000E+01 0.  1.
        -11    1    1    2    0    0  0.34101947975E+02 -0.56169223148E+02 -0.24381697833E+03  0.25251662006E+03  0.00000000000E+00 0. -1.
         11    1    1    2    0    0 -0.47154632066E+02 -0.38729966242E+02 -0.12044139402E+03  0.13501740259E+03  0.00000000000E+00 0.  1.
</event>
<event>
 7    1  0.2394257E-009  0.6485836E+02  0.7561462E-02  0.1378505E+00
         -1   -1    0    0    0  501 -0.00000000000E+00  0.00000000000E+00  0.10253848539E+03  0.10253848539E+03  0.00000000000E+00 0.  1.
          1   -1    0    0  501    0  0.00000000000E+00 -0.00000000000E+00 -0.21145056379E+03  0.21145056379E+03  0.00000000000E+00 0. -1.
         25    2    1    2    0    0 -0.52669294772E+01 -0.55594130230E+02 -0.14599563285E+03  0.20020171998E+03  0.12509019150E+03 0.  0.
          5    1    3    3  502    0  0.10445926449E+02 -0.87449067254E+01 -0.14978998920E+03  0.15046628870E+03  0.41800000000E+01 0.  1.
         -5    1    3    3    0  502 -0.15712855926E+02 -0.46849223505E+02  0.37943563420E+01  0.49735431278E+02  0.41800000000E+01 0.  1.
        -11    1    1    2    0    0  0.19429277291E+02  0.21614996076E+02  0.62585351105E+02  0.69004572633E+02  0.00000000000E+00 0.  1.
         11    1    1    2    0    0 -0.14162347813E+02  0.33979134154E+02 -0.25501796644E+02  0.44782756565E+02  0.00000000000E+00 0. -1.
</event>
<event>
 7    1  0.2394257E-009  0.8054876E+02  0.7561462E-02  0.1327501E+00
         -3   -1    0    0    0  501 -0.00000000000E+00  0.00000000000E+00  0.84377617256E+02  0.84377617256E+02  0.00000000000E+00 0.  1.
          3   -1    0    0  501    0  0.00000000000E+00 -0.00000000000E+00 -0.18478036504E+03  0.18478036504E+03  0.00000000000E+00 0. -1.
         25    2    1    2    0    0  0.19246630913E+01 -0.62776701127E+02 -0.49193254102E+02  0.14836610175E+03  0.12509158792E+03 0.  0.
          5    1    3    3  502    0  0.21604201206E+02 -0.48100075017E+01  0.36548046566E+02  0.42931454549E+02  0.41800000000E+01 0. -1.
         -5    1    3    3    0  502 -0.19679538115E+02 -0.57966693625E+02 -0.85741300668E+02  0.10543464720E+03  0.41800000000E+01 0. -1.
        -11    1    1    2    0    0 -0.19961585605E+02  0.11910458067E+02 -0.61592390327E+02  0.65832715708E+02  0.00000000000E+00 0. -1.
         11    1    1    2    0    0  0.18036922513E+02  0.50866243060E+02  0.10382896647E+02  0.54959164837E+02  0.00000000000E+00 0.  1.
</event>
<event>
 7    1  0.2394257E-009  0.1085659E+03  0.7561462E-02  0.1263249E+00
          1   -1    0    0  501    0  0.00000000000E+00  0.00000000000E+00  0.56062732947E+03  0.56062732947E+03  0.00000000000E+00 0. -1.
         -1   -1    0    0    0  501 -0.00000000000E+00 -0.00000000000E+00 -0.31579165521E+02  0.31579165521E+02  0.00000000000E+00 0.  1.
         25    2    1    2    0    0  0.90294855697E+01 -0.76665343610E+02  0.30598225565E+03  0.33946011240E+03  0.12509564587E+03 0.  0.
          5    1    3    3  502    0  0.36214377367E+02 -0.39858129141E+02  0.34445946991E+02  0.64063618777E+02  0.41800000000E+01 0.  1.
         -5    1    3    3    0  502 -0.27184891797E+02 -0.36807214469E+02  0.27153630866E+03  0.27539649363E+03  0.41800000000E+01 0.  1.
        -11    1    1    2    0    0 -0.45865657751E+02  0.62895132562E+02  0.12720800980E+03  0.14913528764E+03  0.00000000000E+00 0.  1.
         11    1    1    2    0    0  0.36836172181E+02  0.13770211048E+02  0.95857898497E+02  0.10361109495E+03  0.00000000000E+00 0. -1.
</event>
<event>
 7    1  0.2394257E-009  0.1212846E+03  0.7561462E-02  0.1240993E+00
          1   -1    0    0  501    0  0.00000000000E+00  0.00000000000E+00  0.52834475231E+03  0.52834475231E+03  0.00000000000E+00 0. -1.
         -1   -1    0    0    0  501 -0.00000000000E+00 -0.00000000000E+00 -0.50612888877E+02  0.50612888877E+02  0.00000000000E+00 0.  1.
         25    2    1    2    0    0  0.76421810479E+02  0.63319125485E+02  0.13052578044E+03  0.20623941088E+03  0.12509240772E+03 0.  0.
          5    1    3    3  502    0  0.92582114263E+02  0.17620794663E+02  0.12596582200E+03  0.15737471524E+03  0.41800000000E+01 0.  1.
         -5    1    3    3    0  502 -0.16160303784E+02  0.45698330821E+02  0.45599584415E+01  0.48864695632E+02  0.41800000000E+01 0.  1.
        -11    1    1    2    0    0 -0.41370207312E+02 -0.28971944335E+02  0.30135078835E+03  0.30555386636E+03  0.00000000000E+00 0. -1.
         11    1    1    2    0    0 -0.35051603167E+02 -0.34347181150E+02  0.45855294638E+02  0.67164363943E+02  0.00000000000E+00 0.  1.
</event>
<event>
 7    1  0.2394257E-009  0.3569764E+03  0.7561462E-02  0.1059788E+00
          1   -1    0    0  501    0  0.00000000000E+00  0.00000000000E+00  0.73369278012E+03  0.73369278012E+03  0.00000000000E+00 0. -1.
         -1   -1    0    0    0  501 -0.00000000000E+00 -0.00000000000E+00 -0.21266626684E+03  0.21266626684E+03  0.00000000000E+00 0.  1.
         25    2    1    2    0    0 -0.31424881665E+03  0.15657875669E+03  0.89230279360E+02  0.38324717757E+03  0.12508849085E+03 0.  0.
          5    1    3    3  502    0 -0.18841589897E+03  0.75811338960E+02 -0.10593979177E+02  0.20341488366E+03  0.41800000000E+01 0.  1.
         -5    1    3    3    0  502 -0.12583291768E+03  0.80767417727E+02  0.99824258537E+02  0.17983229390E+03  0.41800000000E+01 0.  1.
        -11    1    1    2    0    0  0.19156235118E+03 -0.48204716498E+02  0.24585932996E+03  0.31538332107E+03  0.00000000000E+00 0. -1.
         11    1    1    2    0    0  0.12268646548E+03 -0.10837404019E+03  0.18593690396E+03  0.24772854832E+03  0.00000000000E+00 0.  1.
</event>
<event>
 7    1  0.2394257E-009  0.1035953E+03  0.7561462E-02  0.1272912E+00
          2   -1    0    0  501    0  0.00000000000E+00  0.00000000000E+00  0.23095779022E+02  0.23095779022E+02  0.00000000000E+00 0. -1.
         -2   -1    0    0    0  501 -0.00000000000E+00 -0.00000000000E+00 -0.60168418970E+03  0.60168418970E+03  0.00000000000E+00 0.  1.
         25    2    1    2    0    0  0.43192661583E+02 -0.13122325595E+02 -0.36185785939E+03  0.38552038439E+03  0.12508818863E+03 0.  0.
          5    1    3    3  502    0  0.73801857043E+02 -0.14179044024E+02 -0.33852448969E+03  0.34679109260E+03  0.41800000000E+01 0. -1.
         -5    1    3    3    0  502 -0.30609195460E+02  0.10567184286E+01 -0.23333369706E+02  0.38729291788E+02  0.41800000000E+01 0. -1.
        -11    1    1    2    0    0 -0.47967052796E+02  0.46789040659E+02 -0.15284955738E+03  0.16689229962E+03  0.00000000000E+00 0.  1.
         11    1    1    2    0    0  0.47743912123E+01 -0.33666715063E+02 -0.63880993906E+02  0.72367284715E+02  0.00000000000E+00 0. -1.
</event>
<event>
 7    1  0.2394257E-009  0.1235193E+03  0.7561462E-02  0.1237402E+00
         -2   -1    0    0    0  501 -0.00000000000E+00  0.00000000000E+00  0.80942410202E+02  0.80942410202E+02  0.00000000000E+00 0.  1.
          2   -1    0    0  501    0  0.00000000000E+00 -0.00000000000E+00 -0.23873012425E+03  0.23873012425E+03  0.00000000000E+00 0. -1.
         25    2    1    2    0    0 -0.68944531249E+02 -0.52262236573E+02 -0.71915864850E+02  0.16823906408E+03  0.12509117197E+03 0.  0.
          5    1    3    3  502    0 -0.63764209105E+02 -0.76615727986E+02 -0.86723919810E+01  0.10014253302E+03  0.41800000000E+01 0.  1.
         -5    1    3    3    0  502 -0.51803221448E+01  0.24353491413E+02 -0.63243472869E+02  0.68096531057E+02  0.41800000000E+01 0.  1.
        -11    1    1    2    0    0 -0.19040911921E+02  0.21732254729E+02 -0.34751149236E+02  0.45193911046E+02  0.00000000000E+00 0. -1.
         11    1    1    2    0    0  0.87985443170E+02  0.30529981844E+02 -0.51120699965E+02  0.10623955933E+03  0.00000000000E+00 0.  1.
</event>
<event>
 7    1  0.2394257E-009  0.1630488E+03  0.7561462E-02  0.1185297E+00
         -2   -1    0    0    0  501 -0.00000000000E+00  0.00000000000E+00  0.32801796033E+03  0.32801796033E+03  0.00000000000E+00 0. -1.
          2   -1    0    0  501    0  0.00000000000E+00 -0.00000000000E+00 -0.87624098032E+02  0.87624098032E+02  0.00000000000E+00 0.  1.
         25    2    1    2    0    0 -0.37842034504E+02 -0.11788200097E+03  0.79307832882E+02  0.19304509196E+03  0.12509392249E+03 0.  0.
          5    1    3    3  502    0 -0.65476743369E+02 -0.12873993194E+02  0.37158714686E+02  0.76493046090E+02  0.41800000000E+01 0.  1.
         -5    1    3    3    0  502  0.27634708865E+02 -0.10500800778E+03  0.42149118196E+02  0.11655204587E+03  0.41800000000E+01 0.  1.
        -11    1    1    2    0    0 -0.27853900493E+02  0.38795733156E+02  0.31642224274E+02  0.57290304946E+02  0.00000000000E+00 0. -1.
         11    1    1    2    0    0  0.65695934997E+02  0.79086267816E+02  0.12944380514E+03  0.16530666146E+03  0.00000000000E+00 0.  1.
</event>
<event>
 7    1  0.2394257E-009  0.1260142E+03  0.7561462E-02  0.1233493E+00
          2   -1    0    0  501    0  0.00000000000E+00  0.00000000000E+00  0.15169631452E+04  0.15169631452E+04  0.00000000000E+00 0. -1.
         -2   -1    0    0    0  501 -0.00000000000E+00 -0.00000000000E+00 -0.21783922984E+02  0.21783922984E+02  0.00000000000E+00 0.  1.
         25    2    1    2    0    0 -0.10026169552E+03 -0.55591596937E+02  0.11116681589E+04  0.11245439688E+04  0.12510079537E+03 0.  0.
          5    1    3    3  502    0 -0.26810300345E+02 -0.11661420504E+02  0.82044086556E+03  0.82097226946E+03  0.41800000000E+01 0. -1.
         -5    1    3    3    0  502 -0.73451395173E+02 -0.43930176433E+02  0.29122729337E+03  0.30357169937E+03  0.41800000000E+01 0. -1.
        -11    1    1    2    0    0  0.30858611526E+01  0.37909672082E+02  0.34042592311E+02  0.51044724191E+02  0.00000000000E+00 0.  1.
         11    1    1    2    0    0  0.97175834365E+02  0.17681924855E+02  0.34946847102E+03  0.36315837521E+03  0.00000000000E+00 0. -1.
</event>
<event>
 7    1  0.2394257E-009  0.1208337E+03  0.7561462E-02  0.1241728E+00
         -1   -1    0    0    0  501 -0.00000000000E+00  0.00000000000E+00  0.49765418287E+03  0.49765418287E+03  0.00000000000E+00 0.  1.
          1   -1    0    0  501    0  0.00000000000E+00 -0.00000000000E+00 -0.56345715935E+02  0.56345715935E+02  0.00000000000E+00 0. -1.
         25    2    1    2    0    0  0.32481725180E+02 -0.96220558587E+02  0.12744067687E+03  0.20542956843E+03  0.12508686221E+03 0.  0.
          5    1    3    3  502    0  0.56618655606E+02 -0.61328494825E+02  0.13816033613E+03  0.16147014374E+03  0.41800000000E+01 0. -1.
         -5    1    3    3    0  502 -0.24136930426E+02 -0.34892063762E+02 -0.10719659262E+02  0.43959424685E+02  0.41800000000E+01 0. -1.
        -11    1    1    2    0    0  0.11576607643E+02  0.51116746492E+02  0.26122728131E+03  0.26643316632E+03  0.00000000000E+00 0.  1.
         11    1    1    2    0    0 -0.44058332823E+02  0.45103812095E+02  0.52640508752E+02  0.82137164051E+02  0.00000000000E+00 0. -1.
</event>
<event>
 7    1  0.2394257E-009  0.1306434E+03  0.7561462E-02  0.1226504E+00
         -3   -1    0    0    0  501 -0.00000000000E+00  0.00000000000E+00  0.50728047434E+02  0.50728047434E+02  0.00000000000E+00 0.  1.
          3   -1    0    0  501    0  0.00000000000E+00 -0.00000000000E+00 -0.37044324085E+03  0.37044324085E+03  0.00000000000E+00 0. -1.
         25    2    1    2    0    0 -0.68509382861E+02 -0.44295090325E+02 -0.20487054409E+03  0.25352549179E+03  0.12509054553E+03 0.  0.
          5    1    3    3  502    0 -0.13198268934E+02 -0.74732723537E+02 -0.15616720547E+03  0.17368028884E+03  0.41800000000E+01 0.  1.
         -5    1    3    3    0  502 -0.55311113927E+02  0.30437633212E+02 -0.48703338628E+02  0.79845202942E+02  0.41800000000E+01 0.  1.
        -11    1    1    2    0    0 -0.16191253957E+01 -0.24040056736E+02 -0.25694259473E+02  0.35224151725E+02  0.00000000000E+00 0.  1.
         11    1    1    2    0    0  0.70128508256E+02  0.68335147061E+02 -0.89150389849E+02  0.13242164477E+03  0.00000000000E+00 0. -1.
</event>
<event>
 7    1  0.2394257E-009  0.1893361E+03  0.7561462E-02  0.1159062E+00
          2   -1    0    0  501    0  0.00000000000E+00  0.00000000000E+00  0.14659635390E+04  0.14659635390E+04  0.00000000000E+00 0. -1.
         -2   -1    0    0    0  501 -0.00000000000E+00 -0.00000000000E+00 -0.26208981203E+02  0.26208981203E+02  0.00000000000E+00 0.  1.
         25    2    1    2    0    0 -0.11966347601E+03  0.11016651211E+03  0.74598837563E+03  0.77369387381E+03  0.12509015113E+03 0.  0.
          5    1    3    3  502    0 -0.14617696108E+03  0.91918775203E+02  0.63063816845E+03  0.65386446385E+03  0.41800000000E+01 0.  1.
         -5    1    3    3    0  502  0.26513485074E+02  0.18247736906E+02  0.11535020718E+03  0.11982940996E+03  0.41800000000E+01 0.  1.
        -11    1    1    2    0    0  0.40183165870E+00 -0.29514646395E+02  0.44210373624E+02  0.53158564281E+02  0.00000000000E+00 0.  1.
         11    1    1    2    0    0  0.11926164435E+03 -0.80651865714E+02  0.64955580857E+03  0.66532008214E+03  0.00000000000E+00 0. -1.
</event>
<event>
 7    1  0.2394257E-009  0.1244501E+03  0.7561462E-02  0.1235931E+00
          1   -1    0    0  501    0  0.00000000000E+00  0.00000000000E+00  0.26728932610E+03  0.26728932610E+03  0.00000000000E+00 0. -1.
         -1   -1    0    0    0  501 -0.00000000000E+00 -0.00000000000E+00 -0.68857598516E+02  0.68857598516E+02  0.00000000000E+00 0.  1.
         25    2    1    2    0    0 -0.78640728007E+02  0.18073850123E+02  0.11701545256E+03  0.18934427610E+03  0.12509040967E+03 0.  0.
          5    1    3    3  502    0 -0.10668811250E+03  0.40265441545E+01  0.11596229395E+03  0.15768098308E+03  0.41800000000E+01 0.  1.
         -5    1    3    3    0  502  0.28047384490E+02  0.14047305969E+02  0.10531586150E+01  0.31663293018E+02  0.41800000000E+01 0.  1.
        -11    1    1    2    0    0  0.52406191802E+02 -0.47680637207E+02  0.19772661892E+02  0.73558210024E+02  0.00000000000E+00 0.  1.
         11    1    1    2    0    0  0.26234536205E+02  0.29606787084E+02  0.61643613124E+02  0.73244438494E+02  0.00000000000E+00 0. -1.
</event>
<event>
 7    1  0.2394257E-009  0.1102778E+03  0.7561462E-02  0.1260056E+00
          1   -1    0    0  501    0  0.00000000000E+00  0.00000000000E+00  0.14815808431E+04  0.14815808431E+04  0.00000000000E+00 0. -1.
         -1   -1    0    0    0  501 -0.00000000000E+00 -0.00000000000E+00 -0.21032509511E+02  0.21032509511E+02  0.00000000000E+00 0.  1.
         25    2    1    2    0    0 -0.30606214070E+02 -0.58125456685E+02  0.13034243265E+04  0.13110598501E+04  0.12509055275E+03 0.  0.
          5    1    3    3  502    0 -0.64696692529E+02 -0.70399303706E+02  0.69700951084E+03  0.70354918420E+03  0.41800000000E+01 0.  1.
         -5    1    3    3    0  502  0.34090478459E+02  0.12273847021E+02  0.60641481569E+03  0.60751066585E+03  0.41800000000E+01 0.  1.
        -11    1    1    2    0    0  0.35713835613E+02  0.62549278431E+01  0.12540055280E+03  0.13053697108E+03  0.00000000000E+00 0. -1.
         11    1    1    2    0    0 -0.51076215435E+01  0.51870528842E+02  0.31723454212E+02  0.61016531426E+02  0.00000000000E+00 0.  1.
</event>
<event>
 7    1  0.2394257E-009  0.1169806E+03  0.7561462E-02  0.1248163E+00
          3   -1    0    0  501    0  0.00000000000E+00  0.00000000000E+00  0.91949899824E+02  0.91949899824E+02  0.00000000000E+00 0. -1.
         -3   -1    0    0    0  501 -0.00000000000E+00 -0.00000000000E+00 -0.18814240604E+03  0.18814240604E+03  0.00000000000E+00 0.  1.
         25    2    1    2    0    0  0.25132855770E+02  0.32580169729E+02  0.80977006212E+01  0.13193314723E+03  0.12509058591E+03 0.  0.
          5    1    3    3  502    0  0.44956924991E+02  0.71853629680E+02 -0.72052460810E+01  0.85167230635E+02  0.41800000000E+01 0.  1.
         -5    1    3    3    0  502 -0.19824069221E+02 -0.39273459951E+02  0.15302946702E+02  0.46765916593E+02  0.41800000000E+01 0.  1.
        -11    1    1    2    0    0 -0.22986000187E+02  0.32491883067E+02 -0.33968266383E+02  0.52325154476E+02  0.00000000000E+00 0.  1.
         11    1    1    2    0    0 -0.21468555828E+01 -0.65072052797E+02 -0.70321940450E+02  0.95834004157E+02  0.00000000000E+00 0. -1.
</event>
<event>
 7    1  0.2394257E-009  0.1037342E+03  0.7561462E-02  0.1272634E+00
          1   -1    0    0  501    0  0.00000000000E+00  0.00000000000E+00  0.13392568412E+03  0.13392568412E+03  0.00000000000E+00 0. -1.
         -1   -1    0    0    0  501 -0.00000000000E+00 -0.00000000000E+00 -0.12757118354E+03  0.12757118354E+03  0.00000000000E+00 0.  1.
         25    2    1    2    0    0 -0.31670966636E+02  0.59960732644E+02 -0.21949893879E+02  0.14397035348E+03  0.12508926913E+03 0.  0.
          5    1    3    3  502    0 -0.34155355984E+02  0.62941252541E+00  0.43518964218E+02  0.55482944669E+02  0.41800000000E+01 0.  1.
         -5    1    3    3    0  502  0.24843893477E+01  0.59331320119E+02 -0.65468858097E+02  0.88487408810E+02  0.41800000000E+01 0.  1.
        -11    1    1    2    0    0  0.52918293924E+02 -0.33142584570E+01  0.75031123445E+01  0.53550227224E+02  0.00000000000E+00 0.  1.
         11    1    1    2    0    0 -0.21247327288E+02 -0.56646474187E+02  0.20801282115E+02  0.63976286953E+02  0.00000000000E+00 0. -1.
</event>
<event>
 7    1  0.2394257E-009  0.4296809E+03  0.7561462E-02  0.1033961E+00
          2   -1    0    0  501    0  0.00000000000E+00  0.00000000000E+00  0.27790558030E+03  0.27790558030E+03  0.00000000000E+00 0. -1.
         -2   -1    0    0    0  501 -0.00000000000E+00 -0.00000000000E+00 -0.69889365254E+03  0.69889365254E+03  0.00000000000E+00 0.  1.
         25    2    1    2    0    0 -0.10250532023E+03 -0.40927495264E+03 -0.14000013213E+03  0.46180154860E+03  0.12508919122E+03 0.  0.
          5    1    3    3  502    0 -0.10483839440E+03 -0.22033578542E+03 -0.11939192775E+03  0.27168152696E+03  0.41800000000E+01 0. -1.
         -5    1    3    3    0  502  0.23330741678E+01 -0.18893916722E+03 -0.20608204389E+02  0.19012002165E+03  0.41800000000E+01 0. -1.
        -11    1    1    2    0    0  0.58098862996E+02  0.11635986433E+03 -0.50033600261E+02  0.13935012401E+03  0.00000000000E+00 0. -1.
         11    1    1    2    0    0  0.44406457232E+02  0.29291508831E+03 -0.23095433985E+03  0.37564756022E+03  0.00000000000E+00 0.  1.
</event>
<event>
 7    1  0.2394257E-009  0.1413158E+03  0.7561462E-02  0.1211569E+00
         -2   -1    0    0    0  501 -0.00000000000E+00  0.00000000000E+00  0.26229714382E+03  0.26229714382E+03  0.00000000000E+00 0.  1.
          2   -1    0    0  501    0  0.00000000000E+00 -0.00000000000E+00 -0.79244385129E+02  0.79244385129E+02  0.00000000000E+00 0. -1.
         25    2    1    2    0    0 -0.78914643286E+02  0.47643596966E+02  0.12663154770E+03  0.20045810188E+03  0.12510183244E+03 0.  0.
          5    1    3    3  502    0 -0.76582178450E+02 -0.25278379432E+02  0.80572008951E+02  0.11407518376E+03  0.41800000000E+01 0. -1.
         -5    1    3    3    0  502 -0.23324648361E+01  0.72921976398E+02  0.46059538753E+02  0.86382918127E+02  0.41800000000E+01 0. -1.
        -11    1    1    2    0    0  0.41717367566E+02 -0.72790916911E+02  0.30703523658E+02  0.89339592043E+02  0.00000000000E+00 0. -1.
         11    1    1    2    0    0  0.37197275719E+02  0.25147319945E+02  0.25717687331E+02  0.51743835024E+02  0.00000000000E+00 0.  1.
</event>
<event>
 7    1  0.2394257E-009  0.1387215E+03  0.7561462E-02  0.1215060E+00
          1   -1    0    0  501    0  0.00000000000E+00  0.00000000000E+00  0.12663019865E+04  0.12663019865E+04  0.00000000000E+00 0. -1.
         -1   -1    0    0    0  501 -0.00000000000E+00 -0.00000000000E+00 -0.20132348159E+02  0.20132348159E+02  0.00000000000E+00 0.  1.
         25    2    1    2    0    0  0.11239412534E+03 -0.28702665197E+02  0.64513271268E+03  0.66730793695E+03  0.12508950132E+03 0.  0.
          5    1    3    3  502    0  0.11912094420E+03 -0.28302199221E+02  0.64753521751E+03  0.65902211203E+03  0.41800000000E+01 0. -1.
         -5    1    3    3    0  502 -0.67268188638E+01 -0.40046597614E+00 -0.24025048327E+01  0.82858249134E+01  0.41800000000E+01 0. -1.
        -11    1    1    2    0    0  0.10803472694E+02  0.20940357440E+02  0.67465423320E+02  0.71461856509E+02  0.00000000000E+00 0.  1.
         11    1    1    2    0    0 -0.12319759803E+03  0.77623077574E+01  0.53357150235E+03  0.54766454121E+03  0.00000000000E+00 0. -1.
</event>
<event>
 7    1  0.2394257E-009  0.1342425E+03  0.7561462E-02  0.1221293E+00
         -1   -1    0    0    0  501 -0.00000000000E+00  0.00000000000E+00  0.32886513040E+02  0.32886513040E+02  0.00000000000E+00 0.  1.
          1   -1    0    0  501    0  0.00000000000E+00 -0.00000000000E+00 -0.72196965645E+03  0.72196965645E+03  0.00000000000E+00 0. -1.
         25    2    1    2    0    0 -0.11217069713E+03  0.26906671244E+02 -0.52523461343E+03  0.55211023436E+03  0.12509227591E+03 0.  0.
          5    1    3    3  502    0 -0.48584094310E+02  0.62800685508E+02 -0.39333223184E+03  0.40128799798E+03  0.41800000000E+01 0.  1.
         -5    1    3    3    0  502 -0.63586602819E+02 -0.35894014264E+02 -0.13190238159E+03  0.15082223638E+03  0.41800000000E+01 0.  1.
        -11    1    1    2    0    0  0.56033844026E+02 -0.18883624082E+02 -0.58919410644E+02  0.83473827547E+02  0.00000000000E+00 0.  1.
         11    1    1    2    0    0  0.56136853102E+02 -0.80230471621E+01 -0.10492911934E+03  0.11927210758E+03  0.00000000000E+00 0. -1.
</event>
<event>
 7    1  0.2394257E-009  0.1014542E+03  0.7561462E-02  0.1277267E+00
         -2   -1    0    0    0  501 -0.00000000000E+00  0.00000000000E+00  0.15793541951E+03  0.15793541951E+03  0.00000000000E+00 0. -1.
          2   -1    0    0  501    0  0.00000000000E+00 -0.00000000000E+00 -0.10615262593E+03  0.10615262593E+03  0.00000000000E+00 0.  1.
         25    2    1    2    0    0 -0.59839041627E+02  0.72601686663E+00 -0.73818206487E+01  0.13886202396E+03  0.12508769891E+03 0.  0.
          5    1    3    3  502    0  0.28677663645E+02  0.86440186445E+01  0.29780773427E+02  0.42444013905E+02  0.41800000000E+01 0. -1.
         -5    1    3    3    0  502 -0.88516705271E+02 -0.79180017779E+01 -0.37162594075E+02  0.96418010054E+02  0.41800000000E+01 0. -1.
        -11    1    1    2    0    0  0.34725908998E+02  0.28672326365E+02 -0.98692878031E+01  0.46101994498E+02  0.00000000000E+00 0.  1.
         11    1    1    2    0    0  0.25113132628E+02 -0.29398343232E+02  0.69033902031E+02  0.79124026976E+02  0.00000000000E+00 0. -1.
</event>
<event>
 7    1  0.2394257E-009  0.9790499E+02  0.7561462E-02  0.1284764E+00
         -2   -1    0    0    0  501 -0.00000000000E+00  0.00000000000E+00  0.12927618505E+03  0.12927618505E+03  0.00000000000E+00 0. -1.
          2   -1    0    0  501    0  0.00000000000E+00 -0.00000000000E+00 -0.10994609256E+03  0.10994609256E+03  0.00000000000E+00 0.  1.
         25    2    1    2    0    0  0.49149935183E+02 -0.15849702948E+02  0.11506512067E+02  0.13581680717E+03  0.12508747371E+03 0.  0.
          5    1    3    3  502    0  0.56545975412E+02 -0.53848118045E+02  0.39746627981E+02  0.87717352834E+02  0.41800000000E+01 0. -1.
         -5    1    3    3    0  502 -0.73960402289E+01  0.37998415097E+02 -0.28240115913E+02  0.48099454339E+02  0.41800000000E+01 0. -1.
        -11    1    1    2    0    0 -0.12465620687E+02  0.35101193981E+02 -0.29598942413E+02  0.47577125911E+02  0.00000000000E+00 0.  1.
         11    1    1    2    0    0 -0.36684314495E+02 -0.19251491033E+02  0.37422522835E+02  0.55828344524E+02  0.00000000000E+00 0. -1.
</event>
<event>
 7    1  0.2394257E-009  0.1095757E+03  0.7561462E-02  0.1261358E+00
         -2   -1    0    0    0  501 -0.00000000000E+00  0.00000000000E+00  0.13875000962E+02  0.13875000962E+02  0.00000000000E+00 0.  1.
          2   -1    0    0  501    0  0.00000000000E+00 -0.00000000000E+00 -0.11162965745E+04  0.11162965745E+04  0.00000000000E+00 0. -1.
         25    2    1    2    0    0 -0.95927670254E+01 -0.38041458902E+02 -0.83939947666E+03  0.84957427134E+03  0.12508312168E+03 0.  0.
          5    1    3    3  502    0 -0.97815589472E+01 -0.84136454010E+02 -0.54171290175E+03  0.54831100857E+03  0.41800000000E+01 0. -1.
         -5    1    3    3    0  502  0.18879192179E+00  0.46094995108E+02 -0.29768657491E+03  0.30126326277E+03  0.41800000000E+01 0. -1.
        -11    1    1    2    0    0  0.24177780432E+02 -0.18006382024E+02 -0.39472366569E+02  0.49667520401E+02  0.00000000000E+00 0.  1.
         11    1    1    2    0    0 -0.14585013407E+02  0.56047840926E+02 -0.22354973028E+03  0.23092978369E+03  0.00000000000E+00 0. -1.
</event>
<event>
 7    1  0.2394257E-009  0.1542228E+03  0.7561462E-02  0.1195378E+00
         -2   -1    0    0    0  501 -0.00000000000E+00  0.00000000000E+00  0.80224387657E+02  0.80224387657E+02  0.00000000000E+00 0.  1.
          2   -1    0    0  501    0  0.00000000000E+00 -0.00000000000E+00 -0.31604544985E+03  0.31604544985E+03  0.00000000000E+00 0. -1.
         25    2    1    2    0    0 -0.11193461921E+03 -0.27239769954E+02 -0.11556126258E+03  0.20560206933E+03  0.12508573644E+03 0.  0.
          5    1    3    3  502    0 -0.11491965419E+03 -0.63595380996E+02 -0.10240756485E+03  0.16660036357E+03  0.41800000000E+01 0. -1.
         -5    1    3    3    0  502  0.29850349881E+01  0.36355611042E+02 -0.13153697730E+02  0.39001705759E+02  0.41800000000E+01 0. -1.
        -11    1    1    2    0    0 -0.27650147149E+01  0.25456504627E+02 -0.16485526244E+01  0.25659241219E+02  0.00000000000E+00 0.  1.
         11    1    1    2    0    0  0.11469963392E+03  0.17832653272E+01 -0.11861124700E+03  0.16500852696E+03  0.00000000000E+00 0. -1.
</event>
<event>
 7    1  0.2394257E-009  0.1073203E+03  0.7561462E-02  0.1265614E+00
          2   -1    0    0  501    0  0.00000000000E+00  0.00000000000E+00  0.55954552878E+02  0.55954552878E+02  0.00000000000E+00 0. -1.
         -2   -1    0    0    0  501 -0.00000000000E+00 -0.00000000000E+00 -0.23854659135E+03  0.23854659135E+03  0.00000000000E+00 0.  1.
         25    2    1    2    0    0 -0.36171953122E+02  0.38337707026E+01 -0.84101646897E+02  0.15506463702E+03  0.12509535025E+03 0.  0.
          5    1    3    3  502    0 -0.14945820257E+02 -0.53574391842E+02 -0.65188779703E+01  0.56156577303E+02  0.41800000000E+01 0.  1.
         -5    1    3    3    0  502 -0.21226132865E+02  0.57408162545E+02 -0.77582768927E+02  0.98908059720E+02  0.41800000000E+01 0.  1.
        -11    1    1    2    0    0 -0.30617702857E+02 -0.48450586220E-01 -0.21333363032E+02  0.37316999530E+02  0.00000000000E+00 0.  1.
         11    1    1    2    0    0  0.66789655979E+02 -0.37853201164E+01 -0.77157028547E+02  0.10211950768E+03  0.00000000000E+00 0. -1.
</event>
<event>
 7    1  0.2394257E-009  0.1171462E+03  0.7561462E-02  0.1247881E+00
         -2   -1    0    0    0  501 -0.00000000000E+00  0.00000000000E+00  0.86694660755E+02  0.86694660755E+02  0.00000000000E+00 0.  1.
          2   -1    0    0  501    0  0.00000000000E+00 -0.00000000000E+00 -0.22345431137E+03  0.22345431137E+03  0.00000000000E+00 0. -1.
         25    2    1    2    0    0 -0.57660246416E+02  0.47693787300E+02 -0.22970841513E+02  0.14756271142E+03  0.12509073858E+03 0.  0.
          5    1    3    3  502    0 -0.75131260552E+02 -0.16690116695E+02 -0.23953219435E+02  0.80712424252E+02  0.41800000000E+01 0. -1.
         -5    1    3    3    0  502  0.17471014135E+02  0.64383903995E+02  0.98237792285E+00  0.66850287172E+02  0.41800000000E+01 0. -1.
        -11    1    1    2    0    0  0.18571806139E+02 -0.47803658588E+02 -0.10773016699E+02  0.52403813281E+02  0.00000000000E+00 0.  1.
         11    1    1    2    0    0  0.39088440278E+02  0.10987128735E+00 -0.10301579240E+03  0.11018244742E+03  0.00000000000E+00 0. -1.
</event>
<event>
 7    1  0.2394257E-009  0.1358227E+03  0.7561462E-02  0.1219063E+00
         -1   -1    0    0    0  501 -0.00000000000E+00  0.00000000000E+00  0.28725243569E+03  0.28725243569E+03  0.00000000000E+00 0.  1.
          1   -1    0    0  501    0  0.00000000000E+00 -0.00000000000E+00 -0.89828875220E+02  0.89828875220E+02  0.00000000000E+00 0. -1.
         25    2    1    2    0    0  0.10527683539E+03  0.54243510517E+02  0.99050052326E+02  0.19870491006E+03  0.12508860024E+03 0.  0.
          5    1    3    3  502    0  0.10523959324E+03  0.19130352670E+02  0.15734774579E+02  0.10819610857E+03  0.41800000000E+01 0. -1.
         -5    1    3    3    0  502  0.37242157194E-01  0.35113157847E+02  0.83315277747E+02  0.90508801489E+02  0.41800000000E+01 0. -1.
        -11    1    1    2    0    0 -0.42670721084E+01 -0.23166299285E+02  0.62466912358E+02  0.66760770415E+02  0.00000000000E+00 0.  1.
         11    1    1    2    0    0 -0.10100976329E+03 -0.31077211231E+02  0.35906595783E+02  0.11161563044E+03  0.00000000000E+00 0. -1.
</event>
<event>
 7    1  0.2394257E-009  0.2336957E+03  0.7561462E-02  0.1124065E+00
         -2   -1    0    0    0  501 -0.00000000000E+00  0.00000000000E+00  0.32850370065E+02  0.32850370065E+02  0.00000000000E+00 0.  1.
          2   -1    0    0  501    0  0.00000000000E+00 -0.00000000000E+00 -0.19219561243E+04  0.19219561243E+04  0.00000000000E+00 0. -1.
         25    2    1    2    0    0 -0.41011101525E+02 -0.21852910500E+03 -0.80615923449E+03  0.84556303275E+03  0.12508897163E+03 0.  0.
          5    1    3    3  502    0  0.51546797238E+01 -0.13051117164E+03 -0.26654447966E+03  0.29685546767E+03  0.41800000000E+01 0.  1.
         -5    1    3    3    0  502 -0.46165781249E+02 -0.88017933356E+02 -0.53961475483E+03  0.54870756509E+03  0.41800000000E+01 0.  1.
        -11    1    1    2    0    0  0.66653045148E+02  0.16067819296E+03 -0.71226337343E+03  0.73319794275E+03  0.00000000000E+00 0.  1.
         11    1    1    2    0    0 -0.25641943623E+02  0.57850912040E+02 -0.37068314629E+03  0.37604551885E+03  0.00000000000E+00 0. -1.
</event>
<event>
 7    1  0.2394257E-009  0.1756341E+03  0.7561462E-02  0.1172097E+00
          2   -1    0    0  501    0  0.00000000000E+00  0.00000000000E+00  0.26367489207E+03  0.26367489207E+03  0.00000000000E+00 0.  1.
         -2   -1    0    0    0  501 -0.00000000000E+00 -0.00000000000E+00 -0.12066257533E+03  0.12066257533E+03  0.00000000000E+00 0. -1.
         25    2    1    2    0    0  0.63390905711E+02  0.12266286844E+03  0.66243929635E+02  0.19773955958E+03  0.12509232187E+03 0.  0.
          5    1    3    3  502    0  0.98113633029E+02  0.83912790287E+02  0.25838863315E+02  0.13172987747E+03  0.41800000000E+01 0. -1.
         -5    1    3    3    0  502 -0.34722727317E+02  0.38750078149E+02  0.40405066320E+02  0.66009682118E+02  0.41800000000E+01 0. -1.
        -11    1    1    2    0    0 -0.69525686247E+02 -0.13737061358E+03  0.71983067412E+02  0.16995902011E+03  0.00000000000E+00 0.  1.
         11    1    1    2    0    0  0.61347805357E+01  0.14707745145E+02  0.47853196954E+01  0.16638887705E+02  0.00000000000E+00 0. -1.
</event>
<event>
 7    1  0.2394257E-009  0.1225776E+03  0.7561462E-02  0.1238904E+00
          1   -1    0    0  501    0  0.00000000000E+00  0.00000000000E+00  0.24384085556E+03  0.24384085556E+03  0.00000000000E+00 0. -1.
         -1   -1    0    0    0  501 -0.00000000000E+00 -0.00000000000E+00 -0.83403281638E+02  0.83403281638E+02  0.00000000000E+00 0.  1.
         25    2    1    2    0    0 -0.18010974606E+02 -0.85815756295E+02  0.57249310390E+02  0.16313714240E+03  0.12508998543E+03 0.  0.
          5    1    3    3  502    0 -0.20372301029E+02  0.30047642749E+02  0.17804762109E+02  0.40649396524E+02  0.41800000000E+01 0.  1.
         -5    1    3    3    0  502  0.23613264232E+01 -0.11586339904E+03  0.39444548281E+02  0.12248774588E+03  0.41800000000E+01 0.  1.
        -11    1    1    2    0    0  0.20162249878E+02  0.26515194403E+02 -0.11283258738E+02  0.35169358568E+02  0.00000000000E+00 0.  1.
         11    1    1    2    0    0 -0.21512752716E+01  0.59300561892E+02  0.11447152227E+03  0.12893763623E+03  0.00000000000E+00 0. -1.
</event>
<event>
 7    1  0.2394257E-009  0.7363035E+02  0.7561462E-02  0.1348166E+00
         -1   -1    0    0    0  501 -0.00000000000E+00  0.00000000000E+00  0.92765632315E+02  0.92765632315E+02  0.00000000000E+00 0.  1.
          1   -1    0    0  501    0  0.00000000000E+00 -0.00000000000E+00 -0.19271484337E+03  0.19271484337E+03  0.00000000000E+00 0. -1.
         25    2    1    2    0    0 -0.83935059894E+01  0.48177685447E+02 -0.12089665071E+03  0.18070665718E+03  0.12508938996E+03 0.  0.
          5    1    3    3  502    0 -0.21658859972E+02 -0.33242986369E+01 -0.12521372194E+03  0.12718532046E+03  0.41800000000E+01 0.  1.
         -5    1    3    3    0  502  0.13265353983E+02  0.51501984084E+02  0.43170712354E+01  0.53521336726E+02  0.41800000000E+01 0.  1.
        -11    1    1    2    0    0  0.13633233361E+02  0.75827268533E+01 -0.26910474728E+02  0.31105247925E+02  0.00000000000E+00 0. -1.
         11    1    1    2    0    0 -0.52397273718E+01 -0.55760412301E+02  0.47857914377E+02  0.73668570581E+02  0.00000000000E+00 0.  1.
</event>
<event>
 7    1  0.2394257E-009  0.8136058E+02  0.7561462E-02  0.1325234E+00
         -2   -1    0    0    0  501 -0.00000000000E+00  0.00000000000E+00  0.16073531873E+03  0.16073531873E+03  0.00000000000E+00 0.  1.
          2   -1    0    0  501    0  0.00000000000E+00 -0.00000000000E+00 -0.80865634724E+02  0.80865634724E+02  0.00000000000E+00 0. -1.
         25    2    1    2    0    0 -0.31283167466E+02 -0.63172188871E+01  0.63148502211E+02  0.14371236254E+03  0.12508783312E+03 0.  0.
          5    1    3    3  502    0 -0.48287166555E+02 -0.56343375699E+02  0.25017606463E+02  0.78419254473E+02  0.41800000000E+01 0. -1.
         -5    1    3    3    0  502  0.17003999089E+02  0.50026156812E+02  0.38130895748E+02  0.65293108066E+02  0.41800000000E+01 0. -1.
        -11    1    1    2    0    0  0.12493797659E+02  0.10298192350E+02  0.53771340648E+02  0.56156075546E+02  0.00000000000E+00 0.  1.
         11    1    1    2    0    0  0.18789369807E+02 -0.39809734633E+01 -0.37050158856E+02  0.41732515366E+02  0.00000000000E+00 0. -1.
</event>
<event>
 7    1  0.2394257E-009  0.1231403E+03  0.7561462E-02  0.1238005E+00
          2   -1    0    0  501    0  0.00000000000E+00  0.00000000000E+00  0.44528702848E+02  0.44528702848E+02  0.00000000000E+00 0.  1.
         -2   -1    0    0    0  501 -0.00000000000E+00 -0.00000000000E+00 -0.36844017941E+03  0.36844017941E+03  0.00000000000E+00 0. -1.
         25    2    1    2    0    0  0.62825339869E+02 -0.43150470362E+01 -0.22666375114E+03  0.26643842724E+03  0.12508931398E+03 0.  0.
          5    1    3    3  502    0 -0.31241355116E+02  0.26135922893E+02 -0.71836641475E+02  0.82686662730E+02  0.41800000000E+01 0.  1.
         -5    1    3    3    0  502  0.94066694985E+02 -0.30450969929E+02 -0.15482710966E+03  0.18375176451E+03  0.41800000000E+01 0.  1.
        -11    1    1    2    0    0 -0.71461333751E+02 -0.25081227034E+02 -0.84142769799E+02  0.11320687206E+03  0.00000000000E+00 0. -1.
         11    1    1    2    0    0  0.86359938827E+01  0.29396274070E+02 -0.13104955629E+02  0.33323582964E+02  0.00000000000E+00 0.  1.
</event>
<event>
 7    1  0.2394257E-009  0.1099428E+03  0.7561462E-02  0.1260676E+00
         -2   -1    0    0    0  501 -0.00000000000E+00  0.00000000000E+00  0.12287110230E+02  0.12287110230E+02  0.00000000000E+00 0.  1.
          2   -1    0    0  501    0  0.00000000000E+00 -0.00000000000E+00 -0.11669866331E+04  0.11669866331E+04  0.00000000000E+00 0. -1.
         25    2    1    2    0    0 -0.25807331179E+02 -0.16360339790E+02 -0.83607664663E+03  0.84593487726E+03  0.12509188005E+03 0.  0.
          5    1    3    3  502    0  0.49220595327E+02 -0.20534352974E+02 -0.34126792933E+03  0.34543537550E+03  0.41800000000E+01 0.  1.
         -5    1    3    3    0  502 -0.75027926506E+02  0.41740131841E+01 -0.49480871730E+03  0.50049950175E+03  0.41800000000E+01 0.  1.
        -11    1    1    2    0    0  0.42189835037E+02  0.42753590278E+02 -0.14482945515E+03  0.15679101614E+03  0.00000000000E+00 0.  1.
         11    1    1    2    0    0 -0.16382503858E+02 -0.26393250488E+02 -0.17379342106E+03  0.17654784991E+03  0.00000000000E+00 0. -1.
</event>
<event>
 7    1  0.2394257E-009  0.1166975E+03  0.7561462E-02  0.1248647E+00
          1   -1    0    0  501    0  0.00000000000E+00  0.00000000000E+00  0.54160290081E+02  0.54160290081E+02  0.00000000000E+00 0. -1.
         -1   -1    0    0    0  501 -0.00000000000E+00 -0.00000000000E+00 -0.28104539294E+03  0.28104539294E+03  0.00000000000E+00 0.  1.
         25    2    1    2    0    0 -0.46334417845E+02 -0.34177908412E+02 -0.11799102088E+03  0.18133913797E+03  0.12508794606E+03 0.  0.
          5    1    3    3  502    0  0.12779441001E+02  0.36911391012E+02 -0.61294846218E+02  0.72803128172E+02  0.41800000000E+01 0.  1.
         -5    1    3    3    0  502 -0.59113858846E+02 -0.71089299424E+02 -0.56696174664E+02  0.10853600979E+03  0.41800000000E+01 0.  1.
        -11    1    1    2    0    0  0.47109518210E+02  0.59687603579E+02 -0.10237661814E+03  0.12752603134E+03  0.00000000000E+00 0.  1.
         11    1    1    2    0    0 -0.77510036565E+00 -0.25509695166E+02 -0.65174638375E+01  0.26340513718E+02  0.00000000000E+00 0. -1.
</event>
<event>
 7    1  0.2394257E-009  0.1320603E+03  0.7561462E-02  0.1224430E+00
         -1   -1    0    0    0  501 -0.00000000000E+00  0.00000000000E+00  0.16559530683E+04  0.16559530683E+04  0.00000000000E+00 0.  1.
          1   -1    0    0  501    0  0.00000000000E+00 -0.00000000000E+00 -0.23325475861E+02  0.23325475861E+02  0.00000000000E+00 0. -1.
         25    2    1    2    0    0  0.91879794301E+02 -0.45982831908E+02  0.13937256963E+04  0.14030945214E+04  0.12508637823E+03 0.  0.
          5    1    3    3  502    0  0.88828113881E+02  0.20223679445E+02  0.64262372790E+03  0.64906252324E+03  0.41800000000E+01 0.  1.
         -5    1    3    3    0  502  0.30516804193E+01 -0.66206511353E+02  0.75110196837E+03  0.75403199812E+03  0.41800000000E+01 0.  1.
        -11    1    1    2    0    0 -0.87054413520E+02  0.33754885869E+02  0.24463130430E+03  0.26184411064E+03  0.00000000000E+00 0.  1.
         11    1    1    2    0    0 -0.48253807808E+01  0.12227946039E+02 -0.57294081062E+01  0.14339912177E+02  0.00000000000E+00 0. -1.
</event>
<event>
 7    1  0.2394257E-009  0.6394497E+02  0.7561462E-02  0.1381985E+00
         -2   -1    0    0    0  501 -0.00000000000E+00  0.00000000000E+00  0.15391157059E+03  0.15391157059E+03  0.00000000000E+00 0. -1.
          2   -1    0    0  501    0  0.00000000000E+00 -0.00000000000E+00 -0.93485153183E+02  0.93485153183E+02  0.00000000000E+00 0.  1.
         25    2    1    2    0    0  0.17727522011E+02  0.44436683481E+02  0.16665457808E+02  0.13495897546E+03  0.12508918298E+03 0.  0.
          5    1    3    3  502    0  0.25812626695E+02  0.35159408850E+02  0.68612836303E+02  0.81410499527E+02  0.41800000000E+01 0.  1.
         -5    1    3    3    0  502 -0.80851046840E+01  0.92772746306E+01 -0.51947378495E+02  0.53548475934E+02  0.41800000000E+01 0.  1.
        -11    1    1    2    0    0  0.75930034698E+01 -0.45112153258E+02  0.64929886247E+02  0.79427011787E+02  0.00000000000E+00 0. -1.
         11    1    1    2    0    0 -0.25320525480E+02  0.67546977653E+00 -0.21168926654E+02  0.33010736522E+02  0.00000000000E+00 0.  1.
</event>
<event>
 7    1  0.2394257E-009  0.1843494E+03  0.7561462E-02  0.1163659E+00
         -1   -1    0    0    0  501 -0.00000000000E+00  0.00000000000E+00  0.26718165846E+02  0.26718165846E+02  0.00000000000E+00 0.  1.
          1   -1    0    0  501    0  0.00000000000E+00 -0.00000000000E+00 -0.13451270781E+04  0.13451270781E+04  0.00000000000E+00 0. -1.
         25    2    1    2    0    0 -0.14234589354E+03  0.44096043535E+02 -0.65840297050E+03  0.68654824609E+03  0.12508880119E+03 0.  0.
          5    1    3    3  502    0 -0.10537715422E+03  0.83402954748E+02 -0.38399284255E+03  0.40685178262E+03  0.41800000000E+01 0. -1.
         -5    1    3    3    0  502 -0.36968739320E+02 -0.39306911213E+02 -0.27441012795E+03  0.27969646347E+03  0.41800000000E+01 0. -1.
        -11    1    1    2    0    0  0.76618654908E+02 -0.75244966371E+02 -0.31802195224E+03  0.33566379809E+03  0.00000000000E+00 0. -1.
         11    1    1    2    0    0  0.65727238627E+02  0.31148922836E+02 -0.34198398947E+03  0.34963319972E+03  0.00000000000E+00 0.  1.
</event>
<event>
 7    1  0.2394257E-009  0.1049047E+03  0.7561462E-02  0.1270307E+00
          2   -1    0    0  501    0  0.00000000000E+00  0.00000000000E+00  0.10622480960E+03  0.10622480960E+03  0.00000000000E+00 0. -1.
         -2   -1    0    0    0  501 -0.00000000000E+00 -0.00000000000E+00 -0.12353191377E+03  0.12353191377E+03  0.00000000000E+00 0.  1.
         25    2    1    2    0    0  0.20603879626E+02  0.25037787951E+02 -0.25132272520E+02  0.13164708563E+03  0.12509161983E+03 0.  0.
          5    1    3    3  502    0  0.60572684977E+02  0.36760443109E+02  0.16217067518E+02  0.72806909163E+02  0.41800000000E+01 0. -1.
         -5    1    3    3    0  502 -0.39968805351E+02 -0.11722655159E+02 -0.41349340039E+02  0.58840176468E+02  0.41800000000E+01 0. -1.
        -11    1    1    2    0    0 -0.13978620311E+00  0.34249757986E+02  0.88737900443E+01  0.35380921583E+02  0.00000000000E+00 0. -1.
         11    1    1    2    0    0 -0.20464093423E+02 -0.59287545937E+02 -0.10486216980E+01  0.62728716154E+02  0.00000000000E+00 0.  1.
</event>
<event>
 7    1  0.2394257E-009  0.1166985E+03  0.7561462E-02  0.1248645E+00
         -2   -1    0    0    0  501 -0.00000000000E+00  0.00000000000E+00  0.18641192915E+03  0.18641192915E+03  0.00000000000E+00 0.  1.
          2   -1    0    0  501    0  0.00000000000E+00 -0.00000000000E+00 -0.11871387064E+03  0.11871387064E+03  0.00000000000E+00 0. -1.
         25    2    1    2    0    0  0.70927484735E+02 -0.74193776085E+02  0.35695795259E+02  0.16569965963E+03  0.12508702132E+03 0.  0.
          5    1    3    3  502    0 -0.75409823568E+01 -0.20115932833E+01  0.56330494059E+02  0.57022012271E+02  0.41800000000E+01 0.  1.
         -5    1    3    3    0  502  0.78468467092E+02 -0.72182182802E+02 -0.20634698800E+02  0.10867764736E+03  0.41800000000E+01 0.  1.
        -11    1    1    2    0    0  0.49770830501E+01  0.29165699787E+02  0.41166583019E+02  0.50696123690E+02  0.00000000000E+00 0.  1.
         11    1    1    2    0    0 -0.75904567785E+02  0.45028076298E+02 -0.91643197611E+01  0.88730016468E+02  0.00000000000E+00 0. -1.
</event>
<event>
 7    1  0.2394257E-009  0.1011584E+03  0.7561462E-02  0.1277879E+00
         -2   -1    0    0    0  501 -0.00000000000E+00  0.00000000000E+00  0.60626613800E+02  0.60626613800E+02  0.00000000000E+00 0.  1.
          2   -1    0    0  501    0  0.00000000000E+00 -0.00000000000E+00 -0.27337408153E+03  0.27337408153E+03  0.00000000000E+00 0. -1.
         25    2    1    2    0    0  0.15439534215E+02  0.12635041515E+02 -0.31983195523E+02  0.13064618918E+03  0.12508988152E+03 0.  0.
          5    1    3    3  502    0 -0.25183408047E+02 -0.45816277795E+02 -0.27452683475E+02  0.59198459286E+02  0.41800000000E+01 0.  1.
         -5    1    3    3    0  502  0.40622942262E+02  0.58451319310E+02 -0.45305120474E+01  0.71447729890E+02  0.41800000000E+01 0.  1.
        -11    1    1    2    0    0 -0.44656917935E+02  0.41833602346E+01 -0.45260838813E+02  0.63720360579E+02  0.00000000000E+00 0.  1.
         11    1    1    2    0    0  0.29217383719E+02 -0.16818401749E+02 -0.13550343340E+03  0.13963414558E+03  0.00000000000E+00 0. -1.
</event>
<event>
 7    1  0.2394257E-009  0.7838009E+02  0.7561462E-02  0.1333712E+00
         -2   -1    0    0    0  501 -0.00000000000E+00  0.00000000000E+00  0.27797957443E+03  0.27797957443E+03  0.00000000000E+00 0.  1.
          2   -1    0    0  501    0  0.00000000000E+00 -0.00000000000E+00 -0.44756317554E+02  0.44756317554E+02  0.00000000000E+00 0. -1.
         25    2    1    2    0    0 -0.12395806974E+02  0.12377343229E+02  0.15469964872E+03  0.19971793043E+03  0.12509362801E+03 0.  0.
          5    1    3    3  502    0 -0.48208563685E+02  0.10560144320E+02  0.15591827641E+03  0.16359573215E+03  0.41800000000E+01 0. -1.
         -5    1    3    3    0  502  0.35812756711E+02  0.18171989092E+01 -0.12186276911E+01  0.36122198280E+02  0.41800000000E+01 0. -1.
        -11    1    1    2    0    0 -0.16896795564E+02  0.20848350032E+02  0.73733526702E+02  0.78465204768E+02  0.00000000000E+00 0.  1.
         11    1    1    2    0    0  0.29292602538E+02 -0.33225693261E+02  0.47900814521E+01  0.44552756777E+02  0.00000000000E+00 0. -1.
</event>
<event>
 7    1  0.2394257E-009  0.1176140E+03  0.7561462E-02  0.1247086E+00
          1   -1    0    0  501    0  0.00000000000E+00  0.00000000000E+00  0.92850637744E+03  0.92850637744E+03  0.00000000000E+00 0. -1.
         -1   -1    0    0    0  501 -0.00000000000E+00 -0.00000000000E+00 -0.22767887800E+02  0.22767887800E+02  0.00000000000E+00 0.  1.
         25    2    1    2    0    0  0.95518281075E+02 -0.19639776102E+02  0.52942223915E+03  0.55267040881E+03  0.12508881101E+03 0.  0.
          5    1    3    3  502    0  0.98103022880E+02 -0.43694697592E+02  0.24937347298E+03  0.27154747490E+03  0.41800000000E+01 0. -1.
         -5    1    3    3    0  502 -0.25847418050E+01  0.24054921490E+02  0.28004876617E+03  0.28112293391E+03  0.41800000000E+01 0. -1.
        -11    1    1    2    0    0 -0.89780580310E+01 -0.83359358811E+01  0.85169619055E+00  0.12280828124E+02  0.00000000000E+00 0.  1.
         11    1    1    2    0    0 -0.86540223044E+02  0.27975711983E+02  0.37546455430E+03  0.38632302831E+03  0.00000000000E+00 0. -1.
</event>
<event>
 7    1  0.3535180E-009  0.1137338E+03  0.7561462E-02  0.1253808E+00
         -2   -1    0    0    0  501 -0.00000000000E+00  0.00000000000E+00  0.31496553833E+02  0.31496553833E+02  0.00000000000E+00 0. -1.
          2   -1    0    0  501    0  0.00000000000E+00 -0.00000000000E+00 -0.57395204234E+03  0.57395204234E+03  0.00000000000E+00 0.  1.
         25    2    1    2    0    0  0.12553289170E+02 -0.61045969856E+02 -0.18751723673E+03  0.23386714496E+03  0.12508769690E+03 0.  0.
          5    1    3    3  502    0  0.46791950383E+02 -0.68113107512E+02 -0.17965077276E+03  0.19778967260E+03  0.41800000000E+01 0.  1.
         -5    1    3    3    0  502 -0.34238661213E+02  0.70671376556E+01 -0.78664639768E+01  0.36077472358E+02  0.41800000000E+01 0.  1.
        -11    1    1    2    0    0  0.32570558125E+02  0.55093102799E+02 -0.19069784211E+03  0.20115108306E+03  0.00000000000E+00 0. -1.
         11    1    1    2    0    0 -0.45123847295E+02  0.59528670575E+01 -0.16424040966E+03  0.17043036815E+03  0.00000000000E+00 0.  1.
</event>
<event>
 7    1  0.2394257E-009  0.2223912E+03  0.7561462E-02  0.1132113E+00
         -1   -1    0    0    0  501 -0.00000000000E+00  0.00000000000E+00  0.14934199081E+03  0.14934199081E+03  0.00000000000E+00 0.  1.
          1   -1    0    0  501    0  0.00000000000E+00 -0.00000000000E+00 -0.39904852592E+03  0.39904852592E+03  0.00000000000E+00 0. -1.
         25    2    1    2    0    0  0.21144658408E+03 -0.53882571058E+02 -0.11854760331E+03  0.27805043774E+03  0.12508206225E+03 0.  0.
          5    1    3    3  502    0  0.42640123826E+02 -0.32609544096E+01 -0.89649193849E+02  0.99414608290E+02  0.41800000000E+01 0. -1.
         -5    1    3    3    0  502  0.16880646025E+03 -0.50621616648E+02 -0.28898409464E+02  0.17863582945E+03  0.41800000000E+01 0. -1.
        -11    1    1    2    0    0 -0.16445953631E+03  0.65673365630E+02 -0.65649712362E+02  0.18886454079E+03  0.00000000000E+00 0.  1.
         11    1    1    2    0    0 -0.46987047771E+02 -0.11790794573E+02 -0.65509219427E+02  0.81475538199E+02  0.00000000000E+00 0. -1.
</event>
<event>
 7    1  0.2394257E-009  0.1059909E+03  0.7561462E-02  0.1268180E+00
          3   -1    0    0  501    0  0.00000000000E+00  0.00000000000E+00  0.26794824239E+03  0.26794824239E+03  0.00000000000E+00 0. -1.
         -3   -1    0    0    0  501 -0.00000000000E+00 -0.00000000000E+00 -0.77341016490E+02  0.77341016490E+02  0.00000000000E+00 0.  1.
         25    2    1    2    0    0 -0.70193890455E+01 -0.88675064004E+02  0.14340958119E+03  0.21005994545E+03  0.12508530652E+03 0.  0.
          5    1    3    3  502    0  0.13370049698E+02 -0.23342530263E+00  0.11356530795E+03  0.11442623950E+03  0.41800000000E+01 0.  1.
         -5    1    3    3    0  502 -0.20389438743E+02 -0.88441638701E+02  0.29844273241E+02  0.95633705950E+02  0.41800000000E+01 0.  1.
        -11    1    1    2    0    0 -0.20847748792E+02  0.90027142169E+01 -0.17673061298E+02  0.28775242634E+02  0.00000000000E+00 0.  1.
         11    1    1    2    0    0  0.27867137838E+02  0.79672349787E+02  0.64870706012E+02  0.10645407080E+03  0.00000000000E+00 0. -1.
</event>
<event>
 7    1  0.2394257E-009  0.2470851E+03  0.7561462E-02  0.1115161E+00
          3   -1    0    0  501    0  0.00000000000E+00  0.00000000000E+00  0.34094484264E+03  0.34094484264E+03  0.00000000000E+00 0. -1.
         -3   -1    0    0    0  501 -0.00000000000E+00 -0.00000000000E+00 -0.20392640311E+03  0.20392640311E+03  0.00000000000E+00 0.  1.
         25    2    1    2    0    0 -0.11652686634E+03 -0.19996479239E+03  0.13690119137E+03  0.29657164869E+03  0.12509347638E+03 0.  0.
          5    1    3    3  502    0 -0.94183122610E+02 -0.68394979685E+02  0.11033424826E+03  0.16043519741E+03  0.41800000000E+01 0.  1.
         -5    1    3    3    0  502 -0.22343743734E+02 -0.13156981271E+03  0.26566943112E+02  0.13613645128E+03  0.41800000000E+01 0.  1.
        -11    1    1    2    0    0  0.52267868585E+02  0.16043559084E+03 -0.20793577631E+02  0.17001141658E+03  0.00000000000E+00 0. -1.
         11    1    1    2    0    0  0.64258997759E+02  0.39529201550E+02  0.20910825795E+02  0.78288180485E+02  0.00000000000E+00 0.  1.
</event>
<event>
 7    1  0.2394257E-009  0.1169605E+03  0.7561462E-02  0.1248197E+00
         -3   -1    0    0    0  501 -0.00000000000E+00  0.00000000000E+00  0.24940778911E+03  0.24940778911E+03  0.00000000000E+00 0.  1.
          3   -1    0    0  501    0  0.00000000000E+00 -0.00000000000E+00 -0.79599329456E+02  0.79599329456E+02  0.00000000000E+00 0. -1.
         25    2    1    2    0    0  0.15155604997E+02 -0.87005211577E+02  0.86850147371E+02  0.17603527350E+03  0.12508345300E+03 0.  0.
          5    1    3    3  502    0  0.33407390655E+02 -0.10983658133E+03  0.90550137917E+02  0.14627688889E+03  0.41800000000E+01 0. -1.
         -5    1    3    3    0  502 -0.18251785658E+02  0.22831369749E+02 -0.36999905469E+01  0.29758384606E+02  0.41800000000E+01 0. -1.
        -11    1    1    2    0    0 -0.55399370664E-01  0.42792683023E+02 -0.14263217009E+02  0.45107162944E+02  0.00000000000E+00 0. -1.
         11    1    1    2    0    0 -0.15100205627E+02  0.44212528554E+02  0.97221529293E+02  0.10786468212E+03  0.00000000000E+00 0.  1.
</event>
<event>
 7    1  0.2394257E-009  0.1005041E+03  0.7561462E-02  0.1279239E+00
          2   -1    0    0  501    0  0.00000000000E+00  0.00000000000E+00  0.17913956569E+03  0.17913956569E+03  0.00000000000E+00 0. -1.
         -2   -1    0    0    0  501 -0.00000000000E+00 -0.00000000000E+00 -0.11772106982E+03  0.11772106982E+03  0.00000000000E+00 0.  1.
         25    2    1    2    0    0  0.95859539701E+02 -0.22140431379E+02  0.28952169376E+02  0.16175422598E+03  0.12508777501E+03 0.  0.
          5    1    3    3  502    0  0.63062136739E+02 -0.21832924814E+02 -0.45101517134E+02  0.80654379570E+02  0.41800000000E+01 0. -1.
         -5    1    3    3    0  502  0.32797402962E+02 -0.30750656595E+00  0.74053686510E+02  0.81099846406E+02  0.41800000000E+01 0. -1.
        -11    1    1    2    0    0 -0.34247885137E+02  0.19500596923E+02 -0.28308494694E+02  0.48523827019E+02  0.00000000000E+00 0.  1.
         11    1    1    2    0    0 -0.61611654564E+02  0.26398344564E+01  0.60774821195E+02  0.86582582517E+02  0.00000000000E+00 0. -1.
</event>
<event>
 7    1  0.2394257E-009  0.1259487E+03  0.7561462E-02  0.1233594E+00
          2   -1    0    0  501    0  0.00000000000E+00  0.00000000000E+00  0.19215504316E+03  0.19215504316E+03  0.00000000000E+00 0. -1.
         -2   -1    0    0    0  501 -0.00000000000E+00 -0.00000000000E+00 -0.95925753995E+02  0.95925753995E+02  0.00000000000E+00 0.  1.
         25    2    1    2    0    0  0.39944556482E+02  0.62482590928E+02  0.87776692583E+02  0.16985832475E+03  0.12508981159E+03 0.  0.
          5    1    3    3  502    0  0.24946876991E+02 -0.33328060828E+02  0.47175642073E+01  0.42105036779E+02  0.41800000000E+01 0.  1.
         -5    1    3    3    0  502  0.14997679491E+02  0.95810651756E+02  0.83059128375E+02  0.12775328797E+03  0.41800000000E+01 0.  1.
        -11    1    1    2    0    0 -0.41993094295E+02  0.77713852872E+01  0.19723361884E+02  0.47040678161E+02  0.00000000000E+00 0.  1.
         11    1    1    2    0    0  0.20485378135E+01 -0.70253976215E+02 -0.11270765306E+02  0.71181794244E+02  0.00000000000E+00 0. -1.
</event>
<event>
 7    1  0.2394257E-009  0.1101000E+03  0.7561462E-02  0.1260385E+00
          2   -1    0    0  501    0  0.00000000000E+00  0.00000000000E+00  0.28457951919E+03  0.28457951919E+03  0.00000000000E+00 0.  1.
         -2   -1    0    0    0  501 -0.00000000000E+00 -0.00000000000E+00 -0.50939472151E+02  0.50939472151E+02  0.00000000000E+00 0. -1.
         25    2    1    2    0    0  0.27476559878E+02 -0.17904404143E+02  0.70674770438E+02  0.14735733924E+03  0.12507491044E+03 0.  0.
          5    1    3    3  502    0 -0.62333826030E+01  0.49888619270E+02  0.13026046799E+02  0.52104507354E+02  0.41800000000E+01 0.  1.
         -5    1    3    3    0  502  0.33709942481E+02 -0.67793023413E+02  0.57648723638E+02  0.95252831888E+02  0.41800000000E+01 0.  1.
        -11    1    1    2    0    0  0.85123095055E+01  0.46925108635E+02  0.77684065867E+02  0.91155029061E+02  0.00000000000E+00 0. -1.
         11    1    1    2    0    0 -0.35988869384E+02 -0.29020704492E+02  0.85281210739E+02  0.97006623041E+02  0.00000000000E+00 0.  1.
</event>
<event>
 7    1  0.2394257E-009  0.2014528E+03  0.7561462E-02  0.1148519E+00
          1   -1    0    0  501    0  0.00000000000E+00  0.00000000000E+00  0.14151812618E+03  0.14151812618E+03  0.00000000000E+00 0. -1.
         -1   -1    0    0    0  501 -0.00000000000E+00 -0.00000000000E+00 -0.36737103165E+03  0.36737103165E+03  0.00000000000E+00 0.  1.
         25    2    1    2    0    0 -0.18612594601E+03 -0.62303220267E+02 -0.70998208261E+02  0.24333749922E+03  0.12509130233E+03 0.  0.
          5    1    3    3  502    0 -0.15157153985E+03 -0.24182847535E+02  0.24487696440E+01  0.15356500474E+03  0.41800000000E+01 0.  1.
         -5    1    3    3    0  502 -0.34554406156E+02 -0.38120372732E+02 -0.73446977905E+02  0.89772494481E+02  0.41800000000E+01 0.  1.
        -11    1    1    2    0    0  0.30858333791E+02  0.11996294652E+01 -0.73897655719E+02  0.80090819674E+02  0.00000000000E+00 0.  1.
         11    1    1    2    0    0  0.15526761222E+03  0.61103590801E+02 -0.80957041490E+02  0.18546083894E+03  0.00000000000E+00 0. -1.
</event>
<event>
 7    1  0.2394257E-009  0.6764021E+02  0.7561462E-02  0.1368307E+00
          2   -1    0    0  501    0  0.00000000000E+00  0.00000000000E+00  0.18861878387E+02  0.18861878387E+02  0.00000000000E+00 0.  1.
         -2   -1    0    0    0  501 -0.00000000000E+00 -0.00000000000E+00 -0.95346056285E+03  0.95346056285E+03  0.00000000000E+00 0. -1.
         25    2    1    2    0    0  0.33964816817E+02 -0.27000527454E+02 -0.75607124363E+03  0.76757658525E+03  0.12508977382E+03 0.  0.
          5    1    3    3  502    0  0.86508460215E+01  0.37732674287E+01  0.12176990137E+00  0.10322882925E+02  0.41800000000E+01 0.  1.
         -5    1    3    3    0  502  0.25313970796E+02 -0.30773794883E+02 -0.75619301353E+03  0.75725370232E+03  0.41800000000E+01 0.  1.
        -11    1    1    2    0    0 -0.45565474096E+01 -0.24859742755E+02 -0.12215671767E+02  0.28071187557E+02  0.00000000000E+00 0.  1.
         11    1    1    2    0    0 -0.29408269407E+02  0.51860270209E+02 -0.16631176907E+03  0.17667466843E+03  0.00000000000E+00 0. -1.
</event>
<event>
 7    1  0.3495638E-009  0.1347847E+03  0.7561462E-02  0.1220524E+00
         -2   -1    0    0    0  501 -0.00000000000E+00  0.00000000000E+00  0.20444287922E+02  0.20444287922E+02  0.00000000000E+00 0.  1.
          2   -1    0    0  501    0  0.00000000000E+00 -0.00000000000E+00 -0.92778594477E+03  0.92778594477E+03  0.00000000000E+00 0. -1.
         25    2    1    2    0    0  0.78801151016E+02 -0.24031823391E+02 -0.43228829241E+03  0.45750106868E+03  0.12508760989E+03 0.  0.
          5    1    3    3  502    0 -0.13711565745E+02  0.35568361238E+02 -0.13989062744E+03  0.14505163013E+03  0.41800000000E+01 0.  1.
         -5    1    3    3    0  502  0.92512716761E+02 -0.59600184629E+02 -0.29239766497E+03  0.31244943855E+03  0.41800000000E+01 0.  1.
        -11    1    1    2    0    0 -0.36524320707E+02  0.56850820554E+02 -0.22100322068E+03  0.23110271602E+03  0.00000000000E+00 0.  1.
         11    1    1    2    0    0 -0.42276830309E+02 -0.32818997163E+02 -0.25405014376E+03  0.25962644800E+03  0.00000000000E+00 0. -1.
</event>
<event>
 7    1  0.2394257E-009  0.1139633E+03  0.7561462E-02  0.1253402E+00
         -1   -1    0    0    0  501 -0.00000000000E+00  0.00000000000E+00  0.16933348495E+02  0.16933348495E+02  0.00000000000E+00 0.  1.
          1   -1    0    0  501    0  0.00000000000E+00 -0.00000000000E+00 -0.79099021048E+03  0.79099021048E+03  0.00000000000E+00 0. -1.
         25    2    1    2    0    0  0.32168797017E+02  0.22113167497E+02 -0.43419212793E+03  0.45353537617E+03  0.12509080625E+03 0.  0.
          5    1    3    3  502    0 -0.46718183707E+02  0.19777865275E+02 -0.19957724681E+03  0.20596675093E+03  0.41800000000E+01 0. -1.
         -5    1    3    3    0  502  0.78886980724E+02  0.23353022226E+01 -0.23461488112E+03  0.24756862525E+03  0.41800000000E+01 0. -1.
        -11    1    1    2    0    0  0.23821504541E+02 -0.33250566173E+02 -0.18139358271E+03  0.18594810050E+03  0.00000000000E+00 0. -1.
         11    1    1    2    0    0 -0.55990301558E+02  0.11137398676E+02 -0.15847115135E+03  0.16844008231E+03  0.00000000000E+00 0.  1.
</event>
<event>
 7    1  0.2394257E-009  0.8222845E+02  0.7561462E-02  0.1322844E+00
         -1   -1    0    0    0  501 -0.00000000000E+00  0.00000000000E+00  0.19535585726E+03  0.19535585726E+03  0.00000000000E+00 0.  1.
          1   -1    0    0  501    0  0.00000000000E+00 -0.00000000000E+00 -0.78730834037E+02  0.78730834037E+02  0.00000000000E+00 0. -1.
         25    2    1    2    0    0 -0.21880446979E+02  0.19956424362E+02  0.10046682829E+03  0.16314975621E+03  0.12508895447E+03 0.  0.
          5    1    3    3  502    0 -0.27807865887E+02  0.57458832430E+02  0.10673919760E+03  0.12444084351E+03  0.41800000000E+01 0.  1.
         -5    1    3    3    0  502  0.59274189085E+01 -0.37502408068E+02 -0.62723693023E+01  0.38708912701E+02  0.41800000000E+01 0.  1.
        -11    1    1    2    0    0  0.47479092554E+01 -0.37481205335E+02 -0.36701312425E+02  0.52672286160E+02  0.00000000000E+00 0. -1.
         11    1    1    2    0    0  0.17132537723E+02  0.17524780973E+02  0.52859507359E+02  0.58264648932E+02  0.00000000000E+00 0.  1.
</event>
<event>
 7    1  0.2394257E-009  0.7788299E+02  0.7561462E-02  0.1335169E+00
          1   -1    0    0  501    0  0.00000000000E+00  0.00000000000E+00  0.44168853199E+02  0.44168853199E+02  0.00000000000E+00 0. -1.
         -1   -1    0    0    0  501 -0.00000000000E+00 -0.00000000000E+00 -0.32621856224E+03  0.32621856224E+03  0.00000000000E+00 0.  1.
         25    2    1    2    0    0  0.39959117733E+02 -0.32127983395E+02 -0.17791283577E+03  0.22344904758E+03  0.12509021276E+03 0.  0.
          5    1    3    3  502    0  0.35063203369E+02  0.24857995388E+02 -0.15631201965E+03  0.16216740749E+03  0.41800000000E+01 0. -1.
         -5    1    3    3    0  502  0.48959143632E+01 -0.56985978783E+02 -0.21600816118E+02  0.61281640091E+02  0.41800000000E+01 0. -1.
        -11    1    1    2    0    0 -0.31638199684E+02  0.12687133263E+02 -0.11721731538E+03  0.12207308489E+03  0.00000000000E+00 0.  1.
         11    1    1    2    0    0 -0.83209180485E+01  0.19440850132E+02  0.13080442111E+02  0.24865282963E+02  0.00000000000E+00 0. -1.
</event>
<event>
 7    1  0.2394257E-009  0.1120882E+03  0.7561462E-02  0.1256751E+00
          1   -1    0    0  501    0  0.00000000000E+00  0.00000000000E+00  0.11160979114E+04  0.11160979114E+04  0.00000000000E+00 0. -1.
         -1   -1    0    0    0  501 -0.00000000000E+00 -0.00000000000E+00 -0.26284683635E+02  0.26284683635E+02  0.00000000000E+00 0.  1.
         25    2    1    2    0    0  0.20990634214E-01  0.67781950657E+02  0.95955991171E+03  0.97005009210E+03  0.12509022238E+03 0.  0.
          5    1    3    3  502    0  0.48028803713E+02  0.78863334871E+02  0.65876736077E+03  0.66522033913E+03  0.41800000000E+01 0.  1.
         -5    1    3    3    0  502 -0.48007813078E+02 -0.11081384214E+02  0.30079255094E+03  0.30482975297E+03  0.41800000000E+01 0.  1.
        -11    1    1    2    0    0 -0.22848369934E+02 -0.42370361187E+02  0.12514225762E+02  0.49738328904E+02  0.00000000000E+00 0.  1.
         11    1    1    2    0    0  0.22827379300E+02 -0.25411589471E+02  0.11773909034E+03  0.12259417408E+03  0.00000000000E+00 0. -1.
</event>
<event>
 7    1  0.2394257E-009  0.1120454E+03  0.7561462E-02  0.1256828E+00
         -2   -1    0    0    0  501 -0.00000000000E+00  0.00000000000E+00  0.23045361406E+02  0.23045361406E+02  0.00000000000E+00 0.  1.
          2   -1    0    0  501    0  0.00000000000E+00 -0.00000000000E+00 -0.64931881256E+03  0.64931881256E+03  0.00000000000E+00 0. -1.
         25    2    1    2    0    0 -0.23680688755E+02 -0.42896208777E+02 -0.27500508555E+03  0.30606703561E+03  0.12509345890E+03 0.  0.
          5    1    3    3  502    0 -0.12126195201E+01  0.37117884390E+02 -0.31970714262E+02  0.49181365965E+02  0.41800000000E+01 0. -1.
         -5    1    3    3    0  502 -0.22468069235E+02 -0.80014093168E+02 -0.24303437129E+03  0.25688566965E+03  0.41800000000E+01 0. -1.
        -11    1    1    2    0    0 -0.29723047745E+02  0.40250321089E+02 -0.18468840797E+03  0.19134616786E+03  0.00000000000E+00 0.  1.
         11    1    1    2    0    0  0.53403736500E+02  0.26458876881E+01 -0.16657995763E+03  0.17495097050E+03  0.00000000000E+00 0. -1.
</event>
<event>
 7    1  0.2394257E-009  0.6786346E+02  0.7561462E-02  0.1367513E+00
          1   -1    0    0  501    0  0.00000000000E+00  0.00000000000E+00  0.15639925914E+03  0.15639925914E+03  0.00000000000E+00 0.  1.
         -1   -1    0    0    0  501 -0.00000000000E+00 -0.00000000000E+00 -0.82162115007E+02  0.82162115007E+02  0.00000000000E+00 0. -1.
         25    2    1    2    0    0 -0.29557953763E+02 -0.26347202666E+02  0.47051800402E+02  0.13938734164E+03  0.12508841421E+03 0.  0.
          5    1    3    3  502    0 -0.11717384928E+01 -0.16349424819E+02 -0.42008597286E+02  0.45286546666E+02  0.41800000000E+01 0.  1.
         -5    1    3    3    0  502 -0.28386215270E+02 -0.99977778475E+01  0.89060397688E+02  0.94100794979E+02  0.41800000000E+01 0.  1.
        -11    1    1    2    0    0  0.46839693446E+02 -0.10255561240E+02  0.33103289672E+02  0.58266295623E+02  0.00000000000E+00 0. -1.
         11    1    1    2    0    0 -0.17281739683E+02  0.36602763906E+02 -0.59179459456E+01  0.40907736875E+02  0.00000000000E+00 0.  1.
</event>
<event>
 7    1  0.2394257E-009  0.1446396E+03  0.7561462E-02  0.1207219E+00
          1   -1    0    0  501    0  0.00000000000E+00  0.00000000000E+00  0.31931387555E+03  0.31931387555E+03  0.00000000000E+00 0. -1.
         -1   -1    0    0    0  501 -0.00000000000E+00 -0.00000000000E+00 -0.72587735530E+02  0.72587735530E+02  0.00000000000E+00 0.  1.
         25    2    1    2    0    0  0.84511368742E+02  0.61560916914E+02  0.11070061146E+03  0.19706445550E+03  0.12509139182E+03 0.  0.
          5    1    3    3  502    0  0.85469112872E+02  0.95770262067E+02  0.84064261895E+02  0.15349653051E+03  0.41800000000E+01 0.  1.
         -5    1    3    3    0  502 -0.95774413051E+00 -0.34209345153E+02  0.26636349565E+02  0.43567924989E+02  0.41800000000E+01 0.  1.
        -11    1    1    2    0    0 -0.86690471572E+01 -0.48676783316E+02  0.15430824360E+02  0.51794709702E+02  0.00000000000E+00 0.  1.
         11    1    1    2    0    0 -0.75842321585E+02 -0.12884133597E+02  0.12059470420E+03  0.14304244588E+03  0.00000000000E+00 0. -1.
</event>
<event>
 7    1  0.2974705E-009  0.1659886E+03  0.7561462E-02  0.1182097E+00
         -2   -1    0    0    0  501 -0.00000000000E+00  0.00000000000E+00  0.34383134531E+02  0.34383134531E+02  0.00000000000E+00 0. -1.
          2   -1    0    0  501    0  0.00000000000E+00 -0.00000000000E+00 -0.95162192179E+03  0.95162192179E+03  0.00000000000E+00 0.  1.
         25    2    1    2    0    0  0.90721321519E+02  0.90633812169E+02 -0.66196586688E+03  0.68577807438E+03  0.12509161566E+03 0.  0.
          5    1    3    3  502    0  0.10933176979E+03  0.10647532088E+03 -0.53220811677E+03  0.55367263053E+03  0.41800000000E+01 0.  1.
         -5    1    3    3    0  502 -0.18610448269E+02 -0.15841508710E+02 -0.12975775011E+03  0.13210544386E+03  0.41800000000E+01 0.  1.
        -11    1    1    2    0    0 -0.99474590814E+02 -0.47015930902E+02 -0.20803216699E+03  0.23533608835E+03  0.00000000000E+00 0.  1.
         11    1    1    2    0    0  0.87532692952E+01 -0.43617881267E+02 -0.47240753384E+02  0.64890893582E+02  0.00000000000E+00 0. -1.
</event>
<event>
 7    1  0.2394257E-009  0.1982313E+03  0.7561462E-02  0.1151240E+00
          1   -1    0    0  501    0  0.00000000000E+00  0.00000000000E+00  0.10103505961E+04  0.10103505961E+04  0.00000000000E+00 0. -1.
         -1   -1    0    0    0  501 -0.00000000000E+00 -0.00000000000E+00 -0.42682823065E+02  0.42682823065E+02  0.00000000000E+00 0.  1.
         25    2    1    2    0    0  0.28595569455E+02 -0.17426012156E+03  0.47164780976E+03  0.51892557394E+03  0.12509115987E+03 0.  0.
          5    1    3    3  502    0  0.35138585088E+02 -0.13730203206E+02  0.19772189326E+03  0.20133220834E+03  0.41800000000E+01 0. -1.
         -5    1    3    3    0  502 -0.65430156332E+01 -0.16052991835E+03  0.27392591650E+03  0.31759336559E+03  0.41800000000E+01 0. -1.
        -11    1    1    2    0    0  0.32223480246E+02  0.70543339830E+02  0.20878189122E+03  0.22272088715E+03  0.00000000000E+00 0.  1.
         11    1    1    2    0    0 -0.60819049700E+02  0.10371678173E+03  0.28723807206E+03  0.31138695808E+03  0.00000000000E+00 0. -1.
</event>
<event>
 7    1  0.2394257E-009  0.1511086E+03  0.7561462E-02  0.1199117E+00
         -1   -1    0    0    0  501 -0.00000000000E+00  0.00000000000E+00  0.77478498936E+02  0.77478498936E+02  0.00000000000E+00 0.  1.
          1   -1    0    0  501    0  0.00000000000E+00 -0.00000000000E+00 -0.37980288382E+03  0.37980288382E+03  0.00000000000E+00 0. -1.
         25    2    1    2    0    0  0.25278081202E+02  0.12552574019E+03 -0.11744103899E+03  0.21408960934E+03  0.12508505246E+03 0.  0.
          5    1    3    3  502    0 -0.18898107205E+02  0.73063565115E+02 -0.12383693368E+03  0.14508094826E+03  0.41800000000E+01 0.  1.
         -5    1    3    3    0  502  0.44176188408E+02  0.52462175076E+02  0.63958946921E+01  0.69008661086E+02  0.41800000000E+01 0.  1.
        -11    1    1    2    0    0 -0.44427857696E+02 -0.13073371676E+03 -0.16393438570E+03  0.21433530286E+03  0.00000000000E+00 0. -1.
         11    1    1    2    0    0  0.19149776494E+02  0.52079765644E+01 -0.20948960187E+02  0.28856470549E+02  0.00000000000E+00 0.  1.
</event>
<event>
 7    1  0.2394257E-009  0.1310519E+03  0.7561462E-02  0.1225903E+00
         -1   -1    0    0    0  501 -0.00000000000E+00  0.00000000000E+00  0.43513263534E+02  0.43513263534E+02  0.00000000000E+00 0.  1.
          1   -1    0    0  501    0  0.00000000000E+00 -0.00000000000E+00 -0.63118156229E+03  0.63118156229E+03  0.00000000000E+00 0. -1.
         25    2    1    2    0    0  0.96854838344E+02  0.76502785315E+02 -0.33724140815E+03  0.38027956033E+03  0.12508893142E+03 0.  0.
          5    1    3    3  502    0  0.45604734130E+02  0.18328452281E+02 -0.27872378915E+03  0.28305502465E+03  0.41800000000E+01 0. -1.
         -5    1    3    3    0  502  0.51250104214E+02  0.58174333034E+02 -0.58517618998E+02  0.97224535684E+02  0.41800000000E+01 0. -1.
        -11    1    1    2    0    0 -0.27272750215E+02  0.52555818278E+01 -0.74190109154E+01  0.28748317648E+02  0.00000000000E+00 0.  1.
         11    1    1    2    0    0 -0.69582088129E+02 -0.81758367142E+02 -0.24300787969E+03  0.26566694785E+03  0.00000000000E+00 0. -1.
</event>
<event>
 7    1  0.2394257E-009  0.2248406E+03  0.7561462E-02  0.1130325E+00
          2   -1    0    0  501    0  0.00000000000E+00  0.00000000000E+00  0.28040897688E+04  0.28040897688E+04  0.00000000000E+00 0. -1.
         -2   -1    0    0    0  501 -0.00000000000E+00 -0.00000000000E+00 -0.21646631933E+02  0.21646631933E+02  0.00000000000E+00 0.  1.
         25    2    1    2    0    0 -0.21247832387E+03  0.25275481216E+02  0.17186791686E+04  0.17364594890E+04  0.12509030514E+03 0.  0.
          5    1    3    3  502    0 -0.84992303103E+02 -0.15326936085E+02  0.11036350118E+04  0.11070168555E+04  0.41800000000E+01 0. -1.
         -5    1    3    3    0  502 -0.12748602077E+03  0.40602417301E+02  0.61504415676E+03  0.62944263356E+03  0.41800000000E+01 0. -1.
        -11    1    1    2    0    0  0.11833892690E+03 -0.55193157172E+02  0.71354206169E+03  0.72539138402E+03  0.00000000000E+00 0. -1.
         11    1    1    2    0    0  0.94139396968E+02  0.29917675955E+02  0.35022190655E+03  0.36388552764E+03  0.00000000000E+00 0.  1.
</event>
<event>
 7    1  0.2394257E-009  0.9760290E+02  0.7561462E-02  0.1285419E+00
         -2   -1    0    0    0  501 -0.00000000000E+00  0.00000000000E+00  0.22203700629E+02  0.22203700629E+02  0.00000000000E+00 0.  1.
          2   -1    0    0  501    0  0.00000000000E+00 -0.00000000000E+00 -0.51280350399E+03  0.51280350399E+03  0.00000000000E+00 0. -1.
         25    2    1    2    0    0  0.51320219573E+01  0.34907019823E+02 -0.33178005212E+03  0.35632788839E+03  0.12508686333E+03 0.  0.
          5    1    3    3  502    0  0.55728189823E+02  0.29134856167E+02 -0.94356583064E+02  0.11346853375E+03  0.41800000000E+01 0.  1.
         -5    1    3    3    0  502 -0.50596167865E+02  0.57721636560E+01 -0.23742346906E+03  0.24285935464E+03  0.41800000000E+01 0.  1.
        -11    1    1    2    0    0 -0.35332450159E+02 -0.54108458302E+00 -0.81628027352E+02  0.88948353870E+02  0.00000000000E+00 0. -1.
         11    1    1    2    0    0  0.30200428202E+02 -0.34365935240E+02 -0.77191723884E+02  0.89730962353E+02  0.00000000000E+00 0.  1.
</event>
<event>
 7    1  0.2573173E-009  0.1423327E+03  0.7561462E-02  0.1210224E+00
         -1   -1    0    0    0  501 -0.00000000000E+00  0.00000000000E+00  0.15288952082E+02  0.15288952082E+02  0.00000000000E+00 0.  1.
          1   -1    0    0  501    0  0.00000000000E+00 -0.00000000000E+00 -0.13556406975E+04  0.13556406975E+04  0.00000000000E+00 0. -1.
         25    2    1    2    0    0 -0.83744384793E+02  0.43286666964E+02 -0.74680122428E+03  0.76305055594E+03  0.12508886768E+03 0.  0.
          5    1    3    3  502    0 -0.73441551163E+02 -0.32104073789E+02 -0.36547342581E+03  0.37418261633E+03  0.41800000000E+01 0.  1.
         -5    1    3    3    0  502 -0.10302833630E+02  0.75390740753E+02 -0.38132779846E+03  0.38886793960E+03  0.41800000000E+01 0.  1.
        -11    1    1    2    0    0  0.83772151631E+01 -0.51689706512E+02 -0.18125255729E+03  0.18866502860E+03  0.00000000000E+00 0. -1.
         11    1    1    2    0    0  0.75367169630E+02  0.84030395488E+01 -0.41229796389E+03  0.41921406507E+03  0.00000000000E+00 0.  1.
</event>
<event>
 7    1  0.2394257E-009  0.1088552E+03  0.7561462E-02  0.1262705E+00
         -2   -1    0    0    0  501 -0.00000000000E+00  0.00000000000E+00  0.24837761551E+03  0.24837761551E+03  0.00000000000E+00 0. -1.
          2   -1    0    0  501    0  0.00000000000E+00 -0.00000000000E+00 -0.96780164418E+02  0.96780164418E+02  0.00000000000E+00 0.  1.
         25    2    1    2    0    0  0.56363358599E+02  0.46495848082E+02  0.16914959127E+03  0.22271138001E+03  0.12510028969E+03 0.  0.
          5    1    3    3  502    0  0.95826690982E+02  0.41472891251E+02  0.11496655032E+03  0.15536259365E+03  0.41800000000E+01 0. -1.
         -5    1    3    3    0  502 -0.39463332383E+02  0.50229568304E+01  0.54183040947E+02  0.67348786362E+02  0.41800000000E+01 0. -1.
        -11    1    1    2    0    0 -0.33171058051E+02 -0.30255429322E+02 -0.57830450354E+02  0.73212506335E+02  0.00000000000E+00 0.  1.
         11    1    1    2    0    0 -0.23192300548E+02 -0.16240418760E+02  0.40278310180E+02  0.49233893581E+02  0.00000000000E+00 0. -1.
</event>
<event>
 7    1  0.2394257E-009  0.5489036E+02  0.7561462E-02  0.1420618E+00
         -2   -1    0    0    0  501 -0.00000000000E+00  0.00000000000E+00  0.57624343121E+03  0.57624343121E+03  0.00000000000E+00 0. -1.
          2   -1    0    0  501    0  0.00000000000E+00 -0.00000000000E+00 -0.21259267739E+02  0.21259267739E+02  0.00000000000E+00 0.  1.
         25    2    1    2    0    0 -0.77293873999E+01  0.27418164987E+02  0.33149884011E+03  0.35545110933E+03  0.12507002413E+03 0.  0.
          5    1    3    3  502    0 -0.33655138163E+01 -0.24855426764E+01  0.32397488983E+03  0.32402886638E+03  0.41800000000E+01 0. -1.
         -5    1    3    3    0  502 -0.43638735836E+01  0.29903707664E+02  0.75239502761E+01  0.31422242957E+02  0.41800000000E+01 0. -1.
        -11    1    1    2    0    0 -0.17714975101E+02 -0.40893782767E+02  0.53432097870E+02  0.69578092059E+02  0.00000000000E+00 0.  1.
         11    1    1    2    0    0  0.25444362501E+02  0.13475617780E+02  0.17005322550E+03  0.17247349756E+03  0.00000000000E+00 0. -1.
</event>
<event>
 7    1  0.2394257E-009  0.9978577E+02  0.7561462E-02  0.1280747E+00
         -1   -1    0    0    0  501 -0.00000000000E+00  0.00000000000E+00  0.26159057678E+03  0.26159057678E+03  0.00000000000E+00 0.  1.
          1   -1    0    0  501    0  0.00000000000E+00 -0.00000000000E+00 -0.56009853595E+02  0.56009853595E+02  0.00000000000E+00 0. -1.
         25    2    1    2    0    0  0.43680285422E+02 -0.13533162463E+02  0.15740868003E+03  0.20619322397E+03  0.12508812590E+03 0.  0.
          5    1    3    3  502    0 -0.42811858048E+02  0.72238860545E+01  0.43402405904E+02  0.61532763285E+02  0.41800000000E+01 0.  1.
         -5    1    3    3    0  502  0.86492143469E+02 -0.20757048518E+02  0.11400627413E+03  0.14466046068E+03  0.41800000000E+01 0.  1.
        -11    1    1    2    0    0 -0.29701246098E+02 -0.16358889892E+02  0.65779149333E+02  0.74004552463E+02  0.00000000000E+00 0.  1.
         11    1    1    2    0    0 -0.13979039324E+02  0.29892052356E+02 -0.17607106175E+02  0.37402653947E+02  0.00000000000E+00 0. -1.
</event>
<event>
 7    1  0.2394257E-009  0.8867564E+02  0.7561462E-02  0.1306091E+00
         -3   -1    0    0    0  501 -0.00000000000E+00  0.00000000000E+00  0.25243927738E+03  0.25243927738E+03  0.00000000000E+00 0.  1.
          3   -1    0    0  501    0  0.00000000000E+00 -0.00000000000E+00 -0.50315083387E+02  0.50315083387E+02  0.00000000000E+00 0. -1.
         25    2    1    2    0    0  0.15049216695E+02 -0.23335012556E+02  0.13586920306E+03  0.18676333559E+03  0.12509636864E+03 0.  0.
          5    1    3    3  502    0  0.45286023001E+02 -0.36042505410E+02  0.14176148026E+03  0.15317857475E+03  0.41800000000E+01 0. -1.
         -5    1    3    3    0  502 -0.30236806306E+02  0.12707492854E+02 -0.58922772012E+01  0.33584760842E+02  0.41800000000E+01 0. -1.
        -11    1    1    2    0    0  0.38736801399E+01  0.51872666846E+02  0.62845579115E+02  0.81580302634E+02  0.00000000000E+00 0.  1.
         11    1    1    2    0    0 -0.18922896835E+02 -0.28537654290E+02  0.34094118172E+01  0.34410722543E+02  0.00000000000E+00 0. -1.
</event>
<event>
 7    1  0.2394257E-009  0.1138069E+03  0.7561462E-02  0.1253678E+00
         -1   -1    0    0    0  501 -0.00000000000E+00  0.00000000000E+00  0.15858721570E+02  0.15858721570E+02  0.00000000000E+00 0.  1.
          1   -1    0    0  501    0  0.00000000000E+00 -0.00000000000E+00 -0.96298030820E+03  0.96298030820E+03  0.00000000000E+00 0. -1.
         25    2    1    2    0    0 -0.36609177649E+02  0.42213641789E+02 -0.44078593862E+03  0.46158776543E+03  0.12509515603E+03 0.  0.
          5    1    3    3  502    0 -0.68229561854E+02 -0.50016620256E+01 -0.32961197299E+03  0.33666276134E+03  0.41800000000E+01 0.  1.
         -5    1    3    3    0  502  0.31620384205E+02  0.47215303815E+02 -0.11117396563E+03  0.12492500408E+03  0.41800000000E+01 0.  1.
        -11    1    1    2    0    0 -0.22344309660E+02 -0.36590521877E+02 -0.14915957939E+03  0.15519895164E+03  0.00000000000E+00 0.  1.
         11    1    1    2    0    0  0.58953487309E+02 -0.56231199123E+01 -0.35717606862E+03  0.36205231271E+03  0.00000000000E+00 0. -1.
</event>
<event>
 7    1  0.2394257E-009  0.1193184E+03  0.7561462E-02  0.1244226E+00
          2   -1    0    0  501    0  0.00000000000E+00  0.00000000000E+00  0.80329838155E+03  0.80329838155E+03  0.00000000000E+00 0. -1.
         -2   -1    0    0    0  501 -0.00000000000E+00 -0.00000000000E+00 -0.18337554189E+02  0.18337554189E+02  0.00000000000E+00 0.  1.
         25    2    1    2    0    0 -0.32634572231E+02  0.58426284268E+02  0.51086672513E+03  0.53019865360E+03  0.12508859037E+03 0.  0.
          5    1    3    3  502    0 -0.15657615471E+02  0.97480976975E+02  0.37078164470E+03  0.38372412257E+03  0.41800000000E+01 0. -1.
         -5    1    3    3    0  502 -0.16976956760E+02 -0.39054692707E+02  0.14008508043E+03  0.14647453104E+03  0.41800000000E+01 0. -1.
        -11    1    1    2    0    0  0.47591714490E+02 -0.65107061621E+02  0.20196329669E+03  0.21746970817E+03  0.00000000000E+00 0.  1.
         11    1    1    2    0    0 -0.14957142259E+02  0.66807773523E+01  0.72130805540E+02  0.73967573966E+02  0.00000000000E+00 0. -1.
</event>
<event>
 7    1  0.2394257E-009  0.1150500E+03  0.7561462E-02  0.1251494E+00
         -4   -1    0    0    0  501 -0.00000000000E+00  0.00000000000E+00  0.49882060559E+03  0.49882060559E+03  0.00000000000E+00 0. -1.
          4   -1    0    0  501    0  0.00000000000E+00 -0.00000000000E+00 -0.50408317411E+02  0.50408317411E+02  0.00000000000E+00 0.  1.
         25    2    1    2    0    0  0.12773522813E+02  0.70586935832E+02  0.83665660104E+02  0.16671159042E+03  0.12508850189E+03 0.  0.
          5    1    3    3  502    0 -0.30082406751E+02 -0.31138495406E+01  0.74926351674E+02  0.80907835406E+02  0.41800000000E+01 0.  1.
         -5    1    3    3    0  502  0.42855929564E+02  0.73700785372E+02  0.87393084297E+01  0.85803755017E+02  0.41800000000E+01 0.  1.
        -11    1    1    2    0    0  0.16354144140E+02 -0.81486644524E+02  0.28666221599E+03  0.29846734720E+03  0.00000000000E+00 0. -1.
         11    1    1    2    0    0 -0.29127666953E+02  0.10899708692E+02  0.78084412084E+02  0.84049985379E+02  0.00000000000E+00 0.  1.
</event>
<event>
 7    1  0.2394257E-009  0.2488784E+03  0.7561462E-02  0.1114016E+00
          2   -1    0    0  501    0  0.00000000000E+00  0.00000000000E+00  0.60143132137E+03  0.60143132137E+03  0.00000000000E+00 0. -1.
         -2   -1    0    0    0  501 -0.00000000000E+00 -0.00000000000E+00 -0.10872086904E+03  0.10872086904E+03  0.00000000000E+00 0.  1.
         25    2    1    2    0    0 -0.60317868638E+02  0.22463098117E+03  0.25585927915E+03  0.36770823586E+03  0.12509217808E+03 0.  0.
          5    1    3    3  502    0  0.31801355326E+02  0.52882107336E+02  0.10233631725E+03  0.11957440239E+03  0.41800000000E+01 0. -1.
         -5    1    3    3    0  502 -0.92119223964E+02  0.17174887383E+03  0.15352296189E+03  0.24813383348E+03  0.41800000000E+01 0. -1.
        -11    1    1    2    0    0  0.61507958913E+02 -0.10765717731E+03  0.83144787356E+02  0.14928614303E+03  0.00000000000E+00 0.  1.
         11    1    1    2    0    0 -0.11900902755E+01 -0.11697380386E+03  0.15370638583E+03  0.19315781152E+03  0.00000000000E+00 0. -1.
</event>
<event>
 7    1  0.2394257E-009  0.1146636E+03  0.7561462E-02  0.1252169E+00
          2   -1    0    0  501    0  0.00000000000E+00  0.00000000000E+00  0.10772767582E+03  0.10772767582E+03  0.00000000000E+00 0. -1.
         -2   -1    0    0    0  501 -0.00000000000E+00 -0.00000000000E+00 -0.12997855816E+03  0.12997855816E+03  0.00000000000E+00 0.  1.
         25    2    1    2    0    0  0.41295117836E+02 -0.10457089522E+02 -0.38051544945E+02  0.13751418274E+03  0.12509033897E+03 0.  0.
          5    1    3    3  502    0  0.63582537533E+02 -0.53504075334E+02 -0.28356672259E+02  0.87903347024E+02  0.41800000000E+01 0. -1.
         -5    1    3    3    0  502 -0.22287419696E+02  0.43046985811E+02 -0.96948726867E+01  0.49610835717E+02  0.41800000000E+01 0. -1.
        -11    1    1    2    0    0 -0.45049871885E+02  0.44439363386E+02  0.19675181361E+01  0.63310497571E+02  0.00000000000E+00 0. -1.
         11    1    1    2    0    0  0.37547540488E+01 -0.33982273864E+02  0.13833144475E+02  0.36881553668E+02  0.00000000000E+00 0.  1.
</event>
<event>
 7    1  0.2394257E-009  0.1658264E+03  0.7561462E-02  0.1182271E+00
          2   -1    0    0  501    0  0.00000000000E+00  0.00000000000E+00  0.31555988913E+03  0.31555988913E+03  0.00000000000E+00 0. -1.
         -2   -1    0    0    0  501 -0.00000000000E+00 -0.00000000000E+00 -0.89187182152E+02  0.89187182152E+02  0.00000000000E+00 0.  1.
         25    2    1    2    0    0 -0.82323009776E+02 -0.95126268753E+02  0.13951518433E+03  0.22569507611E+03  0.12509075016E+03 0.  0.
          5    1    3    3  502    0 -0.10333397185E+03 -0.10894723222E+03  0.10725149432E+03  0.18457455020E+03  0.41800000000E+01 0. -1.
         -5    1    3    3    0  502  0.21010962069E+02  0.13820963472E+02  0.32263690006E+02  0.41120525911E+02  0.41800000000E+01 0. -1.
        -11    1    1    2    0    0  0.37725270362E+02  0.10385858814E+03  0.54094370631E+02  0.12302846536E+03  0.00000000000E+00 0.  1.
         11    1    1    2    0    0  0.44597739414E+02 -0.87323193896E+01  0.32763152022E+02  0.56023529817E+02  0.00000000000E+00 0. -1.
</event>
<event>
 7    1  0.2394257E-009  0.2241526E+03  0.7561462E-02  0.1130824E+00
          2   -1    0    0  501    0  0.00000000000E+00  0.00000000000E+00  0.56758709885E+03  0.56758709885E+03  0.00000000000E+00 0. -1.
         -2   -1    0    0    0  501 -0.00000000000E+00 -0.00000000000E+00 -0.15262335423E+03  0.15262335423E+03  0.00000000000E+00 0.  1.
         25    2    1    2    0    0 -0.21495142458E+03  0.44912751560E+02  0.41163943441E+03  0.48303060734E+03  0.12510105308E+03 0.  0.
          5    1    3    3  502    0 -0.17907245054E+03  0.25464254569E+02  0.40207634970E+03  0.44090615122E+03  0.41800000000E+01 0. -1.
         -5    1    3    3    0  502 -0.35878974042E+02  0.19448496991E+02  0.95630847121E+01  0.42124456112E+02  0.41800000000E+01 0. -1.
        -11    1    1    2    0    0  0.16949961465E+03 -0.11390735612E+02 -0.28649190540E+02  0.17228071379E+03  0.00000000000E+00 0.  1.
         11    1    1    2    0    0  0.45451809922E+02 -0.33522015949E+02  0.31973500744E+02  0.64899131954E+02  0.00000000000E+00 0. -1.
</event>
<event>
 7    1  0.2394257E-009  0.1649053E+03  0.7561462E-02  0.1183267E+00
          4   -1    0    0  501    0  0.00000000000E+00  0.00000000000E+00  0.60362497336E+03  0.60362497336E+03  0.00000000000E+00 0. -1.
         -4   -1    0    0    0  501 -0.00000000000E+00 -0.00000000000E+00 -0.59926671661E+02  0.59926671661E+02  0.00000000000E+00 0.  1.
         25    2    1    2    0    0 -0.35553871459E+02  0.13187728247E+03  0.41784142788E+03  0.45704960585E+03  0.12508872028E+03 0.  0.
          5    1    3    3  502    0 -0.55242670371E+02  0.14400771130E+03  0.30523754704E+03  0.34201959895E+03  0.41800000000E+01 0. -1.
         -5    1    3    3    0  502  0.19688798912E+02 -0.12130428825E+02  0.11260388084E+03  0.11503000690E+03  0.41800000000E+01 0. -1.
        -11    1    1    2    0    0  0.37419888811E+02 -0.24737341408E+02  0.76146327741E+02  0.88376735440E+02  0.00000000000E+00 0. -1.
         11    1    1    2    0    0 -0.18660173519E+01 -0.10713994106E+03  0.49710546076E+02  0.11812530374E+03  0.00000000000E+00 0.  1.
</event>
<event>
 7    1  0.2394257E-009  0.1242161E+03  0.7561462E-02  0.1236300E+00
          2   -1    0    0  501    0  0.00000000000E+00  0.00000000000E+00  0.22224645717E+03  0.22224645717E+03  0.00000000000E+00 0. -1.
         -2   -1    0    0    0  501 -0.00000000000E+00 -0.00000000000E+00 -0.11047107101E+03  0.11047107101E+03  0.00000000000E+00 0.  1.
         25    2    1    2    0    0  0.97711791693E+02 -0.40279057449E+02  0.21250116700E+02  0.16513237491E+03  0.12508851698E+03 0.  0.
          5    1    3    3  502    0  0.74918583215E+02  0.19913809775E+02 -0.29512396728E+02  0.83053042637E+02  0.41800000000E+01 0.  1.
         -5    1    3    3    0  502  0.22793208479E+02 -0.60192867224E+02  0.50762513428E+02  0.82079332276E+02  0.41800000000E+01 0.  1.
        -11    1    1    2    0    0 -0.37774294113E+02  0.21627567883E+02 -0.13944692649E+02  0.45706711119E+02  0.00000000000E+00 0.  1.
         11    1    1    2    0    0 -0.59937497581E+02  0.18651489566E+02  0.10446996210E+03  0.12187844215E+03  0.00000000000E+00 0. -1.
</event>
<event>
 7    1  0.2394257E-009  0.1108545E+03  0.7561462E-02  0.1258996E+00
         -4   -1    0    0    0  501 -0.00000000000E+00  0.00000000000E+00  0.18822247402E+03  0.18822247402E+03  0.00000000000E+00 0.  1.
          4   -1    0    0  501    0  0.00000000000E+00 -0.00000000000E+00 -0.13615682681E+03  0.13615682681E+03  0.00000000000E+00 0. -1.
         25    2    1    2    0    0  0.98827888858E+02  0.14639221708E+02 -0.36872118940E+02  0.16428106027E+03  0.12508978847E+03 0.  0.
          5    1    3    3  502    0  0.85113592025E+02  0.20910059549E+02  0.32194423378E+02  0.93463936544E+02  0.41800000000E+01 0.  1.
         -5    1    3    3    0  502  0.13714296833E+02 -0.62708378408E+01 -0.69066542318E+02  0.70817123724E+02  0.41800000000E+01 0.  1.
        -11    1    1    2    0    0 -0.10561403555E+03 -0.22445531558E+02  0.98396304104E+02  0.14608202851E+03  0.00000000000E+00 0.  1.
         11    1    1    2    0    0  0.67861466869E+01  0.78063098491E+01 -0.94585379512E+01  0.14016212059E+02  0.00000000000E+00 0. -1.
</event>
<event>
 7    1  0.2394257E-009  0.9442192E+02  0.7561462E-02  0.1292483E+00
          2   -1    0    0  501    0  0.00000000000E+00  0.00000000000E+00  0.10535094849E+04  0.10535094849E+04  0.00000000000E+00 0. -1.
         -2   -1    0    0    0  501 -0.00000000000E+00 -0.00000000000E+00 -0.15688499214E+02  0.15688499214E+02  0.00000000000E+00 0.  1.
         25    2    1    2    0    0  0.56419409992E+00 -0.35919242723E+02  0.81292465231E+03  0.82327656696E+03  0.12508918843E+03 0.  0.
          5    1    3    3  502    0  0.44766701856E+02 -0.29728562183E+01  0.64314321867E+03  0.64471975896E+03  0.41800000000E+01 0. -1.
         -5    1    3    3    0  502 -0.44202507756E+02 -0.32946386505E+02  0.16978143364E+03  0.17855680800E+03  0.41800000000E+01 0. -1.
        -11    1    1    2    0    0 -0.40668767955E+02  0.20340605427E+02  0.58731974562E+02  0.74277410779E+02  0.00000000000E+00 0.  1.
         11    1    1    2    0    0  0.40104573855E+02  0.15578637296E+02  0.16616435881E+03  0.17164400637E+03  0.00000000000E+00 0. -1.
</event>
<event>
 7    1  0.2394257E-009  0.8370417E+02  0.7561462E-02  0.1318856E+00
          2   -1    0    0  501    0  0.00000000000E+00  0.00000000000E+00  0.74968897925E+03  0.74968897925E+03  0.00000000000E+00 0. -1.
         -2   -1    0    0    0  501 -0.00000000000E+00 -0.00000000000E+00 -0.16423163492E+02  0.16423163492E+02  0.00000000000E+00 0.  1.
         25    2    1    2    0    0 -0.77597275577E+01 -0.29695742183E+02  0.43080736262E+03  0.44964950715E+03  0.12509054769E+03 0.  0.
          5    1    3    3  502    0 -0.25814135836E+02  0.14092941790E+02  0.37566492938E+03  0.37683762045E+03  0.41800000000E+01 0.  1.
         -5    1    3    3    0  502  0.18054408279E+02 -0.43788683973E+02  0.55142433239E+02  0.72811886707E+02  0.41800000000E+01 0.  1.
        -11    1    1    2    0    0 -0.22180406605E+02 -0.21471281633E+02  0.68931656923E+02  0.75528535655E+02  0.00000000000E+00 0.  1.
         11    1    1    2    0    0  0.29940134162E+02  0.51167023816E+02  0.23352679622E+03  0.24093409994E+03  0.00000000000E+00 0. -1.
</event>
<event>
 7    1  0.2394257E-009  0.9791792E+02  0.7561462E-02  0.1284736E+00
          1   -1    0    0  501    0  0.00000000000E+00  0.00000000000E+00  0.11172724895E+04  0.11172724895E+04  0.00000000000E+00 0. -1.
         -1   -1    0    0    0  501 -0.00000000000E+00 -0.00000000000E+00 -0.11385647775E+02  0.11385647775E+02  0.00000000000E+00 0.  1.
         25    2    1    2    0    0  0.25220947383E+02 -0.21604075683E+02  0.64874013539E+03  0.66152433798E+03  0.12509138337E+03 0.  0.
          5    1    3    3  502    0  0.36284243016E+01 -0.57621268110E+02  0.56292931819E+03  0.56589775197E+03  0.41800000000E+01 0.  1.
         -5    1    3    3    0  502  0.21592523082E+02  0.36017192427E+02  0.85810817203E+02  0.95626586012E+02  0.41800000000E+01 0.  1.
        -11    1    1    2    0    0  0.27021750721E+02  0.32618067954E+02  0.22160876031E+03  0.22562038032E+03  0.00000000000E+00 0.  1.
         11    1    1    2    0    0 -0.52242698104E+02 -0.11013992270E+02  0.23553794602E+03  0.24151341898E+03  0.00000000000E+00 0. -1.
</event>
<event>
 7    1  0.2394257E-009  0.1158092E+03  0.7561462E-02  0.1250175E+00
          1   -1    0    0  501    0  0.00000000000E+00  0.00000000000E+00  0.21073397172E+03  0.21073397172E+03  0.00000000000E+00 0. -1.
         -1   -1    0    0    0  501 -0.00000000000E+00 -0.00000000000E+00 -0.75826646129E+02  0.75826646129E+02  0.00000000000E+00 0.  1.
         25    2    1    2    0    0 -0.47500566655E+02  0.17202675287E+00  0.25395676267E+02  0.13619490827E+03  0.12509108378E+03 0.  0.
          5    1    3    3  502    0  0.33136507210E+02  0.28700914981E+02  0.24832740970E+02  0.50555989308E+02  0.41800000000E+01 0. -1.
         -5    1    3    3    0  502 -0.80637073865E+02 -0.28528888228E+02  0.56293529668E+00  0.85638918963E+02  0.41800000000E+01 0. -1.
        -11    1    1    2    0    0  0.71988217668E+02 -0.14697017708E+02  0.68584524885E+02  0.10050941680E+03  0.00000000000E+00 0.  1.
         11    1    1    2    0    0 -0.24487651013E+02  0.14524990955E+02  0.40927124436E+02  0.49856292772E+02  0.00000000000E+00 0. -1.
</event>
<event>
 7    1  0.2394257E-009  0.1050249E+03  0.7561462E-02  0.1270071E+00
          1   -1    0    0  501    0  0.00000000000E+00  0.00000000000E+00  0.58378855994E+03  0.58378855994E+03  0.00000000000E+00 0. -1.
         -1   -1    0    0    0  501 -0.00000000000E+00 -0.00000000000E+00 -0.23841490640E+02  0.23841490640E+02  0.00000000000E+00 0.  1.
         25    2    1    2    0    0 -0.51062556886E+02 -0.36562568850E+01  0.33559461556E+03  0.36178871930E+03  0.12508628419E+03 0.  0.
          5    1    3    3  502    0  0.16440022657E+02  0.39877198216E+02  0.55731340478E+02  0.70596883741E+02  0.41800000000E+01 0.  1.
         -5    1    3    3    0  502 -0.67502579544E+02 -0.43533455101E+02  0.27986327508E+03  0.29119183556E+03  0.41800000000E+01 0.  1.
        -11    1    1    2    0    0  0.27519616282E+01  0.30764042947E+02  0.27541458041E+02  0.41382744499E+02  0.00000000000E+00 0.  1.
         11    1    1    2    0    0  0.48310595258E+02 -0.27107786062E+02  0.19681099570E+03  0.20445858678E+03  0.00000000000E+00 0. -1.
</event>
<event>
 7    1  0.2394257E-009  0.4230789E+03  0.7561462E-02  0.1036069E+00
         -2   -1    0    0    0  501 -0.00000000000E+00  0.00000000000E+00  0.38997035045E+03  0.38997035045E+03  0.00000000000E+00 0. -1.
          2   -1    0    0  501    0  0.00000000000E+00 -0.00000000000E+00 -0.88235829353E+03  0.88235829353E+03  0.00000000000E+00 0.  1.
         25    2    1    2    0    0 -0.40864038732E+03  0.48709045263E+02 -0.68502926368E+03  0.80887196837E+03  0.12509688998E+03 0.  0.
          5    1    3    3  502    0 -0.41456246844E+03  0.38599975485E+02 -0.67403435196E+03  0.79227001607E+03  0.41800000000E+01 0. -1.
         -5    1    3    3    0  502  0.59220811150E+01  0.10109069778E+02 -0.10994911719E+02  0.16601952301E+02  0.41800000000E+01 0. -1.
        -11    1    1    2    0    0  0.23824262014E+03 -0.62746425478E+02  0.14540865004E+03  0.28607749906E+03  0.00000000000E+00 0.  1.
         11    1    1    2    0    0  0.17039776718E+03  0.14037380215E+02  0.47232670557E+02  0.17737917654E+03  0.00000000000E+00 0. -1.
</event>
<event>
 7    1  0.2394257E-009  0.1548716E+03  0.7561462E-02  0.1194611E+00
          2   -1    0    0  501    0  0.00000000000E+00  0.00000000000E+00  0.72775841874E+03  0.72775841874E+03  0.00000000000E+00 0. -1.
         -2   -1    0    0    0  501 -0.00000000000E+00 -0.00000000000E+00 -0.77880038100E+02  0.77880038100E+02  0.00000000000E+00 0.  1.
         25    2    1    2    0    0  0.11262224906E+03  0.91280490489E+02  0.59704480309E+03  0.62699810498E+03  0.12509287676E+03 0.  0.
          5    1    3    3  502    0  0.11108814364E+03  0.51995124602E+02  0.55834378205E+03  0.57167238870E+03  0.41800000000E+01 0.  1.
         -5    1    3    3    0  502  0.15341054154E+01  0.39285365886E+02  0.38701021039E+02  0.55325716278E+02  0.41800000000E+01 0.  1.
        -11    1    1    2    0    0 -0.89367575655E+02 -0.56797321179E+02  0.76642950669E+02  0.13071587952E+03  0.00000000000E+00 0. -1.
         11    1    1    2    0    0 -0.23254673404E+02 -0.34483169310E+02 -0.23809373123E+02  0.47924472342E+02  0.00000000000E+00 0.  1.
</event>
<event>
 7    1  0.2394257E-009  0.1830048E+03  0.7561462E-02  0.1164926E+00
          1   -1    0    0  501    0  0.00000000000E+00  0.00000000000E+00  0.25914027446E+03  0.25914027446E+03  0.00000000000E+00 0. -1.
         -1   -1    0    0    0  501 -0.00000000000E+00 -0.00000000000E+00 -0.23912779600E+03  0.23912779600E+03  0.00000000000E+00 0.  1.
         25    2    1    2    0    0 -0.13304766433E+03 -0.10708862140E+03 -0.13731649464E+03  0.25233619019E+03  0.12509228339E+03 0.  0.
          5    1    3    3  502    0 -0.10939866698E+03 -0.38691058029E+02 -0.13733783338E+03  0.17984498655E+03  0.41800000000E+01 0.  1.
         -5    1    3    3    0  502 -0.23648997349E+02 -0.68397563372E+02  0.21338735279E-01  0.72491203647E+02  0.41800000000E+01 0.  1.
        -11    1    1    2    0    0  0.10854246406E+03  0.59266230502E+02  0.14541567857E+03  0.19089178127E+03  0.00000000000E+00 0. -1.
         11    1    1    2    0    0  0.24505200264E+02  0.47822390899E+02  0.11913294536E+02  0.55040099001E+02  0.00000000000E+00 0.  1.
</event>
<event>
 7    1  0.2394257E-009  0.1348400E+03  0.7561462E-02  0.1220446E+00
         -1   -1    0    0    0  501 -0.00000000000E+00  0.00000000000E+00  0.11687509104E+04  0.11687509104E+04  0.00000000000E+00 0.  1.
          1   -1    0    0  501    0  0.00000000000E+00 -0.00000000000E+00 -0.18972075118E+02  0.18972075118E+02  0.00000000000E+00 0. -1.
         25    2    1    2    0    0  0.14704336677E+02 -0.93534231650E+02  0.77433453011E+03  0.79006599481E+03  0.12508173981E+03 0.  0.
          5    1    3    3  502    0  0.54250823209E+02 -0.10240941302E+03  0.58850049384E+03  0.59981759172E+03  0.41800000000E+01 0. -1.
         -5    1    3    3    0  502 -0.39546486532E+02  0.88751813679E+01  0.18583403627E+03  0.19024840309E+03  0.41800000000E+01 0. -1.
        -11    1    1    2    0    0 -0.35186990993E+02  0.30086733968E+02  0.63017581773E+02  0.78195597757E+02  0.00000000000E+00 0. -1.
         11    1    1    2    0    0  0.20482654316E+02  0.63447497682E+02  0.31242672343E+03  0.31946139298E+03  0.00000000000E+00 0.  1.
</event>
<event>
 7    1  0.2394257E-009  0.9160572E+02  0.7561462E-02  0.1299009E+00
          3   -1    0    0  501    0  0.00000000000E+00  0.00000000000E+00  0.58067356473E+02  0.58067356473E+02  0.00000000000E+00 0. -1.
         -3   -1    0    0    0  501 -0.00000000000E+00 -0.00000000000E+00 -0.26793292623E+03  0.26793292623E+03  0.00000000000E+00 0.  1.
         25    2    1    2    0    0  0.17530041641E+02 -0.36744051493E+02 -0.17991798403E+03  0.22287869669E+03  0.12508798816E+03 0.  0.
          5    1    3    3  502    0  0.43282619023E+02  0.18303185097E+02 -0.19080058827E+02  0.50891185278E+02  0.41800000000E+01 0.  1.
         -5    1    3    3    0  502 -0.25752577382E+02 -0.55047236590E+02 -0.16083792520E+03  0.17198751141E+03  0.41800000000E+01 0.  1.
        -11    1    1    2    0    0  0.27173854226E+01 -0.17243356104E+02  0.20205830906E+02  0.26701930939E+02  0.00000000000E+00 0. -1.
         11    1    1    2    0    0 -0.20247427063E+02  0.53987407597E+02 -0.50153416632E+02  0.76419655074E+02  0.00000000000E+00 0.  1.
</event>
<event>
 7    1  0.2394257E-009  0.9624069E+02  0.7561462E-02  0.1288406E+00
         -2   -1    0    0    0  501 -0.00000000000E+00  0.00000000000E+00  0.16484405987E+03  0.16484405987E+03  0.00000000000E+00 0.  1.
          2   -1    0    0  501    0  0.00000000000E+00 -0.00000000000E+00 -0.89859444454E+02  0.89859444454E+02  0.00000000000E+00 0. -1.
         25    2    1    2    0    0 -0.26208572840E+02  0.40690697242E+01  0.90759839405E+02  0.15680484284E+03  0.12508782382E+03 0.  0.
          5    1    3    3  502    0  0.45264476230E+02 -0.11574597284E+02  0.10399503145E+02  0.48046500146E+02  0.41800000000E+01 0.  1.
         -5    1    3    3    0  502 -0.71473049070E+02  0.15643667008E+02  0.80360336260E+02  0.10875834269E+03  0.41800000000E+01 0.  1.
        -11    1    1    2    0    0 -0.34027672042E+01 -0.31644397516E+02  0.24987037982E+02  0.40463548855E+02  0.00000000000E+00 0.  1.
         11    1    1    2    0    0  0.29611340044E+02  0.27575327792E+02 -0.40762261972E+02  0.57435112633E+02  0.00000000000E+00 0. -1.
</event>
<event>
 7    1  0.2394257E-009  0.1570843E+03  0.7561462E-02  0.1192028E+00
          1   -1    0    0  501    0  0.00000000000E+00  0.00000000000E+00  0.86674707548E+03  0.86674707548E+03  0.00000000000E+00 0. -1.
         -1   -1    0    0    0  501 -0.00000000000E+00 -0.00000000000E+00 -0.38327371591E+02  0.38327371591E+02  0.00000000000E+00 0.  1.
         25    2    1    2    0    0 -0.85726419513E+02  0.11274681304E+03  0.35234054009E+03  0.39981519996E+03  0.12508986801E+03 0.  0.
          5    1    3    3  502    0  0.21383170637E+02  0.23186325290E+02  0.15383063882E+03  0.15708654782E+03  0.41800000000E+01 0.  1.
         -5    1    3    3    0  502 -0.10710959015E+03  0.89560487753E+02  0.19850990127E+03  0.24272865214E+03  0.41800000000E+01 0.  1.
        -11    1    1    2    0    0  0.42167599090E+02 -0.69479092859E+02  0.12670208951E+03  0.15052863596E+03  0.00000000000E+00 0.  1.
         11    1    1    2    0    0  0.43558820423E+02 -0.43267720184E+02  0.34937707429E+03  0.35473061115E+03  0.00000000000E+00 0. -1.
</event>
<event>
 7    1  0.2394257E-009  0.3657482E+03  0.7561462E-02  0.1056331E+00
         -2   -1    0    0    0  501 -0.00000000000E+00  0.00000000000E+00  0.12258305401E+03  0.12258305401E+03  0.00000000000E+00 0.  1.
          2   -1    0    0  501    0  0.00000000000E+00 -0.00000000000E+00 -0.11108820350E+04  0.11108820350E+04  0.00000000000E+00 0. -1.
         25    2    1    2    0    0  0.17256328932E+03 -0.30732823190E+03 -0.49027336365E+03  0.61663898311E+03  0.12508770302E+03 0.  0.
          5    1    3    3  502    0  0.16858871717E+03 -0.20588783964E+03 -0.40161160127E+03  0.48178969348E+03  0.41800000000E+01 0.  1.
         -5    1    3    3    0  502  0.39745721419E+01 -0.10144039226E+03 -0.88661762382E+02  0.13484928963E+03  0.41800000000E+01 0.  1.
        -11    1    1    2    0    0 -0.73135312123E+02  0.51964583439E+02 -0.11469350900E+03  0.14561487842E+03  0.00000000000E+00 0.  1.
         11    1    1    2    0    0 -0.99427977193E+02  0.25536364846E+03 -0.38333210831E+03  0.47121122744E+03  0.00000000000E+00 0. -1.
</event>
<event>
 7    1  0.2394257E-009  0.9849161E+02  0.7561462E-02  0.1283500E+00
          2   -1    0    0  501    0  0.00000000000E+00  0.00000000000E+00  0.18316531933E+03  0.18316531933E+03  0.00000000000E+00 0. -1.
         -2   -1    0    0    0  501 -0.00000000000E+00 -0.00000000000E+00 -0.10221468453E+03  0.10221468453E+03  0.00000000000E+00 0.  1.
         25    2    1    2    0    0  0.84443644994E+01 -0.80761169891E+02  0.15235119115E+02  0.14990793336E+03  0.12508639325E+03 0.  0.
          5    1    3    3  502    0  0.10677563176E+02 -0.50204228179E+02  0.70068111926E+02  0.86956814519E+02  0.41800000000E+01 0. -1.
         -5    1    3    3    0  502 -0.22331986764E+01 -0.30556941712E+02 -0.54832992810E+02  0.62951118843E+02  0.41800000000E+01 0. -1.
        -11    1    1    2    0    0  0.30996241243E+02  0.65147002628E+02  0.57520826124E+02  0.92268869943E+02  0.00000000000E+00 0.  1.
         11    1    1    2    0    0 -0.39440605742E+02  0.15614167263E+02  0.81946895585E+01  0.43203200548E+02  0.00000000000E+00 0. -1.
</event>
<event>
 7    1  0.2394257E-009  0.1391131E+03  0.7561462E-02  0.1214527E+00
          2   -1    0    0  501    0  0.00000000000E+00  0.00000000000E+00  0.34288463439E+03  0.34288463439E+03  0.00000000000E+00 0.  1.
         -2   -1    0    0    0  501 -0.00000000000E+00 -0.00000000000E+00 -0.80911965422E+02  0.80911965422E+02  0.00000000000E+00 0. -1.
         25    2    1    2    0    0  0.50064998668E+01 -0.11711120035E+03  0.20621352559E+03  0.26816373343E+03  0.12509065313E+03 0.  0.
          5    1    3    3  502    0  0.36959115362E+02 -0.60673839083E+02  0.18747262078E+03  0.20052617510E+03  0.41800000000E+01 0.  1.
         -5    1    3    3    0  502 -0.31952615496E+02 -0.56437361263E+02  0.18740904811E+02  0.67637558328E+02  0.41800000000E+01 0.  1.
        -11    1    1    2    0    0  0.26337921682E+02  0.10534837015E+03  0.55941966719E+02  0.12215346435E+03  0.00000000000E+00 0. -1.
         11    1    1    2    0    0 -0.31344421549E+02  0.11762830197E+02 -0.18282334183E+00  0.33479402038E+02  0.00000000000E+00 0.  1.
</event>
<event>
 7    1  0.4419447E-009  0.1417086E+03  0.7561462E-02  0.1211048E+00
         -1   -1    0    0    0  501 -0.00000000000E+00  0.00000000000E+00  0.10135416875E+03  0.10135416875E+03  0.00000000000E+00 0.  1.
          1   -1    0    0  501    0  0.00000000000E+00 -0.00000000000E+00 -0.32400883658E+03  0.32400883658E+03  0.00000000000E+00 0. -1.
         25    2    1    2    0    0  0.12273400445E+03 -0.49177239599E+02 -0.48227245102E+02  0.18829296234E+03  0.12508531391E+03 0.  0.
          5    1    3    3  502    0  0.38121168573E+02 -0.36330584158E+01 -0.78513872908E+02  0.87454692532E+02  0.41800000000E+01 0.  1.
         -5    1    3    3    0  502  0.84612835876E+02 -0.45544181183E+02  0.30286627806E+02  0.10083826981E+03  0.41800000000E+01 0.  1.
        -11    1    1    2    0    0 -0.87485415164E+02 -0.88132896196E+00 -0.14450261749E+03  0.16892448333E+03  0.00000000000E+00 0. -1.
         11    1    1    2    0    0 -0.35248589286E+02  0.50058568561E+02 -0.29924805237E+02  0.68145559661E+02  0.00000000000E+00 0.  1.
</event>
<event>
 7    1  0.2394257E-009  0.1770618E+03  0.7561462E-02  0.1170677E+00
          2   -1    0    0  501    0  0.00000000000E+00  0.00000000000E+00  0.10309054948E+03  0.10309054948E+03  0.00000000000E+00 0. -1.
         -2   -1    0    0    0  501 -0.00000000000E+00 -0.00000000000E+00 -0.37200853474E+03  0.37200853474E+03  0.00000000000E+00 0.  1.
         25    2    1    2    0    0 -0.42885931885E+02 -0.15340843945E+03 -0.10150392173E+03  0.22654965604E+03  0.12509335745E+03 0.  0.
          5    1    3    3  502    0  0.11125718210E+02 -0.13251357240E+03 -0.33632149527E+02  0.13723054456E+03  0.41800000000E+01 0.  1.
         -5    1    3    3    0  502 -0.54011650095E+02 -0.20894867044E+02 -0.67871772204E+02  0.89319111487E+02  0.41800000000E+01 0.  1.
        -11    1    1    2    0    0  0.13750018497E+02  0.10924268203E+03 -0.16128651477E+03  0.19528534618E+03  0.00000000000E+00 0.  1.
         11    1    1    2    0    0  0.29135913388E+02  0.44165757417E+02 -0.61275487597E+01  0.53264081997E+02  0.00000000000E+00 0. -1.
</event>
<event>
 7    1  0.2394257E-009  0.3307381E+03  0.7561462E-02  0.1070811E+00
         -1   -1    0    0    0  501 -0.00000000000E+00  0.00000000000E+00  0.29636887148E+03  0.29636887148E+03  0.00000000000E+00 0.  1.
          1   -1    0    0  501    0  0.00000000000E+00 -0.00000000000E+00 -0.38631153795E+03  0.38631153795E+03  0.00000000000E+00 0. -1.
         25    2    1    2    0    0 -0.21945540891E+03 -0.18900763499E+03 -0.39449563050E+02  0.31794405623E+03  0.12509033648E+03 0.  0.
          5    1    3    3  502    0 -0.13941231992E+03 -0.17561022069E+03  0.69489839427E+01  0.22436689893E+03  0.41800000000E+01 0.  1.
         -5    1    3    3    0  502 -0.80043088998E+02 -0.13397414298E+02 -0.46398546992E+02  0.93577157304E+02  0.41800000000E+01 0.  1.
        -11    1    1    2    0    0  0.65882400360E+02  0.19133728366E+03 -0.59363575740E+02  0.21088973640E+03  0.00000000000E+00 0.  1.
         11    1    1    2    0    0  0.15357300856E+03 -0.23296486703E+01  0.88704723224E+01  0.15384661679E+03  0.00000000000E+00 0. -1.
</event>
<event>
 7    1  0.2394257E-009  0.1366738E+03  0.7561462E-02  0.1217876E+00
          3   -1    0    0  501    0  0.00000000000E+00  0.00000000000E+00  0.26169213239E+03  0.26169213239E+03  0.00000000000E+00 0. -1.
         -3   -1    0    0    0  501 -0.00000000000E+00 -0.00000000000E+00 -0.90779873241E+02  0.90779873241E+02  0.00000000000E+00 0.  1.
         25    2    1    2    0    0 -0.15427882181E+02  0.91329212669E+02  0.26112610985E+02  0.15782258406E+03  0.12508818869E+03 0.  0.
          5    1    3    3  502    0  0.50390129933E+02  0.55564891841E+02  0.33849809602E+02  0.82400876270E+02  0.41800000000E+01 0. -1.
         -5    1    3    3    0  502 -0.65818012114E+02  0.35764320828E+02 -0.77371986166E+01  0.75421707786E+02  0.41800000000E+01 0. -1.
        -11    1    1    2    0    0  0.48921643835E+02 -0.59017161322E+02  0.57879034418E+02  0.96053814037E+02  0.00000000000E+00 0.  1.
         11    1    1    2    0    0 -0.33493761654E+02 -0.32312051347E+02  0.86920613748E+02  0.98595607541E+02  0.00000000000E+00 0. -1.
</event>
<event>
 7    1  0.2394257E-009  0.1101665E+03  0.7561462E-02  0.1260262E+00
          2   -1    0    0  501    0  0.00000000000E+00  0.00000000000E+00  0.21734256875E+03  0.21734256875E+03  0.00000000000E+00 0. -1.
         -2   -1    0    0    0  501 -0.00000000000E+00 -0.00000000000E+00 -0.13595692147E+03  0.13595692147E+03  0.00000000000E+00 0.  1.
         25    2    1    2    0    0 -0.10300986334E+03 -0.16913665751E+02 -0.41147053075E+02  0.16804296386E+03  0.12509298019E+03 0.  0.
          5    1    3    3  502    0 -0.79563705969E+02 -0.32848202507E+02 -0.81458474229E+02  0.11858475087E+03  0.41800000000E+01 0.  1.
         -5    1    3    3    0  502 -0.23446157367E+02  0.15934536756E+02  0.40311421154E+02  0.49458212992E+02  0.41800000000E+01 0.  1.
        -11    1    1    2    0    0  0.54672240359E+02  0.16681910936E+02  0.12437710010E+03  0.13688317299E+03  0.00000000000E+00 0. -1.
         11    1    1    2    0    0  0.48337622977E+02  0.23175481466E+00 -0.18443997412E+01  0.48373353365E+02  0.00000000000E+00 0.  1.
</event>
<event>
 7    1  0.2394257E-009  0.7112735E+02  0.7561462E-02  0.1356301E+00
          2   -1    0    0  501    0  0.00000000000E+00  0.00000000000E+00  0.75020175460E+03  0.75020175460E+03  0.00000000000E+00 0. -1.
         -2   -1    0    0    0  501 -0.00000000000E+00 -0.00000000000E+00 -0.23103903520E+02  0.23103903520E+02  0.00000000000E+00 0.  1.
         25    2    1    2    0    0 -0.41606378640E+02  0.23474867836E+02  0.56894198303E+03  0.58448581463E+03  0.12508607953E+03 0.  0.
          5    1    3    3  502    0  0.16151632878E+02 -0.13619274340E+02  0.14891889290E+02  0.26183976871E+02  0.41800000000E+01 0. -1.
         -5    1    3    3    0  502 -0.57758011518E+02  0.37094142176E+02  0.55405009374E+03  0.55830183776E+03  0.41800000000E+01 0. -1.
        -11    1    1    2    0    0  0.14498442323E+02  0.21351089129E+01 -0.92371743705E+01  0.17323074502E+02  0.00000000000E+00 0.  1.
         11    1    1    2    0    0  0.27107936318E+02 -0.25609976749E+02  0.16739304242E+03  0.17149676899E+03  0.00000000000E+00 0. -1.
</event>
<event>
 7    1  0.2394257E-009  0.1173231E+03  0.7561462E-02  0.1247580E+00
         -2   -1    0    0    0  501 -0.00000000000E+00  0.00000000000E+00  0.12102970914E+02  0.12102970914E+02  0.00000000000E+00 0.  1.
          2   -1    0    0  501    0  0.00000000000E+00 -0.00000000000E+00 -0.12232767168E+04  0.12232767168E+04  0.00000000000E+00 0. -1.
         25    2    1    2    0    0 -0.29365972763E+02  0.54741798504E+02 -0.78678647947E+03  0.79908485157E+03  0.12507841889E+03 0.  0.
          5    1    3    3  502    0  0.47100027875E+02  0.31780097126E+02 -0.40754493699E+03  0.41150787996E+03  0.41800000000E+01 0. -1.
         -5    1    3    3    0  502 -0.76466000637E+02  0.22961701378E+02 -0.37924154248E+03  0.38757697161E+03  0.41800000000E+01 0. -1.
        -11    1    1    2    0    0 -0.19813595225E+02 -0.42729736243E+02 -0.26197305587E+03  0.26617342263E+03  0.00000000000E+00 0.  1.
         11    1    1    2    0    0  0.49179567988E+02 -0.12012062261E+02 -0.16241421056E+03  0.17012141353E+03  0.00000000000E+00 0. -1.
</event>
<event>
 7    1  0.2394257E-009  0.2313436E+03  0.7561462E-02  0.1125698E+00
          2   -1    0    0  501    0  0.00000000000E+00  0.00000000000E+00  0.18574167880E+04  0.18574167880E+04  0.00000000000E+00 0. -1.
         -2   -1    0    0    0  501 -0.00000000000E+00 -0.00000000000E+00 -0.34743989781E+02  0.34743989781E+02  0.00000000000E+00 0.  1.
         25    2    1    2    0    0 -0.88449741859E+02  0.19944400437E+03  0.11900505488E+04  0.12163344364E+04  0.12509150551E+03 0.  0.
          5    1    3    3  502    0 -0.21413331380E+02 -0.80498555042E+01  0.44522895334E+02  0.50230384663E+02  0.41800000000E+01 0.  1.
         -5    1    3    3    0  502 -0.67036410479E+02  0.20749385987E+03  0.11455276535E+04  0.11661040518E+04  0.41800000000E+01 0.  1.
        -11    1    1    2    0    0  0.82792866208E+02 -0.14799950454E+03  0.56942802586E+03  0.59414374412E+03  0.00000000000E+00 0. -1.
         11    1    1    2    0    0  0.56568756509E+01 -0.51444499830E+02  0.63194223554E+02  0.81682597262E+02  0.00000000000E+00 0.  1.
</event>
<event>
 7    1  0.2394257E-009  0.1037779E+03  0.7561462E-02  0.1272546E+00
         -2   -1    0    0    0  501 -0.00000000000E+00  0.00000000000E+00  0.18939657081E+02  0.18939657081E+02  0.00000000000E+00 0.  1.
          2   -1    0    0  501    0  0.00000000000E+00 -0.00000000000E+00 -0.68332961522E+03  0.68332961522E+03  0.00000000000E+00 0. -1.
         25    2    1    2    0    0  0.74512333773E+01  0.32256962233E+02 -0.39342653702E+03  0.41416071725E+03  0.12509447303E+03 0.  0.
          5    1    3    3  502    0  0.45878161540E+02  0.61975764562E+02 -0.28498494909E+03  0.29526207800E+03  0.41800000000E+01 0. -1.
         -5    1    3    3    0  502 -0.38426928163E+02 -0.29718802329E+02 -0.10844158794E+03  0.11889863924E+03  0.41800000000E+01 0. -1.
        -11    1    1    2    0    0  0.33322509988E+02 -0.20570787756E+02 -0.52118393809E+02  0.65191057316E+02  0.00000000000E+00 0.  1.
         11    1    1    2    0    0 -0.40773743365E+02 -0.11686174477E+02 -0.21884502730E+03  0.22291749774E+03  0.00000000000E+00 0. -1.
</event>
<event>
 7    1  0.2394257E-009  0.1252343E+03  0.7561462E-02  0.1234704E+00
          1   -1    0    0  501    0  0.00000000000E+00  0.00000000000E+00  0.82596207300E+02  0.82596207300E+02  0.00000000000E+00 0. -1.
         -1   -1    0    0    0  501 -0.00000000000E+00 -0.00000000000E+00 -0.20342594060E+03  0.20342594060E+03  0.00000000000E+00 0.  1.
         25    2    1    2    0    0  0.31700488473E+01  0.70747608389E+02 -0.71865033643E+02  0.16070938336E+03  0.12509056535E+03 0.  0.
          5    1    3    3  502    0  0.30954218350E+02  0.93803543546E+02 -0.75191889440E+02  0.12421175892E+03  0.41800000000E+01 0.  1.
         -5    1    3    3    0  502 -0.27784169503E+02 -0.23055935156E+02  0.33268557969E+01  0.36497624449E+02  0.41800000000E+01 0.  1.
        -11    1    1    2    0    0 -0.46460395704E+02 -0.46051574905E+02 -0.25268861840E+02  0.70127250758E+02  0.00000000000E+00 0.  1.
         11    1    1    2    0    0  0.43290346856E+02 -0.24696033484E+02 -0.23695837814E+02  0.55185513774E+02  0.00000000000E+00 0. -1.
</event>
<event>
 7    1  0.2394257E-009  0.2079329E+03  0.7561462E-02  0.1143213E+00
         -2   -1    0    0    0  501 -0.00000000000E+00  0.00000000000E+00  0.74872982919E+02  0.74872982919E+02  0.00000000000E+00 0. -1.
          2   -1    0    0  501    0  0.00000000000E+00 -0.00000000000E+00 -0.65173030998E+03  0.65173030998E+03  0.00000000000E+00 0.  1.
         25    2    1    2    0    0  0.70339798291E+02 -0.17772062266E+03 -0.32317744243E+03  0.39575891990E+03  0.12509658846E+03 0.  0.
          5    1    3    3  502    0  0.26144763508E+02 -0.73371595103E+01 -0.13614132654E+03  0.13888598116E+03  0.41800000000E+01 0. -1.
         -5    1    3    3    0  502  0.44195034783E+02 -0.17038346315E+03 -0.18703611588E+03  0.25687293875E+03  0.41800000000E+01 0. -1.
        -11    1    1    2    0    0  0.22807407260E+02  0.30036781679E+02 -0.42134065766E+02  0.56547905156E+02  0.00000000000E+00 0.  1.
         11    1    1    2    0    0 -0.93147205550E+02  0.14768384098E+03 -0.21154581886E+03  0.27429646784E+03  0.00000000000E+00 0. -1.
</event>
<event>
 7    1  0.2394257E-009  0.1559698E+03  0.7561462E-02  0.1193323E+00
         -1   -1    0    0    0  501 -0.00000000000E+00  0.00000000000E+00  0.57553629496E+02  0.57553629496E+02  0.00000000000E+00 0.  1.
          1   -1    0    0  501    0  0.00000000000E+00 -0.00000000000E+00 -0.52704869293E+03  0.52704869293E+03  0.00000000000E+00 0. -1.
         25    2    1    2    0    0 -0.90722368098E+02  0.85727207873E+02 -0.32849423183E+03  0.37300678243E+03  0.12508356068E+03 0.  0.
          5    1    3    3  502    0 -0.11556836233E+02  0.75306397908E+02 -0.24831059204E+03  0.25976958357E+03  0.41800000000E+01 0.  1.
         -5    1    3    3    0  502 -0.79165531865E+02  0.10420809966E+02 -0.80183639786E+02  0.11323719886E+03  0.41800000000E+01 0.  1.
        -11    1    1    2    0    0  0.35289387710E+02 -0.93281787656E+02 -0.73314915485E+02  0.12378170150E+03  0.00000000000E+00 0.  1.
         11    1    1    2    0    0  0.55432980388E+02  0.75545797824E+01 -0.67685916116E+02  0.87813838493E+02  0.00000000000E+00 0. -1.
</event>
<event>
 7    1  0.2394257E-009  0.1144418E+03  0.7561462E-02  0.1252559E+00
          4   -1    0    0  501    0  0.00000000000E+00  0.00000000000E+00  0.30381651038E+02  0.30381651038E+02  0.00000000000E+00 0. -1.
         -4   -1    0    0    0  501 -0.00000000000E+00 -0.00000000000E+00 -0.53562803569E+03  0.53562803569E+03  0.00000000000E+00 0.  1.
         25    2    1    2    0    0  0.31221089379E+02 -0.15738022610E+02 -0.40326849102E+03  0.42366935495E+03  0.12509118553E+03 0.  0.
          5    1    3    3  502    0  0.75614938966E+02 -0.32283707205E+02 -0.25566563682E+03  0.26859308813E+03  0.41800000000E+01 0.  1.
         -5    1    3    3    0  502 -0.44393849587E+02  0.16545684596E+02 -0.14760285420E+03  0.15507626681E+03  0.41800000000E+01 0.  1.
        -11    1    1    2    0    0  0.31797206107E+02  0.16817300762E+02 -0.42509199275E+02  0.55685868442E+02  0.00000000000E+00 0.  1.
         11    1    1    2    0    0 -0.63018295487E+02 -0.10792781521E+01 -0.59468694356E+02  0.86654463335E+02  0.00000000000E+00 0. -1.
</event>
<event>
 7    1  0.2394257E-009  0.7839573E+02  0.7561462E-02  0.1333667E+00
          1   -1    0    0  501    0  0.00000000000E+00  0.00000000000E+00  0.49037998842E+03  0.49037998842E+03  0.00000000000E+00 0. -1.
         -1   -1    0    0    0  501 -0.00000000000E+00 -0.00000000000E+00 -0.27996477032E+02  0.27996477032E+02  0.00000000000E+00 0.  1.
         25    2    1    2    0    0 -0.16328754750E+02 -0.16825580726E+01  0.35479475788E+03  0.37655641416E+03  0.12508378629E+03 0.  0.
          5    1    3    3  502    0 -0.60624354090E+02  0.57303857044E+01  0.95303486093E+02  0.11317409814E+03  0.41800000000E+01 0. -1.
         -5    1    3    3    0  502  0.44295599340E+02 -0.74129437770E+01  0.25949127179E+03  0.26338231602E+03  0.41800000000E+01 0. -1.
        -11    1    1    2    0    0 -0.63488929229E+01 -0.18952188097E+02  0.10929934101E+03  0.11111183475E+03  0.00000000000E+00 0. -1.
         11    1    1    2    0    0  0.22677647673E+02  0.20634746170E+02 -0.17105875093E+01  0.30708216541E+02  0.00000000000E+00 0.  1.
</event>
<event>
 7    1  0.2394257E-009  0.7154152E+02  0.7561462E-02  0.1354928E+00
         -2   -1    0    0    0  501 -0.00000000000E+00  0.00000000000E+00  0.73842230615E+02  0.73842230615E+02  0.00000000000E+00 0.  1.
          2   -1    0    0  501    0  0.00000000000E+00 -0.00000000000E+00 -0.21798740554E+03  0.21798740554E+03  0.00000000000E+00 0. -1.
         25    2    1    2    0    0 -0.22902304342E+02  0.30051087469E+02 -0.13995342611E+03  0.19148224006E+03  0.12510357060E+03 0.  0.
          5    1    3    3  502    0 -0.30523349951E+02  0.19393939634E+02  0.12438821325E+02  0.38470722150E+02  0.41800000000E+01 0.  1.
         -5    1    3    3    0  502  0.76210456091E+01  0.10657147835E+02 -0.15239224743E+03  0.15301151791E+03  0.41800000000E+01 0.  1.
        -11    1    1    2    0    0  0.12100295052E+02  0.29771393194E+02  0.16509768451E+02  0.36129287944E+02  0.00000000000E+00 0.  1.
         11    1    1    2    0    0  0.10802009291E+02 -0.59822480663E+02 -0.20701517273E+02  0.64218108153E+02  0.00000000000E+00 0. -1.
</event>
<event>
 7    1  0.2935682E-009  0.1173499E+03  0.7561462E-02  0.1247534E+00
          1   -1    0    0  501    0  0.00000000000E+00  0.00000000000E+00  0.54643080647E+03  0.54643080647E+03  0.00000000000E+00 0. -1.
         -1   -1    0    0    0  501 -0.00000000000E+00 -0.00000000000E+00 -0.60390105683E+02  0.60390105683E+02  0.00000000000E+00 0.  1.
         25    2    1    2    0    0  0.14961292833E+02 -0.10190357013E+03  0.85228748937E+02  0.18308792885E+03  0.12509625157E+03 0.  0.
          5    1    3    3  502    0 -0.25510181569E+01 -0.73018392886E+01  0.86335325280E+02  0.86781826104E+02  0.41800000000E+01 0.  1.
         -5    1    3    3    0  502  0.17512310989E+02 -0.94601730845E+02 -0.11065763435E+01  0.96306102746E+02  0.41800000000E+01 0.  1.
        -11    1    1    2    0    0 -0.41142319170E+02  0.93434160578E+02  0.36224231753E+03  0.37635372909E+03  0.00000000000E+00 0. -1.
         11    1    1    2    0    0  0.26181026338E+02  0.84694095550E+01  0.38569634323E+02  0.47379254217E+02  0.00000000000E+00 0.  1.
</event>
<event>
 7    1  0.2394257E-009  0.1095635E+03  0.7561462E-02  0.1261380E+00
          1   -1    0    0  501    0  0.00000000000E+00  0.00000000000E+00  0.47801809260E+02  0.47801809260E+02  0.00000000000E+00 0. -1.
         -1   -1    0    0    0  501 -0.00000000000E+00 -0.00000000000E+00 -0.59904331869E+03  0.59904331869E+03  0.00000000000E+00 0.  1.
         25    2    1    2    0    0  0.41461130859E+02  0.40024113112E+02 -0.51527265716E+03  0.53336061110E+03  0.12508667098E+03 0.  0.
          5    1    3    3  502    0  0.68986386036E+02  0.54550212071E+02 -0.47053486035E+03  0.47870175924E+03  0.41800000000E+01 0.  1.
         -5    1    3    3    0  502 -0.27525255177E+02 -0.14526098959E+02 -0.44737796808E+02  0.54658851861E+02  0.41800000000E+01 0.  1.
        -11    1    1    2    0    0 -0.49245481592E+02 -0.60361180144E+02 -0.44938431225E+02  0.89933598430E+02  0.00000000000E+00 0.  1.
         11    1    1    2    0    0  0.77843507333E+01  0.20337067032E+02  0.89695789524E+01  0.23550918419E+02  0.00000000000E+00 0. -1.
</event>
<event>
 7    1  0.2394257E-009  0.1567224E+03  0.7561462E-02  0.1192448E+00
          1   -1    0    0  501    0  0.00000000000E+00  0.00000000000E+00  0.13815021733E+04  0.13815021733E+04  0.00000000000E+00 0. -1.
         -1   -1    0    0    0  501 -0.00000000000E+00 -0.00000000000E+00 -0.20317196126E+02  0.20317196126E+02  0.00000000000E+00 0.  1.
         25    2    1    2    0    0 -0.11424697325E+03 -0.45874080303E+02  0.86230599979E+03  0.87998586142E+03  0.12508667747E+03 0.  0.
          5    1    3    3  502    0 -0.92284883575E+02  0.27687548374E+02  0.40979951042E+03  0.42099431256E+03  0.41800000000E+01 0.  1.
         -5    1    3    3    0  502 -0.21962089673E+02 -0.73561628678E+02  0.45250648937E+03  0.45899154886E+03  0.41800000000E+01 0.  1.
        -11    1    1    2    0    0  0.57920287596E+02 -0.12229547818E+02  0.32098573789E+03  0.32639878290E+03  0.00000000000E+00 0. -1.
         11    1    1    2    0    0  0.56326685651E+02  0.58103628122E+02  0.17789323949E+03  0.19543472510E+03  0.00000000000E+00 0.  1.
</event>
<event>
 7    1  0.2394257E-009  0.1061731E+03  0.7561462E-02  0.1267825E+00
          2   -1    0    0  501    0  0.00000000000E+00  0.00000000000E+00  0.42673197838E+03  0.42673197838E+03  0.00000000000E+00 0. -1.
         -2   -1    0    0    0  501 -0.00000000000E+00 -0.00000000000E+00 -0.30855871227E+02  0.30855871227E+02  0.00000000000E+00 0.  1.
         25    2    1    2    0    0 -0.33095802340E+01  0.37315095188E+01  0.15354805917E+03  0.19812570295E+03  0.12510759454E+03 0.  0.
          5    1    3    3  502    0 -0.55411822629E+02 -0.29819537055E+02  0.75145440670E+02  0.98101908904E+02  0.41800000000E+01 0.  1.
         -5    1    3    3    0  502  0.52102242395E+02  0.33551046574E+02  0.78402618497E+02  0.10002379405E+03  0.41800000000E+01 0.  1.
        -11    1    1    2    0    0 -0.27114365372E+02 -0.34513582188E+02  0.77692535421E+02  0.89232876370E+02  0.00000000000E+00 0.  1.
         11    1    1    2    0    0  0.30423945606E+02  0.30782072669E+02  0.16463551256E+03  0.17022927028E+03  0.00000000000E+00 0. -1.
</event>
<event>
 7    1  0.2394257E-009  0.9618639E+02  0.7561462E-02  0.1288526E+00
          1   -1    0    0  501    0  0.00000000000E+00  0.00000000000E+00  0.97879746807E+02  0.97879746807E+02  0.00000000000E+00 0. -1.
         -1   -1    0    0    0  501 -0.00000000000E+00 -0.00000000000E+00 -0.11486991760E+03  0.11486991760E+03  0.00000000000E+00 0.  1.
         25    2    1    2    0    0  0.27091575829E+02  0.77789005494E+01 -0.58681973449E+01  0.12836168736E+03  0.12509125576E+03 0.  0.
          5    1    3    3  502    0  0.47415353680E+02  0.56663102698E+02  0.49404575168E+01  0.74167401817E+02  0.41800000000E+01 0. -1.
         -5    1    3    3    0  502 -0.20323777850E+02 -0.48884202148E+02 -0.10808654862E+02  0.54194285545E+02  0.41800000000E+01 0. -1.
        -11    1    1    2    0    0 -0.22958743315E+02  0.24002975532E+02  0.20769952439E+02  0.39174451539E+02  0.00000000000E+00 0. -1.
         11    1    1    2    0    0 -0.41328325137E+01 -0.31781876082E+02 -0.31891925885E+02  0.45213525504E+02  0.00000000000E+00 0.  1.
</event>
<event>
 7    1  0.2394257E-009  0.1168745E+03  0.7561462E-02  0.1248344E+00
          2   -1    0    0  501    0  0.00000000000E+00  0.00000000000E+00  0.51514152025E+02  0.51514152025E+02  0.00000000000E+00 0.  1.
         -2   -1    0    0    0  501 -0.00000000000E+00 -0.00000000000E+00 -0.27943986935E+03  0.27943986935E+03  0.00000000000E+00 0. -1.
         25    2    1    2    0    0  0.51724859221E+02 -0.51476005011E+01 -0.12878643908E+03  0.18691414909E+03  0.12509593673E+03 0.  0.
          5    1    3    3  502    0 -0.38671425032E+02 -0.21066899877E+01 -0.15583529733E+02  0.41955167210E+02  0.41800000000E+01 0.  1.
         -5    1    3    3    0  502  0.90396284252E+02 -0.30409105133E+01 -0.11320290934E+03  0.14495898188E+03  0.41800000000E+01 0.  1.
        -11    1    1    2    0    0  0.21945681791E+02  0.19310219927E+02 -0.32304117170E+02  0.43566656161E+02  0.00000000000E+00 0. -1.
         11    1    1    2    0    0 -0.73670541012E+02 -0.14162619426E+02 -0.66835161078E+02  0.10047321612E+03  0.00000000000E+00 0.  1.
</event>
<event>
 7    1  0.2394257E-009  0.8150609E+02  0.7561462E-02  0.1324831E+00
         -4   -1    0    0    0  501 -0.00000000000E+00  0.00000000000E+00  0.40752491485E+03  0.40752491485E+03  0.00000000000E+00 0.  1.
          4   -1    0    0  501    0  0.00000000000E+00 -0.00000000000E+00 -0.36777860969E+02  0.36777860969E+02  0.00000000000E+00 0. -1.
         25    2    1    2    0    0 -0.15447119682E+02 -0.51655932880E+02  0.24969545983E+03  0.28443196422E+03  0.12508705248E+03 0.  0.
          5    1    3    3  502    0  0.17354039965E+02 -0.63271765953E+02  0.23886890941E+03  0.24775049415E+03  0.41800000000E+01 0. -1.
         -5    1    3    3    0  502 -0.32801159647E+02  0.11615833073E+02  0.10826550427E+02  0.36681470067E+02  0.41800000000E+01 0. -1.
        -11    1    1    2    0    0 -0.80655270913E+01  0.26890466833E+02  0.12251480621E+03  0.12569020516E+03  0.00000000000E+00 0.  1.
         11    1    1    2    0    0  0.23512646773E+02  0.24765466047E+02 -0.14632121591E+01  0.34180606440E+02  0.00000000000E+00 0. -1.
</event>
<event>
 7    1  0.2394257E-009  0.1588597E+03  0.7561462E-02  0.1189990E+00
          2   -1    0    0  501    0  0.00000000000E+00  0.00000000000E+00  0.10161892694E+04  0.10161892694E+04  0.00000000000E+00 0. -1.
         -2   -1    0    0    0  501 -0.00000000000E+00 -0.00000000000E+00 -0.27484098344E+02  0.27484098344E+02  0.00000000000E+00 0.  1.
         25    2    1    2    0    0 -0.81424273402E+02 -0.90526149158E+02  0.42196988215E+03  0.45665223159E+03  0.12509109957E+03 0.  0.
          5    1    3    3  502    0 -0.99825329794E+02 -0.28936713852E+02  0.19875729761E+03  0.22433092883E+03  0.41800000000E+01 0.  1.
         -5    1    3    3    0  502  0.18401056392E+02 -0.61589435305E+02  0.22321258454E+03  0.23232130276E+03  0.41800000000E+01 0.  1.
        -11    1    1    2    0    0  0.39394034496E+02 -0.97279327511E+01  0.21768450117E+03  0.22143410911E+03  0.00000000000E+00 0.  1.
         11    1    1    2    0    0  0.42030238906E+02  0.10025408191E+03  0.34905078771E+03  0.36558702702E+03  0.00000000000E+00 0. -1.
</event>
<event>
 7    1  0.2394257E-009  0.1540077E+03  0.7561462E-02  0.1195633E+00
          1   -1    0    0  501    0  0.00000000000E+00  0.00000000000E+00  0.89267065086E+02  0.89267065086E+02  0.00000000000E+00 0. -1.
         -1   -1    0    0    0  501 -0.00000000000E+00 -0.00000000000E+00 -0.32110854702E+03  0.32110854702E+03  0.00000000000E+00 0.  1.
         25    2    1    2    0    0  0.18670108282E+02 -0.11622150639E+03 -0.58374756849E+02  0.18141246849E+03  0.12508740942E+03 0.  0.
          5    1    3    3  502    0 -0.33557261222E+01 -0.13147326223E+03 -0.18043660203E+02  0.13281387598E+03  0.41800000000E+01 0.  1.
         -5    1    3    3    0  502  0.22025834404E+02  0.15251755838E+02 -0.40331096646E+02  0.48598592511E+02  0.41800000000E+01 0.  1.
        -11    1    1    2    0    0  0.24915716870E+02  0.99601895684E+02 -0.11486739503E+03  0.15406443136E+03  0.00000000000E+00 0.  1.
         11    1    1    2    0    0 -0.43585825152E+02  0.16619610705E+02 -0.58599330056E+02  0.74898712254E+02  0.00000000000E+00 0. -1.
</event>
<event>
 7    1  0.2394257E-009  0.1224489E+03  0.7561462E-02  0.1239111E+00
         -2   -1    0    0    0  501 -0.00000000000E+00  0.00000000000E+00  0.13119157664E+03  0.13119157664E+03  0.00000000000E+00 0.  1.
          2   -1    0    0  501    0  0.00000000000E+00 -0.00000000000E+00 -0.16550841296E+03  0.16550841296E+03  0.00000000000E+00 0. -1.
         25    2    1    2    0    0  0.47327125780E+02 -0.78399271648E+02  0.20030378089E+02  0.15630927838E+03  0.12508026156E+03 0.  0.
          5    1    3    3  502    0 -0.29345677383E+02 -0.33519818983E+01 -0.25921337267E+02  0.39519522890E+02  0.41800000000E+01 0.  1.
         -5    1    3    3    0  502  0.76672803163E+02 -0.75047289749E+02  0.45951715356E+02  0.11678975549E+03  0.41800000000E+01 0.  1.
        -11    1    1    2    0    0 -0.41895124907E+02  0.87548800404E+02 -0.13272270437E+02  0.97959926019E+02  0.00000000000E+00 0.  1.
         11    1    1    2    0    0 -0.54320008727E+01 -0.91495287559E+01 -0.41074943973E+02  0.42430785196E+02  0.00000000000E+00 0. -1.
</event>
<event>
 7    1  0.2394257E-009  0.2302974E+03  0.7561462E-02  0.1126431E+00
          2   -1    0    0  501    0  0.00000000000E+00  0.00000000000E+00  0.90079329053E+03  0.90079329053E+03  0.00000000000E+00 0. -1.
         -2   -1    0    0    0  501 -0.00000000000E+00 -0.00000000000E+00 -0.80106757601E+02  0.80106757601E+02  0.00000000000E+00 0.  1.
         25    2    1    2    0    0  0.16765035242E+02  0.22519540989E+03  0.24692263755E+03  0.35722838040E+03  0.12508911938E+03 0.  0.
          5    1    3    3  502    0 -0.19664343942E+02  0.10983401912E+03  0.42142853542E+02  0.11934693412E+03  0.41800000000E+01 0. -1.
         -5    1    3    3    0  502  0.36429379185E+02  0.11536139077E+03  0.20477978400E+03  0.23788144628E+03  0.41800000000E+01 0. -1.
        -11    1    1    2    0    0 -0.13263057346E+00 -0.17515473313E+03  0.51850111486E+03  0.54728658328E+03  0.00000000000E+00 0. -1.
         11    1    1    2    0    0 -0.16632404669E+02 -0.50040676760E+02  0.55262780522E+02  0.76385084451E+02  0.00000000000E+00 0.  1.
</event>
<event>
 7    1  0.2394257E-009  0.1037754E+03  0.7561462E-02  0.1272551E+00
         -4   -1    0    0    0  501 -0.00000000000E+00  0.00000000000E+00  0.22907315599E+03  0.22907315599E+03  0.00000000000E+00 0.  1.
          4   -1    0    0  501    0  0.00000000000E+00 -0.00000000000E+00 -0.76209976352E+02  0.76209976352E+02  0.00000000000E+00 0. -1.
         25    2    1    2    0    0 -0.10254803900E+02 -0.54231535132E+02  0.14615971021E+03  0.20014168256E+03  0.12509121394E+03 0.  0.
          5    1    3    3  502    0  0.41124279703E+02 -0.25910443339E+02  0.72863936921E+01  0.49326680287E+02  0.41800000000E+01 0. -1.
         -5    1    3    3    0  502 -0.51379083603E+02 -0.28321091793E+02  0.13887331651E+03  0.15081500228E+03  0.41800000000E+01 0. -1.
        -11    1    1    2    0    0  0.67680386109E+01  0.76807601526E+02  0.18698327013E+02  0.79340036753E+02  0.00000000000E+00 0.  1.
         11    1    1    2    0    0  0.34867652892E+01 -0.22576066395E+02 -0.11994857577E+02  0.25801413030E+02  0.00000000000E+00 0. -1.
</event>
<event>
 7    1  0.2394257E-009  0.1570256E+03  0.7561462E-02  0.1192096E+00
          2   -1    0    0  501    0  0.00000000000E+00  0.00000000000E+00  0.76568047946E+03  0.76568047946E+03  0.00000000000E+00 0. -1.
         -2   -1    0    0    0  501 -0.00000000000E+00 -0.00000000000E+00 -0.75341350450E+02  0.75341350450E+02  0.00000000000E+00 0.  1.
         25    2    1    2    0    0  0.12145522058E+03  0.13075348762E+02  0.48817523319E+02  0.18153367499E+03  0.12509592008E+03 0.  0.
          5    1    3    3  502    0  0.90303066498E+02  0.57209114256E+02 -0.23535522420E+01  0.10700718752E+03  0.41800000000E+01 0. -1.
         -5    1    3    3    0  502  0.31152154082E+02 -0.44133765494E+02  0.51171075561E+02  0.74526487471E+02  0.41800000000E+01 0. -1.
        -11    1    1    2    0    0 -0.31600010529E+02  0.38085894924E+02  0.20761399606E+03  0.21343070870E+03  0.00000000000E+00 0.  1.
         11    1    1    2    0    0 -0.89855210051E+02 -0.51161243686E+02  0.43390760963E+03  0.44605744622E+03  0.00000000000E+00 0. -1.
</event>
<event>
 7    1  0.2394257E-009  0.1277849E+03  0.7561462E-02  0.1230780E+00
          3   -1    0    0  501    0  0.00000000000E+00  0.00000000000E+00  0.33449172588E+02  0.33449172588E+02  0.00000000000E+00 0. -1.
         -3   -1    0    0    0  501 -0.00000000000E+00 -0.00000000000E+00 -0.10323941378E+04  0.10323941378E+04  0.00000000000E+00 0.  1.
         25    2    1    2    0    0 -0.81870014321E+01  0.11490695886E+03 -0.80340195922E+03  0.82120205979E+03  0.12508988260E+03 0.  0.
          5    1    3    3  502    0  0.29211225998E+02  0.55478190199E+02 -0.64289104548E+03  0.64595471518E+03  0.41800000000E+01 0. -1.
         -5    1    3    3    0  502 -0.37398227431E+02  0.59428768663E+02 -0.16051091375E+03  0.17524734461E+03  0.41800000000E+01 0. -1.
        -11    1    1    2    0    0  0.18382177322E+02 -0.20904653802E+02 -0.12121570958E+03  0.12437104664E+03  0.00000000000E+00 0.  1.
         11    1    1    2    0    0 -0.10195175890E+02 -0.94002305060E+02 -0.74327296400E+02  0.12027020395E+03  0.00000000000E+00 0. -1.
</event>
<event>
 7    1  0.2394257E-009  0.1789467E+03  0.7561462E-02  0.1168826E+00
          1   -1    0    0  501    0  0.00000000000E+00  0.00000000000E+00  0.28823347716E+03  0.28823347716E+03  0.00000000000E+00 0. -1.
         -1   -1    0    0    0  501 -0.00000000000E+00 -0.00000000000E+00 -0.12101956169E+03  0.12101956169E+03  0.00000000000E+00 0.  1.
         25    2    1    2    0    0 -0.90298334806E+02 -0.12081283073E+03  0.92855514330E+02  0.21683489212E+03  0.12508275085E+03 0.  0.
          5    1    3    3  502    0 -0.69131114881E+02 -0.13851782367E+03  0.10425183189E+03  0.18668748049E+03  0.41800000000E+01 0.  1.
         -5    1    3    3    0  502 -0.21167219924E+02  0.17704992932E+02 -0.11396317565E+02  0.30147411631E+02  0.41800000000E+01 0.  1.
        -11    1    1    2    0    0  0.99175900469E+02  0.64947593533E+02  0.64626564731E+02  0.13502089471E+03  0.00000000000E+00 0. -1.
         11    1    1    2    0    0 -0.88775656636E+01  0.55865237201E+02  0.97318364048E+01  0.57397252020E+02  0.00000000000E+00 0.  1.
</event>
<event>
 7    1  0.2394257E-009  0.7222544E+02  0.7561462E-02  0.1352685E+00
         -2   -1    0    0    0  501 -0.00000000000E+00  0.00000000000E+00  0.12904751929E+03  0.12904751929E+03  0.00000000000E+00 0.  1.
          2   -1    0    0  501    0  0.00000000000E+00 -0.00000000000E+00 -0.13202738484E+03  0.13202738484E+03  0.00000000000E+00 0. -1.
         25    2    1    2    0    0  0.70330598874E+02  0.85360713718E+01 -0.82474164273E+01  0.14399570489E+03  0.12508990965E+03 0.  0.
          5    1    3    3  502    0  0.21211573833E+02  0.76994068554E+00 -0.64951157504E+02  0.68459104100E+02  0.41800000000E+01 0. -1.
         -5    1    3    3    0  502  0.49119025041E+02  0.77661306863E+01  0.56703741077E+02  0.75536600790E+02  0.41800000000E+01 0. -1.
        -11    1    1    2    0    0 -0.45389899781E+02 -0.13762932091E+02  0.47901104905E+02  0.67410512184E+02  0.00000000000E+00 0.  1.
         11    1    1    2    0    0 -0.24940699093E+02  0.52268607194E+01 -0.42633554026E+02  0.49668687049E+02  0.00000000000E+00 0. -1.
</event>
<event>
 7    1  0.2394257E-009  0.1487493E+03  0.7561462E-02  0.1202018E+00
          2   -1    0    0  501    0  0.00000000000E+00  0.00000000000E+00  0.70703167192E+03  0.70703167192E+03  0.00000000000E+00 0. -1.
         -2   -1    0    0    0  501 -0.00000000000E+00 -0.00000000000E+00 -0.35823691649E+02  0.35823691649E+02  0.00000000000E+00 0.  1.
         25    2    1    2    0    0 -0.10450321724E+03  0.17838593019E+02  0.46636691680E+03  0.49435425993E+03  0.12509554513E+03 0.  0.
          5    1    3    3  502    0 -0.91504966372E+02  0.63989057330E+02  0.37206317195E+03  0.38847938768E+03  0.41800000000E+01 0. -1.
         -5    1    3    3    0  502 -0.12998250868E+02 -0.46150464311E+02  0.94303744849E+02  0.10587487225E+03  0.41800000000E+01 0. -1.
        -11    1    1    2    0    0 -0.12731276972E+02  0.11088221844E+02  0.45812962127E+02  0.48824804924E+02  0.00000000000E+00 0. -1.
         11    1    1    2    0    0  0.11723449421E+03 -0.28926814863E+02  0.15902810135E+03  0.19967629872E+03  0.00000000000E+00 0.  1.
</event>
<event>
 7    1  0.2394257E-009  0.1330827E+03  0.7561462E-02  0.1222952E+00
         -2   -1    0    0    0  501 -0.00000000000E+00  0.00000000000E+00  0.14816612608E+03  0.14816612608E+03  0.00000000000E+00 0.  1.
          2   -1    0    0  501    0  0.00000000000E+00 -0.00000000000E+00 -0.14947865669E+03  0.14947865669E+03  0.00000000000E+00 0. -1.
         25    2    1    2    0    0 -0.96143244438E+02 -0.21067812779E+02  0.23701296152E+02  0.16092441503E+03  0.12509012642E+03 0.  0.
          5    1    3    3  502    0 -0.22474334785E+02  0.38317877133E+02  0.45505447131E+02  0.63730475839E+02  0.41800000000E+01 0.  1.
         -5    1    3    3    0  502 -0.73668909653E+02 -0.59385689913E+02 -0.21804150979E+02  0.97193939192E+02  0.41800000000E+01 0.  1.
        -11    1    1    2    0    0  0.58316610282E+02  0.51871320397E+02 -0.37169063737E+02  0.86446516492E+02  0.00000000000E+00 0.  1.
         11    1    1    2    0    0  0.37826634156E+02 -0.30803507618E+02  0.12155236982E+02  0.50273851247E+02  0.00000000000E+00 0. -1.
</event>
<event>
 7    1  0.2394257E-009  0.1712121E+03  0.7561462E-02  0.1176590E+00
          2   -1    0    0  501    0  0.00000000000E+00  0.00000000000E+00  0.26536813129E+04  0.26536813129E+04  0.00000000000E+00 0. -1.
         -2   -1    0    0    0  501 -0.00000000000E+00 -0.00000000000E+00 -0.15011336670E+02  0.15011336670E+02  0.00000000000E+00 0.  1.
         25    2    1    2    0    0 -0.12223955369E+03 -0.49752314304E+02  0.20234244665E+04  0.20315791033E+04  0.12509708327E+03 0.  0.
          5    1    3    3  502    0 -0.12422174077E+03 -0.82109100773E+02  0.16939533698E+04  0.17004906459E+04  0.41800000000E+01 0. -1.
         -5    1    3    3    0  502  0.19821870784E+01  0.32356786469E+02  0.32947109674E+03  0.33108845749E+03  0.41800000000E+01 0. -1.
        -11    1    1    2    0    0  0.92286104898E+02  0.77069192467E+02  0.51771495185E+03  0.53149332729E+03  0.00000000000E+00 0. -1.
         11    1    1    2    0    0  0.29953448794E+02 -0.27316878163E+02  0.97530557835E+02  0.10562021889E+03  0.00000000000E+00 0.  1.
</event>
<event>
 7    1  0.2394257E-009  0.1361803E+03  0.7561462E-02  0.1218563E+00
         -1   -1    0    0    0  501 -0.00000000000E+00  0.00000000000E+00  0.84775802049E+02  0.84775802049E+02  0.00000000000E+00 0.  1.
          1   -1    0    0  501    0  0.00000000000E+00 -0.00000000000E+00 -0.28581598835E+03  0.28581598835E+03  0.00000000000E+00 0. -1.
         25    2    1    2    0    0 -0.10871273615E+03  0.20104343753E+02 -0.10139801886E+03  0.19531683926E+03  0.12507783909E+03 0.  0.
          5    1    3    3  502    0 -0.36283398370E+02  0.58897954798E+02 -0.63271683100E+01  0.69591375439E+02  0.41800000000E+01 0.  1.
         -5    1    3    3    0  502 -0.72429337776E+02 -0.38793611045E+02 -0.95070850550E+02  0.12572546382E+03  0.41800000000E+01 0.  1.
        -11    1    1    2    0    0  0.44968814671E+02 -0.32966709713E+02 -0.94906842474E+02  0.11007409773E+03  0.00000000000E+00 0.  1.
         11    1    1    2    0    0  0.63743921476E+02  0.12862365960E+02 -0.47353249664E+01  0.65200853412E+02  0.00000000000E+00 0. -1.
</event>
<event>
 7    1  0.2394257E-009  0.1051517E+03  0.7561462E-02  0.1269821E+00
          2   -1    0    0  501    0  0.00000000000E+00  0.00000000000E+00  0.11380699912E+03  0.11380699912E+03  0.00000000000E+00 0. -1.
         -2   -1    0    0    0  501 -0.00000000000E+00 -0.00000000000E+00 -0.12917362349E+03  0.12917362349E+03  0.00000000000E+00 0.  1.
         25    2    1    2    0    0 -0.38106665529E+02 -0.18079439138E+02  0.28990706574E+02  0.13515625381E+03  0.12509103804E+03 0.  0.
          5    1    3    3  502    0  0.36006090802E+02  0.31474394125E+01  0.43382624081E+02  0.56620397578E+02  0.41800000000E+01 0. -1.
         -5    1    3    3    0  502 -0.74112756331E+02 -0.21226878550E+02 -0.14391917508E+02  0.78535856228E+02  0.41800000000E+01 0. -1.
        -11    1    1    2    0    0 -0.82163766256E+01 -0.29312522764E+02 -0.52994360237E+01  0.30900110968E+02  0.00000000000E+00 0.  1.
         11    1    1    2    0    0  0.46323042155E+02  0.47391961902E+02 -0.39057894921E+02  0.76924257833E+02  0.00000000000E+00 0. -1.
</event>
<event>
 7    1  0.2394257E-009  0.1704888E+03  0.7561462E-02  0.1177339E+00
         -2   -1    0    0    0  501 -0.00000000000E+00  0.00000000000E+00  0.22419613473E+02  0.22419613473E+02  0.00000000000E+00 0. -1.
          2   -1    0    0  501    0  0.00000000000E+00 -0.00000000000E+00 -0.19427345871E+04  0.19427345871E+04  0.00000000000E+00 0.  1.
         25    2    1    2    0    0 -0.49509487287E+01  0.15730345119E+03 -0.13975895656E+04  0.14119747486E+04  0.12508880544E+03 0.  0.
          5    1    3    3  502    0 -0.26525744112E+02  0.66644948710E+02 -0.23725023869E+03  0.24789173533E+03  0.41800000000E+01 0.  1.
         -5    1    3    3    0  502  0.21574795384E+02  0.90658502483E+02 -0.11603393269E+04  0.11640830133E+04  0.41800000000E+01 0.  1.
        -11    1    1    2    0    0  0.41695269748E+02 -0.78204936983E+02 -0.32897390845E+03  0.34070271518E+03  0.00000000000E+00 0.  1.
         11    1    1    2    0    0 -0.36744321020E+02 -0.79098514209E+02 -0.19375149955E+03  0.21247673674E+03  0.00000000000E+00 0. -1.
</event>
<event>
 7    1  0.2394257E-009  0.9249451E+02  0.7561462E-02  0.1296921E+00
          2   -1    0    0  501    0  0.00000000000E+00  0.00000000000E+00  0.16411134204E+04  0.16411134204E+04  0.00000000000E+00 0. -1.
         -2   -1    0    0    0  501 -0.00000000000E+00 -0.00000000000E+00 -0.14294799987E+02  0.14294799987E+02  0.00000000000E+00 0.  1.
         25    2    1    2    0    0  0.49686832283E+02 -0.29008589231E+02  0.13790173567E+04  0.13858740071E+04  0.12509042314E+03 0.  0.
          5    1    3    3  502    0 -0.14156407915E+02 -0.18539615447E+02  0.10635479373E+04  0.10638119235E+04  0.41800000000E+01 0.  1.
         -5    1    3    3    0  502  0.63843240198E+02 -0.10468973784E+02  0.31546941941E+03  0.32206208364E+03  0.41800000000E+01 0.  1.
        -11    1    1    2    0    0 -0.65343465043E+02  0.40644813564E+02  0.13792817490E+03  0.15794287171E+03  0.00000000000E+00 0. -1.
         11    1    1    2    0    0  0.15656632760E+02 -0.11636224333E+02  0.10987308885E+03  0.11159134160E+03  0.00000000000E+00 0.  1.
</event>
<event>
 7    1  0.2394257E-009  0.1230317E+03  0.7561462E-02  0.1238178E+00
          1   -1    0    0  501    0  0.00000000000E+00  0.00000000000E+00  0.74836711043E+02  0.74836711043E+02  0.00000000000E+00 0. -1.
         -1   -1    0    0    0  501 -0.00000000000E+00 -0.00000000000E+00 -0.26524424568E+03  0.26524424568E+03  0.00000000000E+00 0.  1.
         25    2    1    2    0    0 -0.42943573605E+02  0.45135892754E+02 -0.25943056481E+02  0.14212782449E+03  0.12508348007E+03 0.  0.
          5    1    3    3  502    0 -0.85622186253E+01 -0.41588414883E+02  0.67282175582E+01  0.43193160938E+02  0.41800000000E+01 0. -1.
         -5    1    3    3    0  502 -0.34381354980E+02  0.86724307637E+02 -0.32671274039E+02  0.98934663555E+02  0.41800000000E+01 0. -1.
        -11    1    1    2    0    0 -0.18594136946E+02 -0.44766172466E+02 -0.67292153526E+02  0.82933624376E+02  0.00000000000E+00 0.  1.
         11    1    1    2    0    0  0.61537710551E+02 -0.36972028836E+00 -0.97172324626E+02  0.11501950785E+03  0.00000000000E+00 0. -1.
</event>
<event>
 7    1  0.2394257E-009  0.1424081E+03  0.7561462E-02  0.1210125E+00
         -2   -1    0    0    0  501 -0.00000000000E+00  0.00000000000E+00  0.22146852207E+03  0.22146852207E+03  0.00000000000E+00 0.  1.
          2   -1    0    0  501    0  0.00000000000E+00 -0.00000000000E+00 -0.10685314037E+03  0.10685314037E+03  0.00000000000E+00 0. -1.
         25    2    1    2    0    0 -0.80988543877E+02  0.73002091897E+02  0.55379400211E+02  0.17493347236E+03  0.12508553923E+03 0.  0.
          5    1    3    3  502    0 -0.10683308875E+03  0.69097202561E+02  0.69390896709E+02  0.14498379633E+03  0.41800000000E+01 0.  1.
         -5    1    3    3    0  502  0.25844544868E+02  0.39048893362E+01 -0.14011496498E+02  0.29949676030E+02  0.41800000000E+01 0.  1.
        -11    1    1    2    0    0  0.80838966929E+02 -0.27270778399E+02  0.65054410745E+02  0.10728797829E+03  0.00000000000E+00 0. -1.
         11    1    1    2    0    0  0.14957694790E+00 -0.45731313498E+02 -0.58184292643E+01  0.46100211785E+02  0.00000000000E+00 0.  1.
</event>
<event>
 7    1  0.4889067E-009  0.1614006E+03  0.7561462E-02  0.1187124E+00
         -1   -1    0    0    0  501 -0.00000000000E+00  0.00000000000E+00  0.25181484153E+02  0.25181484153E+02  0.00000000000E+00 0.  1.
          1   -1    0    0  501    0  0.00000000000E+00 -0.00000000000E+00 -0.11752670488E+04  0.11752670488E+04  0.00000000000E+00 0. -1.
         25    2    1    2    0    0  0.12562686458E+03 -0.21344452944E+01 -0.45918522482E+03  0.49222486542E+03  0.12509029734E+03 0.  0.
          5    1    3    3  502    0  0.15272024263E+02 -0.48694217492E+02 -0.84135130971E+02  0.98491391531E+02  0.41800000000E+01 0. -1.
         -5    1    3    3    0  502  0.11035484032E+03  0.46559772198E+02 -0.37505009385E+03  0.39373347389E+03  0.41800000000E+01 0. -1.
        -11    1    1    2    0    0 -0.86526985595E+02 -0.39076701431E+02 -0.35123212403E+03  0.36383775613E+03  0.00000000000E+00 0.  1.
         11    1    1    2    0    0 -0.39099878983E+02  0.41211146726E+02 -0.33966821584E+03  0.34438591144E+03  0.00000000000E+00 0. -1.
</event>
<event>
 7    1  0.2394257E-009  0.1071575E+03  0.7561462E-02  0.1265926E+00
         -2   -1    0    0    0  501 -0.00000000000E+00  0.00000000000E+00  0.19798951330E+02  0.19798951330E+02  0.00000000000E+00 0.  1.
          2   -1    0    0  501    0  0.00000000000E+00 -0.00000000000E+00 -0.13795018143E+04  0.13795018143E+04  0.00000000000E+00 0. -1.
         25    2    1    2    0    0 -0.24338445055E+02  0.40146289797E+02 -0.12132441244E+04  0.12205791052E+04  0.12509181489E+03 0.  0.
          5    1    3    3  502    0 -0.15133394187E+02  0.82688499122E+02 -0.61401007525E+03  0.61975176677E+03  0.41800000000E+01 0.  1.
         -5    1    3    3    0  502 -0.92050508676E+01 -0.42542209325E+02 -0.59923404917E+03  0.60082733844E+03  0.41800000000E+01 0.  1.
        -11    1    1    2    0    0  0.40788213827E+02  0.23473701689E+01 -0.22474549281E+02  0.46629324457E+02  0.00000000000E+00 0.  1.
         11    1    1    2    0    0 -0.16449768772E+02 -0.42493659966E+02 -0.12398418922E+03  0.13209233591E+03  0.00000000000E+00 0. -1.
</event>
<event>
 7    1  0.2394257E-009  0.8555011E+02  0.7561462E-02  0.1314000E+00
         -1   -1    0    0    0  501 -0.00000000000E+00  0.00000000000E+00  0.13070046390E+03  0.13070046390E+03  0.00000000000E+00 0.  1.
          1   -1    0    0  501    0  0.00000000000E+00 -0.00000000000E+00 -0.92620435352E+02  0.92620435352E+02  0.00000000000E+00 0. -1.
         25    2    1    2    0    0 -0.11793075783E+02  0.21377805029E+02  0.92638406909E+01  0.12778478772E+03  0.12508815310E+03 0.  0.
          5    1    3    3  502    0 -0.61361736336E+02  0.25407514800E+02 -0.20555095716E+02  0.69647604800E+02  0.41800000000E+01 0.  1.
         -5    1    3    3    0  502  0.49568660553E+02 -0.40297097706E+01  0.29818936407E+02  0.58137182924E+02  0.41800000000E+01 0.  1.
        -11    1    1    2    0    0 -0.43419418997E+01  0.14592096006E+02 -0.24731318017E+02  0.29041691000E+02  0.00000000000E+00 0. -1.
         11    1    1    2    0    0  0.16135017683E+02 -0.35969901035E+02  0.53547505870E+02  0.66494420525E+02  0.00000000000E+00 0.  1.
</event>
<event>
 7    1  0.2394257E-009  0.9790760E+02  0.7561462E-02  0.1284759E+00
          2   -1    0    0  501    0  0.00000000000E+00  0.00000000000E+00  0.59458642537E+03  0.59458642537E+03  0.00000000000E+00 0. -1.
         -2   -1    0    0    0  501 -0.00000000000E+00 -0.00000000000E+00 -0.37489336707E+02  0.37489336707E+02  0.00000000000E+00 0.  1.
         25    2    1    2    0    0 -0.44665771620E+02  0.70264578137E+02  0.43158775888E+03  0.45699824687E+03  0.12508901603E+03 0.  0.
          5    1    3    3  502    0 -0.34628832458E+02  0.55336382691E+02  0.43352221383E+03  0.43842930282E+03  0.41800000000E+01 0. -1.
         -5    1    3    3    0  502 -0.10036939162E+02  0.14928195445E+02 -0.19344549550E+01  0.18568944046E+02  0.41800000000E+01 0. -1.
        -11    1    1    2    0    0  0.61373257964E+02 -0.29940622250E+02  0.40175915498E+02  0.79228920477E+02  0.00000000000E+00 0.  1.
         11    1    1    2    0    0 -0.16707486344E+02 -0.40323955886E+02  0.85333414287E+02  0.95848594732E+02  0.00000000000E+00 0. -1.
</event>
<event>
 7    1  0.2394257E-009  0.1023921E+03  0.7561462E-02  0.1275345E+00
          2   -1    0    0  501    0  0.00000000000E+00  0.00000000000E+00  0.63334078453E+03  0.63334078453E+03  0.00000000000E+00 0. -1.
         -2   -1    0    0    0  501 -0.00000000000E+00 -0.00000000000E+00 -0.26141858421E+02  0.26141858421E+02  0.00000000000E+00 0.  1.
         25    2    1    2    0    0  0.46278791656E+02 -0.30272383367E+02  0.47975249648E+03  0.49886661765E+03  0.12508917050E+03 0.  0.
          5    1    3    3  502    0  0.34984791336E+02  0.39305095922E+02  0.31831359076E+03  0.32266056569E+03  0.41800000000E+01 0.  1.
         -5    1    3    3    0  502  0.11294000320E+02 -0.69577479289E+02  0.16143890573E+03  0.17620605197E+03  0.41800000000E+01 0.  1.
        -11    1    1    2    0    0  0.91453960092E+01 -0.94863521965E+01  0.70612684183E+02  0.71831610825E+02  0.00000000000E+00 0. -1.
         11    1    1    2    0    0 -0.55424187665E+02  0.39758735564E+02  0.56833745441E+02  0.88784414470E+02  0.00000000000E+00 0.  1.
</event>
<event>
 7    1  0.2394257E-009  0.8512971E+02  0.7561462E-02  0.1315094E+00
          2   -1    0    0  501    0  0.00000000000E+00  0.00000000000E+00  0.40015190986E+03  0.40015190986E+03  0.00000000000E+00 0. -1.
         -2   -1    0    0    0  501 -0.00000000000E+00 -0.00000000000E+00 -0.47603685494E+02  0.47603685494E+02  0.00000000000E+00 0.  1.
         25    2    1    2    0    0 -0.20707945207E+02  0.10543856540E+02  0.59412205390E+02  0.14043085101E+03  0.12510404414E+03 0.  0.
          5    1    3    3  502    0 -0.13567843703E+02  0.48152889039E+02 -0.18515495615E+02  0.53507785260E+02  0.41800000000E+01 0.  1.
         -5    1    3    3    0  502 -0.71401015036E+01 -0.37609032499E+02  0.77927701005E+02  0.86923065747E+02  0.41800000000E+01 0.  1.
        -11    1    1    2    0    0  0.28301479914E+02  0.29447651936E+02  0.74778292569E+02  0.85205228767E+02  0.00000000000E+00 0.  1.
         11    1    1    2    0    0 -0.75935347077E+01 -0.39991508476E+02  0.21835772641E+03  0.22211951558E+03  0.00000000000E+00 0. -1.
</event>
<event>
 7    1  0.3389196E-009  0.8961929E+02  0.7561462E-02  0.1303776E+00
         -2   -1    0    0    0  501 -0.00000000000E+00  0.00000000000E+00  0.16840055900E+02  0.16840055900E+02  0.00000000000E+00 0.  1.
          2   -1    0    0  501    0  0.00000000000E+00 -0.00000000000E+00 -0.11802915498E+04  0.11802915498E+04  0.00000000000E+00 0. -1.
         25    2    1    2    0    0  0.72707318715E+02 -0.21365958361E+02 -0.83947131710E+03  0.85211492223E+03  0.12507953505E+03 0.  0.
          5    1    3    3  502    0  0.23887593812E+01 -0.10499348820E+02 -0.21297189998E+01  0.11745237335E+02  0.41800000000E+01 0.  1.
         -5    1    3    3    0  502  0.70318559334E+02 -0.10866609541E+02 -0.83734159810E+03  0.84036968490E+03  0.41800000000E+01 0.  1.
        -11    1    1    2    0    0 -0.23948098385E+01  0.25846322526E+02 -0.19431371998E+02  0.32424461753E+02  0.00000000000E+00 0.  1.
         11    1    1    2    0    0 -0.70312508877E+02 -0.44803641647E+01 -0.30454880476E+03  0.31259222167E+03  0.00000000000E+00 0. -1.
</event>
<event>
 7    1  0.2394257E-009  0.1746567E+03  0.7561462E-02  0.1173077E+00
         -2   -1    0    0    0  501 -0.00000000000E+00  0.00000000000E+00  0.31087586664E+03  0.31087586664E+03  0.00000000000E+00 0.  1.
          2   -1    0    0  501    0  0.00000000000E+00 -0.00000000000E+00 -0.17685043625E+03  0.17685043625E+03  0.00000000000E+00 0. -1.
         25    2    1    2    0    0  0.16458730796E+03 -0.18159634458E+02 -0.60294339416E+02  0.21610582010E+03  0.12509022284E+03 0.  0.
          5    1    3    3  502    0  0.39366901425E+02 -0.90448566643E+01 -0.79263625394E+02  0.89060412476E+02  0.41800000000E+01 0. -1.
         -5    1    3    3    0  502  0.12522040653E+03 -0.91147777940E+01  0.18969285978E+02  0.12704540762E+03  0.41800000000E+01 0. -1.
        -11    1    1    2    0    0 -0.12334133217E+03 -0.22260645973E+02  0.97118145813E+02  0.15855773342E+03  0.00000000000E+00 0. -1.
         11    1    1    2    0    0 -0.41245975788E+02  0.40420280431E+02  0.97201623989E+02  0.11306274937E+03  0.00000000000E+00 0.  1.
</event>
<event>
 7    1  0.2394257E-009  0.8208054E+02  0.7561462E-02  0.1323249E+00
         -2   -1    0    0    0  501 -0.00000000000E+00  0.00000000000E+00  0.10624535581E+03  0.10624535581E+03  0.00000000000E+00 0.  1.
          2   -1    0    0  501    0  0.00000000000E+00 -0.00000000000E+00 -0.14262587152E+03  0.14262587152E+03  0.00000000000E+00 0. -1.
         25    2    1    2    0    0  0.77178329834E+01  0.44420125224E+02  0.90003032197E+01  0.13327646491E+03  0.12509555615E+03 0.  0.
          5    1    3    3  502    0 -0.24412503285E+02 -0.24071342129E+02  0.38721703122E+02  0.51886824158E+02  0.41800000000E+01 0.  1.
         -5    1    3    3    0  502  0.32130336268E+02  0.68491467353E+02 -0.29721399903E+02  0.81389640748E+02  0.41800000000E+01 0.  1.
        -11    1    1    2    0    0  0.10977563629E+02 -0.10880930462E+02  0.28449059332E+02  0.32376697296E+02  0.00000000000E+00 0.  1.
         11    1    1    2    0    0 -0.18695396613E+02 -0.33539194762E+02 -0.73829878256E+02  0.83218065125E+02  0.00000000000E+00 0. -1.
</event>
<event>
 7    1  0.2394257E-009  0.1049293E+03  0.7561462E-02  0.1270259E+00
          1   -1    0    0  501    0  0.00000000000E+00  0.00000000000E+00  0.16094118741E+04  0.16094118741E+04  0.00000000000E+00 0.  1.
         -1   -1    0    0    0  501 -0.00000000000E+00 -0.00000000000E+00 -0.22312349491E+02  0.22312349491E+02  0.00000000000E+00 0. -1.
         25    2    1    2    0    0 -0.20811668968E+02  0.63192936206E+02  0.14334337417E+04  0.14404182233E+04  0.12508354545E+03 0.  0.
          5    1    3    3  502    0 -0.59635292182E+02  0.16576668562E+02  0.36334471431E+03  0.36860277784E+03  0.41800000000E+01 0.  1.
         -5    1    3    3    0  502  0.38823623214E+02  0.46616267644E+02  0.10700890274E+04  0.10718154455E+04  0.41800000000E+01 0.  1.
        -11    1    1    2    0    0  0.17626198861E+02  0.53301317497E+01  0.10644768134E+03  0.10802870939E+03  0.00000000000E+00 0. -1.
         11    1    1    2    0    0  0.31854701070E+01 -0.68523067956E+02  0.47218101487E+02  0.83277290842E+02  0.00000000000E+00 0.  1.
</event>
<event>
 7    1  0.2394257E-009  0.2870568E+03  0.7561462E-02  0.1091896E+00
         -1   -1    0    0    0  501 -0.00000000000E+00  0.00000000000E+00  0.16742793644E+03  0.16742793644E+03  0.00000000000E+00 0. -1.
          1   -1    0    0  501    0  0.00000000000E+00 -0.00000000000E+00 -0.49868290944E+03  0.49868290944E+03  0.00000000000E+00 0.  1.
         25    2    1    2    0    0  0.20472757890E+03 -0.17291347131E+03 -0.17455790468E+03  0.34340929935E+03  0.12508810764E+03 0.  0.
          5    1    3    3  502    0  0.18528403403E+03 -0.19142484629E+03 -0.16945999191E+03  0.31576542924E+03  0.41800000000E+01 0.  1.
         -5    1    3    3    0  502  0.19443544861E+02  0.18511374975E+02 -0.50979127750E+01  0.27643870114E+02  0.41800000000E+01 0.  1.
        -11    1    1    2    0    0 -0.90245063756E+02  0.25351465206E+02 -0.36453224778E+02  0.10057686572E+03  0.00000000000E+00 0. -1.
         11    1    1    2    0    0 -0.11448251514E+03  0.14756200611E+03 -0.12024384354E+03  0.22212468082E+03  0.00000000000E+00 0.  1.
</event>
<event>
 7    1  0.2394257E-009  0.1292451E+03  0.7561462E-02  0.1228580E+00
         -2   -1    0    0    0  501 -0.00000000000E+00  0.00000000000E+00  0.13682212416E+03  0.13682212416E+03  0.00000000000E+00 0.  1.
          2   -1    0    0  501    0  0.00000000000E+00 -0.00000000000E+00 -0.20687999742E+03  0.20687999742E+03  0.00000000000E+00 0. -1.
         25    2    1    2    0    0  0.77374874164E+02  0.74504309972E+02 -0.10828974965E+03  0.19725815572E+03  0.12508535790E+03 0.  0.
          5    1    3    3  502    0  0.42609147655E+02 -0.17234702918E+02  0.60425878975E+01  0.46546317975E+02  0.41800000000E+01 0.  1.
         -5    1    3    3    0  502  0.34765726510E+02  0.91739012890E+02 -0.11433233755E+03  0.15071183774E+03  0.41800000000E+01 0.  1.
        -11    1    1    2    0    0 -0.24220705970E+02 -0.20848171762E+01  0.50239467668E+02  0.55812123879E+02  0.00000000000E+00 0.  1.
         11    1    1    2    0    0 -0.53154168194E+02 -0.72419492795E+02 -0.12007591279E+02  0.90631841984E+02  0.00000000000E+00 0. -1.
</event>
<event>
 7    1  0.2394257E-009  0.9597471E+02  0.7561462E-02  0.1288996E+00
         -4   -1    0    0    0  501 -0.00000000000E+00  0.00000000000E+00  0.26530165367E+03  0.26530165367E+03  0.00000000000E+00 0.  1.
          4   -1    0    0  501    0  0.00000000000E+00 -0.00000000000E+00 -0.49468813333E+02  0.49468813333E+02  0.00000000000E+00 0. -1.
         25    2    1    2    0    0  0.24510385638E+02 -0.29204832267E+02  0.12936005097E+03  0.18394126525E+03  0.12508671009E+03 0.  0.
          5    1    3    3  502    0 -0.27967215583E+02  0.25367640275E+02  0.50397949588E+01  0.38321720392E+02  0.41800000000E+01 0. -1.
         -5    1    3    3    0  502  0.52477601221E+02 -0.54572472542E+02  0.12432025601E+03  0.14561954485E+03  0.41800000000E+01 0. -1.
        -11    1    1    2    0    0  0.10047022955E+02  0.40539636490E+02  0.55804292552E+01  0.42137228050E+02  0.00000000000E+00 0. -1.
         11    1    1    2    0    0 -0.34557408593E+02 -0.11334804224E+02  0.80892360116E+02  0.88691973710E+02  0.00000000000E+00 0.  1.
</event>
<event>
 7    1  0.2394257E-009  0.1084995E+03  0.7561462E-02  0.1263374E+00
          3   -1    0    0  501    0  0.00000000000E+00  0.00000000000E+00  0.61817777292E+02  0.61817777292E+02  0.00000000000E+00 0. -1.
         -3   -1    0    0    0  501 -0.00000000000E+00 -0.00000000000E+00 -0.33792380076E+03  0.33792380076E+03  0.00000000000E+00 0.  1.
         25    2    1    2    0    0  0.24203273963E+02  0.85874098980E+02 -0.19083204646E+03  0.24499815033E+03  0.12508822632E+03 0.  0.
          5    1    3    3  502    0 -0.25761190884E+02  0.38998962263E+01  0.50031750049E+01  0.26858002653E+02  0.41800000000E+01 0. -1.
         -5    1    3    3    0  502  0.49964464848E+02  0.81974202754E+02 -0.19583522146E+03  0.21814014768E+03  0.41800000000E+01 0. -1.
        -11    1    1    2    0    0  0.28420313357E+00 -0.55511515055E+02 -0.98909055858E+02  0.11342226592E+03  0.00000000000E+00 0.  1.
         11    1    1    2    0    0 -0.24487477097E+02 -0.30362583925E+02  0.13635078850E+02  0.41321161799E+02  0.00000000000E+00 0. -1.
</event>
<event>
 7    1  0.2399119E-009  0.1952707E+03  0.7561462E-02  0.1153792E+00
         -1   -1    0    0    0  501 -0.00000000000E+00  0.00000000000E+00  0.58115518291E+02  0.58115518291E+02  0.00000000000E+00 0.  1.
          1   -1    0    0  501    0  0.00000000000E+00 -0.00000000000E+00 -0.77172924191E+03  0.77172924191E+03  0.00000000000E+00 0. -1.
         25    2    1    2    0    0  0.17391098652E+03 -0.22890167823E+02 -0.46179019029E+03  0.50957599517E+03  0.12509406059E+03 0.  0.
          5    1    3    3  502    0  0.61564885605E+02 -0.69920418125E+02 -0.18636670290E+03  0.20839654594E+03  0.41800000000E+01 0. -1.
         -5    1    3    3    0  502  0.11234610091E+03  0.47030250302E+02 -0.27542348739E+03  0.30117944924E+03  0.41800000000E+01 0. -1.
        -11    1    1    2    0    0 -0.93890676402E+02  0.11391295480E+02 -0.59740039046E+02  0.11186640690E+03  0.00000000000E+00 0.  1.
         11    1    1    2    0    0 -0.80020310118E+02  0.11498872344E+02 -0.19208349428E+03  0.20840235812E+03  0.00000000000E+00 0. -1.
</event>
<event>
 7    1  0.2394257E-009  0.9126845E+02  0.7561462E-02  0.1299809E+00
         -1   -1    0    0    0  501 -0.00000000000E+00  0.00000000000E+00  0.47738264422E+02  0.47738264422E+02  0.00000000000E+00 0.  1.
          1   -1    0    0  501    0  0.00000000000E+00 -0.00000000000E+00 -0.37074742291E+03  0.37074742291E+03  0.00000000000E+00 0. -1.
         25    2    1    2    0    0 -0.55993027334E+02  0.50793571748E+02 -0.17053153982E+03  0.22459601960E+03  0.12508860821E+03 0.  0.
          5    1    3    3  502    0 -0.64341983745E+02  0.63935495798E+02 -0.51324711381E+02  0.10430405981E+03  0.41800000000E+01 0. -1.
         -5    1    3    3    0  502  0.83489564112E+01 -0.13141924050E+02 -0.11920682844E+03  0.12029195978E+03  0.41800000000E+01 0. -1.
        -11    1    1    2    0    0  0.18940172283E+02 -0.16247864521E+02 -0.13933740109E+03  0.14155435200E+03  0.00000000000E+00 0. -1.
         11    1    1    2    0    0  0.37052855050E+02 -0.34545707228E+02 -0.13140217573E+02  0.52335315735E+02  0.00000000000E+00 0.  1.
</event>
<event>
 7    1  0.2394257E-009  0.1010198E+03  0.7561462E-02  0.1278166E+00
          2   -1    0    0  501    0  0.00000000000E+00  0.00000000000E+00  0.85456914715E+02  0.85456914715E+02  0.00000000000E+00 0. -1.
         -2   -1    0    0    0  501 -0.00000000000E+00 -0.00000000000E+00 -0.18147248695E+03  0.18147248695E+03  0.00000000000E+00 0.  1.
         25    2    1    2    0    0  0.10539183764E+02 -0.42033814825E+02 -0.78453545699E+02  0.15388560897E+03  0.12509158977E+03 0.  0.
          5    1    3    3  502    0 -0.22627120313E+02  0.19053640412E+02 -0.78774330440E+02  0.84249007845E+02  0.41800000000E+01 0. -1.
         -5    1    3    3    0  502  0.33166304077E+02 -0.61087455238E+02  0.32078474036E+00  0.69636601126E+02  0.41800000000E+01 0. -1.
        -11    1    1    2    0    0 -0.21659490935E+02 -0.25858958535E+02  0.15015800549E+02  0.36922805287E+02  0.00000000000E+00 0. -1.
         11    1    1    2    0    0  0.11120307172E+02  0.67892773361E+02 -0.32577827083E+02  0.76120987406E+02  0.00000000000E+00 0.  1.
</event>
<event>
 7    1  0.2394257E-009  0.1162254E+03  0.7561462E-02  0.1249457E+00
         -1   -1    0    0    0  501 -0.00000000000E+00  0.00000000000E+00  0.14499631945E+03  0.14499631945E+03  0.00000000000E+00 0.  1.
          1   -1    0    0  501    0  0.00000000000E+00 -0.00000000000E+00 -0.14141475916E+03  0.14141475916E+03  0.00000000000E+00 0. -1.
         25    2    1    2    0    0  0.14520169978E+02  0.86693268938E+02  0.36407768869E+02  0.15716018416E+03  0.12508892691E+03 0.  0.
          5    1    3    3  502    0  0.61607562761E+02  0.27839951600E+02  0.44795925553E+02  0.81207770814E+02  0.41800000000E+01 0. -1.
         -5    1    3    3    0  502 -0.47087392783E+02  0.58853317338E+02 -0.83881566835E+01  0.75952413347E+02  0.41800000000E+01 0. -1.
        -11    1    1    2    0    0 -0.33974125258E+01 -0.62590180120E+02  0.23531936708E+02  0.66953902833E+02  0.00000000000E+00 0.  1.
         11    1    1    2    0    0 -0.11122757452E+02 -0.24103088818E+02 -0.56358145284E+02  0.62296991611E+02  0.00000000000E+00 0. -1.
</event>
<event>
 7    1  0.2394257E-009  0.1122649E+03  0.7561462E-02  0.1256432E+00
         -3   -1    0    0    0  501 -0.00000000000E+00  0.00000000000E+00  0.20309856181E+03  0.20309856181E+03  0.00000000000E+00 0.  1.
          3   -1    0    0  501    0  0.00000000000E+00 -0.00000000000E+00 -0.69355395034E+02  0.69355395034E+02  0.00000000000E+00 0. -1.
         25    2    1    2    0    0 -0.37921667338E+02 -0.24784831391E+02  0.91500941316E+02  0.16147034841E+03  0.12509160817E+03 0.  0.
          5    1    3    3  502    0 -0.60554431592E+02  0.26304900039E+02  0.17098190083E+02  0.68327208750E+02  0.41800000000E+01 0.  1.
         -5    1    3    3    0  502  0.22632764253E+02 -0.51089731429E+02  0.74402751232E+02  0.93143139662E+02  0.41800000000E+01 0.  1.
        -11    1    1    2    0    0 -0.18054224843E+02  0.40381556157E+02  0.22391914926E+02  0.49578452642E+02  0.00000000000E+00 0. -1.
         11    1    1    2    0    0  0.55975892181E+02 -0.15596724767E+02  0.19850310531E+02  0.61405155786E+02  0.00000000000E+00 0.  1.
</event>
<event>
 7    1  0.2775144E-009  0.1064432E+03  0.7561462E-02  0.1267302E+00
          2   -1    0    0  501    0  0.00000000000E+00  0.00000000000E+00  0.12528118759E+03  0.12528118759E+03  0.00000000000E+00 0.  1.
         -2   -1    0    0    0  501 -0.00000000000E+00 -0.00000000000E+00 -0.21726995140E+03  0.21726995140E+03  0.00000000000E+00 0. -1.
         25    2    1    2    0    0  0.34285402670E+01 -0.64404040787E+02 -0.15851169989E+03  0.21197089259E+03  0.12508423141E+03 0.  0.
          5    1    3    3  502    0 -0.19684561764E+02 -0.77696905779E+02 -0.38601286906E+02  0.89060781999E+02  0.41800000000E+01 0.  1.
         -5    1    3    3    0  502  0.23113102031E+02  0.13292864992E+02 -0.11991041298E+03  0.12291011059E+03  0.41800000000E+01 0.  1.
        -11    1    1    2    0    0  0.39810535765E+02  0.37626770440E+02  0.12112949880E+02  0.56101480964E+02  0.00000000000E+00 0. -1.
         11    1    1    2    0    0 -0.43239076032E+02  0.26777270348E+02  0.54409986196E+02  0.74478765439E+02  0.00000000000E+00 0.  1.
</event>
<event>
 7    1  0.2394257E-009  0.1268316E+03  0.7561462E-02  0.1232234E+00
         -2   -1    0    0    0  501 -0.00000000000E+00  0.00000000000E+00  0.20488623503E+03  0.20488623503E+03  0.00000000000E+00 0.  1.
          2   -1    0    0  501    0  0.00000000000E+00 -0.00000000000E+00 -0.11796259909E+03  0.11796259909E+03  0.00000000000E+00 0. -1.
         25    2    1    2    0    0 -0.10256720809E+03  0.47109601449E+02  0.85446299140E+02  0.18891382462E+03  0.12509203161E+03 0.  0.
          5    1    3    3  502    0 -0.15034653384E+02  0.50733794501E+02 -0.15394858273E+02  0.55266922912E+02  0.41800000000E+01 0.  1.
         -5    1    3    3    0  502 -0.87532554708E+02 -0.36241930526E+01  0.10084115741E+03  0.13364690171E+03  0.41800000000E+01 0.  1.
        -11    1    1    2    0    0  0.64390153696E+02 -0.28867130878E+02  0.36100264769E+02  0.79263057312E+02  0.00000000000E+00 0.  1.
         11    1    1    2    0    0  0.38177054396E+02 -0.18242470571E+02 -0.34622927961E+02  0.54671952183E+02  0.00000000000E+00 0. -1.
</event>
<event>
 7    1  0.2394257E-009  0.1126601E+03  0.7561462E-02  0.1255722E+00
          1   -1    0    0  501    0  0.00000000000E+00  0.00000000000E+00  0.16202200732E+03  0.16202200732E+03  0.00000000000E+00 0. -1.
         -1   -1    0    0    0  501 -0.00000000000E+00 -0.00000000000E+00 -0.86918308577E+02  0.86918308577E+02  0.00000000000E+00 0.  1.
         25    2    1    2    0    0 -0.37506725635E+02 -0.22876825149E+02  0.54255816893E+02  0.14325018091E+03  0.12508723783E+03 0.  0.
          5    1    3    3  502    0  0.14202071708E+02 -0.64425853876E+02  0.27844313297E+02  0.71729824141E+02  0.41800000000E+01 0. -1.
         -5    1    3    3    0  502 -0.51708797343E+02  0.41549028727E+02  0.26411503596E+02  0.71520356773E+02  0.41800000000E+01 0. -1.
        -11    1    1    2    0    0 -0.15682981268E+02 -0.19299394329E+02 -0.14879960470E+02  0.28979919712E+02  0.00000000000E+00 0.  1.
         11    1    1    2    0    0  0.53189706903E+02  0.42176219477E+02  0.35727842319E+02  0.76710215269E+02  0.00000000000E+00 0. -1.
</event>
<event>
 7    1  0.2394257E-009  0.1997857E+03  0.7561462E-02  0.1149920E+00
          1   -1    0    0  501    0  0.00000000000E+00  0.00000000000E+00  0.14573645654E+04  0.14573645654E+04  0.00000000000E+00 0. -1.
         -1   -1    0    0    0  501 -0.00000000000E+00 -0.00000000000E+00 -0.50721245303E+02  0.50721245303E+02  0.00000000000E+00 0.  1.
         25    2    1    2    0    0  0.14988021110E+03  0.12654283061E+03  0.10985065835E+04  0.11228726183E+04  0.12509611276E+03 0.  0.
          5    1    3    3  502    0  0.14260358417E+03  0.13094192262E+03  0.10961305798E+04  0.11131043481E+04  0.41800000000E+01 0. -1.
         -5    1    3    3    0  502  0.72766269309E+01 -0.43990920067E+01  0.23760036255E+01  0.97682702258E+01  0.41800000000E+01 0. -1.
        -11    1    1    2    0    0 -0.14925502733E+02 -0.86365848365E+01 -0.10102869454E+02  0.19985724923E+02  0.00000000000E+00 0.  1.
         11    1    1    2    0    0 -0.13495470836E+03 -0.11790624577E+03  0.31823960614E+03  0.36522746751E+03  0.00000000000E+00 0. -1.
</event>
<event>
 7    1  0.2394257E-009  0.1189981E+03  0.7561462E-02  0.1244759E+00
          1   -1    0    0  501    0  0.00000000000E+00  0.00000000000E+00  0.50176906244E+02  0.50176906244E+02  0.00000000000E+00 0. -1.
         -1   -1    0    0    0  501 -0.00000000000E+00 -0.00000000000E+00 -0.54336810175E+03  0.54336810175E+03  0.00000000000E+00 0.  1.
         25    2    1    2    0    0  0.73792952795E+02  0.43659970469E+02 -0.10161111009E+03  0.18254877372E+03  0.12509054397E+03 0.  0.
          5    1    3    3  502    0  0.11667087864E+02 -0.20593579892E+02  0.20207996551E+02  0.31401464880E+02  0.41800000000E+01 0.  1.
         -5    1    3    3    0  502  0.62125864931E+02  0.64253550361E+02 -0.12181910664E+03  0.15114730884E+03  0.41800000000E+01 0.  1.
        -11    1    1    2    0    0 -0.34810713522E+02  0.26820295735E+02 -0.12395508271E+03  0.13151416870E+03  0.00000000000E+00 0. -1.
         11    1    1    2    0    0 -0.38982239273E+02 -0.70480266204E+02 -0.26762500271E+03  0.27948206557E+03  0.00000000000E+00 0.  1.
</event>
<event>
 7    1  0.2483127E-009  0.1097310E+03  0.7561462E-02  0.1261069E+00
         -2   -1    0    0    0  501 -0.00000000000E+00  0.00000000000E+00  0.26913998656E+02  0.26913998656E+02  0.00000000000E+00 0. -1.
          2   -1    0    0  501    0  0.00000000000E+00 -0.00000000000E+00 -0.97375380311E+03  0.97375380311E+03  0.00000000000E+00 0.  1.
         25    2    1    2    0    0  0.72595212185E+01 -0.10444676182E+03 -0.69025287504E+03  0.70926659170E+03  0.12509292502E+03 0.  0.
          5    1    3    3  502    0 -0.23128646100E+00 -0.37022749948E+02 -0.37075049368E+02  0.52562050881E+02  0.41800000000E+01 0.  1.
         -5    1    3    3    0  502  0.74908076795E+01 -0.67424011870E+02 -0.65317782567E+03  0.65670454082E+03  0.41800000000E+01 0.  1.
        -11    1    1    2    0    0  0.19410264114E+02  0.49140345841E+02 -0.39970884315E+02  0.66251064409E+02  0.00000000000E+00 0. -1.
         11    1    1    2    0    0 -0.26669785333E+02  0.55306415977E+02 -0.21661604510E+03  0.22515014566E+03  0.00000000000E+00 0.  1.
</event>
<event>
 7    1  0.2394257E-009  0.1068735E+03  0.7561462E-02  0.1266472E+00
          1   -1    0    0  501    0  0.00000000000E+00  0.00000000000E+00  0.12938513409E+03  0.12938513409E+03  0.00000000000E+00 0. -1.
         -1   -1    0    0    0  501 -0.00000000000E+00 -0.00000000000E+00 -0.95810295250E+02  0.95810295250E+02  0.00000000000E+00 0.  1.
         25    2    1    2    0    0  0.13427126405E+02 -0.71897328859E+01  0.10471376940E+02  0.12645062369E+03  0.12509248784E+03 0.  0.
          5    1    3    3  502    0 -0.51243100145E+02 -0.14464833386E+02 -0.16471724525E+02  0.55891652563E+02  0.41800000000E+01 0. -1.
         -5    1    3    3    0  502  0.64670226550E+02  0.72751005000E+01  0.26943101465E+02  0.70558971122E+02  0.41800000000E+01 0. -1.
        -11    1    1    2    0    0  0.36568773952E+02 -0.16118076423E+02  0.31591141730E+01  0.40087998432E+02  0.00000000000E+00 0.  1.
         11    1    1    2    0    0 -0.49995900357E+02  0.23307809309E+02  0.19944347726E+02  0.58656807222E+02  0.00000000000E+00 0. -1.
</event>
<event>
 7    1  0.2394257E-009  0.8174227E+02  0.7561462E-02  0.1324179E+00
         -2   -1    0    0    0  501 -0.00000000000E+00  0.00000000000E+00  0.25723554825E+03  0.25723554825E+03  0.00000000000E+00 0.  1.
          2   -1    0    0  501    0  0.00000000000E+00 -0.00000000000E+00 -0.59885761059E+02  0.59885761059E+02  0.00000000000E+00 0. -1.
         25    2    1    2    0    0 -0.60181288813E+02 -0.27259885078E+01  0.13352108510E+03  0.19263076733E+03  0.12509801685E+03 0.  0.
          5    1    3    3  502    0 -0.61845058460E+02 -0.17544204062E+01  0.15694885116E+03  0.16875515852E+03  0.41800000000E+01 0.  1.
         -5    1    3    3    0  502  0.16637696469E+01 -0.97156810155E+00 -0.23427766056E+02  0.23875608817E+02  0.41800000000E+01 0.  1.
        -11    1    1    2    0    0 -0.11700118983E+02 -0.18528100332E+02 -0.52755990249E+01  0.22539193224E+02  0.00000000000E+00 0. -1.
         11    1    1    2    0    0  0.71881407796E+02  0.21254088839E+02  0.69104301113E+02  0.10195134875E+03  0.00000000000E+00 0.  1.
</event>
<event>
 7    1  0.2394257E-009  0.1056284E+03  0.7561462E-02  0.1268886E+00
         -1   -1    0    0    0  501 -0.00000000000E+00  0.00000000000E+00  0.66896018541E+02  0.66896018541E+02  0.00000000000E+00 0.  1.
          1   -1    0    0  501    0  0.00000000000E+00 -0.00000000000E+00 -0.25308456742E+03  0.25308456742E+03  0.00000000000E+00 0. -1.
         25    2    1    2    0    0  0.51674080736E+02  0.45452467675E+02 -0.77278213434E+02  0.16234312783E+03  0.12508889418E+03 0.  0.
          5    1    3    3  502    0  0.85255278406E+02  0.26464506784E+01 -0.31186320868E+02  0.90914933903E+02  0.41800000000E+01 0. -1.
         -5    1    3    3    0  502 -0.33581197670E+02  0.42806016997E+02 -0.46091892566E+02  0.71428193932E+02  0.41800000000E+01 0. -1.
        -11    1    1    2    0    0 -0.37213797407E+02 -0.20591604208E+02  0.24711708696E+01  0.42602670888E+02  0.00000000000E+00 0.  1.
         11    1    1    2    0    0 -0.14460283329E+02 -0.24860863467E+02 -0.11138150631E+03  0.11503478723E+03  0.00000000000E+00 0. -1.
</event>
<event>
 7    1  0.2394257E-009  0.3718760E+03  0.7561462E-02  0.1053978E+00
          1   -1    0    0  501    0  0.00000000000E+00  0.00000000000E+00  0.10923749482E+04  0.10923749482E+04  0.00000000000E+00 0. -1.
         -1   -1    0    0    0  501 -0.00000000000E+00 -0.00000000000E+00 -0.13070802707E+03  0.13070802707E+03  0.00000000000E+00 0.  1.
         25    2    1    2    0    0 -0.11443059341E+03 -0.34052929773E+03  0.41636144259E+03  0.56396756668E+03  0.12509197443E+03 0.  0.
          5    1    3    3  502    0 -0.55554991790E+02 -0.30568214210E+03  0.35712316955E+03  0.47337338301E+03  0.41800000000E+01 0.  1.
         -5    1    3    3    0  502 -0.58875601622E+02 -0.34847155628E+02  0.59238273042E+02  0.90594183669E+02  0.41800000000E+01 0.  1.
        -11    1    1    2    0    0  0.83204959427E+02  0.15099618016E+03  0.20063189443E+03  0.26452990145E+03  0.00000000000E+00 0.  1.
         11    1    1    2    0    0  0.31225633985E+02  0.18953311757E+03  0.34467358411E+03  0.39458550715E+03  0.00000000000E+00 0. -1.
</event>
<event>
 7    1  0.2935796E-009  0.1939006E+03  0.7561462E-02  0.1154990E+00
         -2   -1    0    0    0  501 -0.00000000000E+00  0.00000000000E+00  0.23394808113E+02  0.23394808113E+02  0.00000000000E+00 0.  1.
          2   -1    0    0  501    0  0.00000000000E+00 -0.00000000000E+00 -0.17488762575E+04  0.17488762575E+04  0.00000000000E+00 0. -1.
         25    2    1    2    0    0 -0.13313376114E+03 -0.10364046406E+03 -0.79797929303E+03  0.82515795095E+03  0.12509495498E+03 0.  0.
          5    1    3    3  502    0  0.16437815883E+01  0.18640826919E+02 -0.27877470064E+02  0.33835014161E+02  0.41800000000E+01 0. -1.
         -5    1    3    3    0  502 -0.13477754273E+03 -0.12228129098E+03 -0.77010182296E+03  0.79132293679E+03  0.41800000000E+01 0. -1.
        -11    1    1    2    0    0  0.11093955117E+03  0.37939198458E+02 -0.68196492165E+03  0.69197046263E+03  0.00000000000E+00 0. -1.
         11    1    1    2    0    0  0.22194209971E+02  0.65701265607E+02 -0.24553723468E+03  0.25514265201E+03  0.00000000000E+00 0.  1.
</event>
<event>
 7    1  0.2394257E-009  0.1403218E+03  0.7561462E-02  0.1212897E+00
          2   -1    0    0  501    0  0.00000000000E+00  0.00000000000E+00  0.50566252124E+03  0.50566252124E+03  0.00000000000E+00 0. -1.
         -2   -1    0    0    0  501 -0.00000000000E+00 -0.00000000000E+00 -0.52580307987E+02  0.52580307987E+02  0.00000000000E+00 0.  1.
         25    2    1    2    0    0 -0.92900977919E+02 -0.64559484160E+02  0.31431065768E+03  0.35670262711E+03  0.12508819274E+03 0.  0.
          5    1    3    3  502    0 -0.84624624163E+02 -0.99194416445E+02  0.21951654116E+03  0.25535434892E+03  0.41800000000E+01 0.  1.
         -5    1    3    3    0  502 -0.82763537560E+01  0.34634932285E+02  0.94794116524E+02  0.10134827820E+03  0.41800000000E+01 0.  1.
        -11    1    1    2    0    0  0.33121932948E+02  0.32920005795E+02  0.12373378554E+03  0.13225293535E+03  0.00000000000E+00 0. -1.
         11    1    1    2    0    0  0.59779044971E+02  0.31639478365E+02  0.15037770033E+02  0.69287266770E+02  0.00000000000E+00 0.  1.
</event>
<event>
 7    1  0.2394257E-009  0.2311980E+03  0.7561462E-02  0.1125799E+00
         -2   -1    0    0    0  501 -0.00000000000E+00  0.00000000000E+00  0.75254579751E+02  0.75254579751E+02  0.00000000000E+00 0.  1.
          2   -1    0    0  501    0  0.00000000000E+00 -0.00000000000E+00 -0.88056969513E+03  0.88056969513E+03  0.00000000000E+00 0. -1.
         25    2    1    2    0    0 -0.20198620150E+03 -0.34302407214E+02 -0.20930797925E+03  0.31849160860E+03  0.12510792875E+03 0.  0.
          5    1    3    3  502    0  0.14929504069E+02  0.71136163979E+01 -0.54157522491E+01  0.17896826602E+02  0.41800000000E+01 0. -1.
         -5    1    3    3    0  502 -0.21691570557E+03 -0.41416023612E+02 -0.20389222700E+03  0.30059478200E+03  0.41800000000E+01 0. -1.
        -11    1    1    2    0    0  0.83879403588E+02 -0.31098817891E+02 -0.20481599137E+03  0.22350051710E+03  0.00000000000E+00 0.  1.
         11    1    1    2    0    0  0.11810679791E+03  0.65401225105E+02 -0.39119114476E+03  0.41383214918E+03  0.00000000000E+00 0. -1.
</event>
<event>
 7    1  0.2394257E-009  0.7574029E+02  0.7561462E-02  0.1341594E+00
          2   -1    0    0  501    0  0.00000000000E+00  0.00000000000E+00  0.98536809857E+02  0.98536809857E+02  0.00000000000E+00 0.  1.
         -2   -1    0    0    0  501 -0.00000000000E+00 -0.00000000000E+00 -0.13242015601E+03  0.13242015601E+03  0.00000000000E+00 0. -1.
         25    2    1    2    0    0 -0.12690398384E+02  0.91645101078E+01  0.17635652311E+02  0.12729157816E+03  0.12508834950E+03 0.  0.
          5    1    3    3  502    0  0.35158193817E+02  0.29490784350E+02 -0.31355630484E+02  0.55735562410E+02  0.41800000000E+01 0. -1.
         -5    1    3    3    0  502 -0.47848592201E+02 -0.20326274242E+02  0.48991282795E+02  0.71556015751E+02  0.41800000000E+01 0. -1.
        -11    1    1    2    0    0  0.88791331687E+00 -0.29618539618E+02  0.14904382239E+02  0.33169065243E+02  0.00000000000E+00 0.  1.
         11    1    1    2    0    0  0.11802485067E+02  0.20454029510E+02 -0.66423380699E+02  0.70496322460E+02  0.00000000000E+00 0. -1.
</event>
<event>
 7    1  0.2394257E-009  0.1577094E+03  0.7561462E-02  0.1191307E+00
          3   -1    0    0  501    0  0.00000000000E+00  0.00000000000E+00  0.20941370338E+03  0.20941370338E+03  0.00000000000E+00 0. -1.
         -3   -1    0    0    0  501 -0.00000000000E+00 -0.00000000000E+00 -0.17397975341E+03  0.17397975341E+03  0.00000000000E+00 0.  1.
         25    2    1    2    0    0  0.10906487718E+03 -0.10840235084E+03 -0.11282297514E+02  0.19854849585E+03  0.12509195764E+03 0.  0.
          5    1    3    3  502    0  0.19398869579E+02 -0.29693631181E+02  0.52267439568E+02  0.63303913881E+02  0.41800000000E+01 0.  1.
         -5    1    3    3    0  502  0.89666007597E+02 -0.78708719657E+02 -0.63549737082E+02  0.13524458197E+03  0.41800000000E+01 0.  1.
        -11    1    1    2    0    0 -0.14754784511E+02 -0.22554495938E+01  0.36099291856E+02  0.39063404758E+02  0.00000000000E+00 0. -1.
         11    1    1    2    0    0 -0.94310092665E+02  0.11065780043E+03  0.10616955628E+02  0.14578155618E+03  0.00000000000E+00 0.  1.
</event>
<event>
 7    1  0.2394257E-009  0.1246897E+03  0.7561462E-02  0.1235555E+00
          2   -1    0    0  501    0  0.00000000000E+00  0.00000000000E+00  0.16811355593E+02  0.16811355593E+02  0.00000000000E+00 0. -1.
         -2   -1    0    0    0  501 -0.00000000000E+00 -0.00000000000E+00 -0.10748794911E+04  0.10748794911E+04  0.00000000000E+00 0.  1.
         25    2    1    2    0    0  0.27090080202E+02  0.64531979255E+02 -0.73893715142E+03  0.75271109137E+03  0.12509046538E+03 0.  0.
          5    1    3    3  502    0 -0.20416565551E+01 -0.36255247567E+02 -0.24734239404E+03  0.25002868561E+03  0.41800000000E+01 0.  1.
         -5    1    3    3    0  502  0.29131736757E+02  0.10078722682E+03 -0.49159475738E+03  0.50268240576E+03  0.41800000000E+01 0.  1.
        -11    1    1    2    0    0  0.17415497835E+02  0.10685768310E+02 -0.11688594157E+03  0.11865836905E+03  0.00000000000E+00 0.  1.
         11    1    1    2    0    0 -0.44505578037E+02 -0.75217747565E+02 -0.20224504248E+03  0.22032138624E+03  0.00000000000E+00 0. -1.
</event>
<event>
 7    1  0.2394257E-009  0.1166721E+03  0.7561462E-02  0.1248690E+00
         -2   -1    0    0    0  501 -0.00000000000E+00  0.00000000000E+00  0.58713232731E+02  0.58713232731E+02  0.00000000000E+00 0.  1.
          2   -1    0    0  501    0  0.00000000000E+00 -0.00000000000E+00 -0.63580237368E+03  0.63580237368E+03  0.00000000000E+00 0. -1.
         25    2    1    2    0    0 -0.81185968976E+02  0.46338109942E+02 -0.53730867261E+03  0.55954222760E+03  0.12509401590E+03 0.  0.
          5    1    3    3  502    0 -0.62593645993E+02  0.14379880292E+01 -0.48086933175E+03  0.48494620211E+03  0.41800000000E+01 0.  1.
         -5    1    3    3    0  502 -0.18592322983E+02  0.44900121912E+02 -0.56439340867E+02  0.74596025492E+02  0.41800000000E+01 0.  1.
        -11    1    1    2    0    0  0.36734602219E+02 -0.64155981399E+02 -0.19666337747E+01  0.73954638786E+02  0.00000000000E+00 0.  1.
         11    1    1    2    0    0  0.44451366757E+02  0.17817871458E+02 -0.37813834566E+02  0.61018740026E+02  0.00000000000E+00 0. -1.
</event>
<event>
 7    1  0.2394257E-009  0.1095536E+03  0.7561462E-02  0.1261399E+00
          1   -1    0    0  501    0  0.00000000000E+00  0.00000000000E+00  0.38693129854E+03  0.38693129854E+03  0.00000000000E+00 0. -1.
         -1   -1    0    0    0  501 -0.00000000000E+00 -0.00000000000E+00 -0.70256203305E+02  0.70256203305E+02  0.00000000000E+00 0.  1.
         25    2    1    2    0    0 -0.45366047522E+02 -0.44437715470E+02  0.31549234960E+03  0.34527504254E+03  0.12508654412E+03 0.  0.
          5    1    3    3  502    0 -0.31843022028E+02 -0.73544295580E+02  0.29772954474E+03  0.30835546967E+03  0.41800000000E+01 0. -1.
         -5    1    3    3    0  502 -0.13523025493E+02  0.29106580110E+02  0.17762804853E+02  0.36919572863E+02  0.41800000000E+01 0. -1.
        -11    1    1    2    0    0  0.45868187545E+02  0.68491402391E+02 -0.13786922385E+02  0.83576564054E+02  0.00000000000E+00 0.  1.
         11    1    1    2    0    0 -0.50214002313E+00 -0.24053686921E+02  0.14969668024E+02  0.28335895254E+02  0.00000000000E+00 0. -1.
</event>
<event>
 7    1  0.2394257E-009  0.1023340E+03  0.7561462E-02  0.1275463E+00
         -1   -1    0    0    0  501 -0.00000000000E+00  0.00000000000E+00  0.18488667441E+02  0.18488667441E+02  0.00000000000E+00 0.  1.
          1   -1    0    0  501    0  0.00000000000E+00 -0.00000000000E+00 -0.10042963898E+04  0.10042963898E+04  0.00000000000E+00 0. -1.
         25    2    1    2    0    0  0.55404946174E+02 -0.22066496652E+02 -0.74638140784E+03  0.75913772122E+03  0.12509290733E+03 0.  0.
          5    1    3    3  502    0  0.75723548657E+02 -0.32042002249E+02 -0.71748950652E+03  0.72219762537E+03  0.41800000000E+01 0. -1.
         -5    1    3    3    0  502 -0.20318602483E+02  0.99755055973E+01 -0.28891901324E+02  0.36940095843E+02  0.41800000000E+01 0. -1.
        -11    1    1    2    0    0 -0.10243616231E+02  0.46746057966E+02 -0.17368708191E+03  0.18015917415E+03  0.00000000000E+00 0. -1.
         11    1    1    2    0    0 -0.45161329943E+02 -0.24679561315E+02 -0.65739232598E+02  0.83488161864E+02  0.00000000000E+00 0.  1.
</event>
<event>
 7    1  0.2394257E-009  0.1038955E+03  0.7561462E-02  0.1272311E+00
         -2   -1    0    0    0  501 -0.00000000000E+00  0.00000000000E+00  0.19309703663E+03  0.19309703663E+03  0.00000000000E+00 0.  1.
          2   -1    0    0  501    0  0.00000000000E+00 -0.00000000000E+00 -0.69144368072E+02  0.69144368072E+02  0.00000000000E+00 0. -1.
         25    2    1    2    0    0 -0.44509090554E+02 -0.25822431019E+02  0.42803996719E+02  0.14187393216E+03  0.12509265928E+03 0.  0.
          5    1    3    3  502    0  0.41817407257E+02  0.81989444987E+00  0.27280379820E+02  0.50110470959E+02  0.41800000000E+01 0.  1.
         -5    1    3    3    0  502 -0.86326497811E+02 -0.26642325469E+02  0.15523616899E+02  0.91763461205E+02  0.41800000000E+01 0.  1.
        -11    1    1    2    0    0  0.53680800014E+02  0.66861405856E+01  0.23578580984E+02  0.59010865502E+02  0.00000000000E+00 0. -1.
         11    1    1    2    0    0 -0.91717094599E+01  0.19136290434E+02  0.57570090851E+02  0.61356607033E+02  0.00000000000E+00 0.  1.
</event>
<event>
 7    1  0.2394257E-009  0.1850869E+03  0.7561462E-02  0.1162969E+00
         -4   -1    0    0    0  501 -0.00000000000E+00  0.00000000000E+00  0.25523415714E+03  0.25523415714E+03  0.00000000000E+00 0.  1.
          4   -1    0    0  501    0  0.00000000000E+00 -0.00000000000E+00 -0.16874985658E+03  0.16874985658E+03  0.00000000000E+00 0. -1.
         25    2    1    2    0    0  0.16449448833E+02 -0.16204283230E+03  0.11516918911E+03  0.23545807871E+03  0.12509236924E+03 0.  0.
          5    1    3    3  502    0  0.54134393931E+02 -0.33362047951E+02  0.89589495741E+01  0.64352886705E+02  0.41800000000E+01 0. -1.
         -5    1    3    3    0  502 -0.37684945098E+02 -0.12868078435E+03  0.10621023954E+03  0.17110519200E+03  0.41800000000E+01 0. -1.
        -11    1    1    2    0    0  0.20568927743E+02  0.73586118214E+02  0.22736957759E+02  0.79718045827E+02  0.00000000000E+00 0.  1.
         11    1    1    2    0    0 -0.37018376577E+02  0.88456714085E+02 -0.51421846315E+02  0.10880788919E+03  0.00000000000E+00 0. -1.
</event>
<event>
 7    1  0.2394257E-009  0.1064391E+03  0.7561462E-02  0.1267310E+00
         -1   -1    0    0    0  501 -0.00000000000E+00  0.00000000000E+00  0.13995576419E+03  0.13995576419E+03  0.00000000000E+00 0.  1.
          1   -1    0    0  501    0  0.00000000000E+00 -0.00000000000E+00 -0.11646265091E+03  0.11646265091E+03  0.00000000000E+00 0. -1.
         25    2    1    2    0    0  0.17023152247E+02 -0.56106314854E+02 -0.21774250339E+02  0.13984930180E+03  0.12508398361E+03 0.  0.
          5    1    3    3  502    0 -0.26888621574E+02 -0.54994485746E+02 -0.56723396546E+02  0.83560801507E+02  0.41800000000E+01 0. -1.
         -5    1    3    3    0  502  0.43911773822E+02 -0.11118291080E+01  0.34949146207E+02  0.56288500289E+02  0.41800000000E+01 0. -1.
        -11    1    1    2    0    0 -0.48693109129E+02  0.57926024882E+02  0.33046704857E+02  0.82574378213E+02  0.00000000000E+00 0. -1.
         11    1    1    2    0    0  0.31669956882E+02 -0.18197100276E+01  0.12220658764E+02  0.33994735094E+02  0.00000000000E+00 0.  1.
</event>
<event>
 7    1  0.2394257E-009  0.2030170E+03  0.7561462E-02  0.1147218E+00
         -2   -1    0    0    0  501 -0.00000000000E+00  0.00000000000E+00  0.18922970304E+03  0.18922970304E+03  0.00000000000E+00 0.  1.
          2   -1    0    0  501    0  0.00000000000E+00 -0.00000000000E+00 -0.25081146708E+03  0.25081146708E+03  0.00000000000E+00 0. -1.
         25    2    1    2    0    0  0.59103808451E+02 -0.16563120933E+03  0.44658642792E+02  0.22038153790E+03  0.12508665075E+03 0.  0.
          5    1    3    3  502    0  0.76848562627E+02 -0.37789946289E+02  0.27896784751E+02  0.90163654639E+02  0.41800000000E+01 0.  1.
         -5    1    3    3    0  502 -0.17744754176E+02 -0.12784126304E+03  0.16761858042E+02  0.13021788326E+03  0.41800000000E+01 0.  1.
        -11    1    1    2    0    0 -0.75353711588E+02  0.11098300151E+03 -0.63571254335E+02  0.14844767715E+03  0.00000000000E+00 0.  1.
         11    1    1    2    0    0  0.16249903136E+02  0.54648207825E+02 -0.42669152487E+02  0.71211955067E+02  0.00000000000E+00 0. -1.
</event>
<event>
 7    1  0.2394257E-009  0.1001976E+03  0.7561462E-02  0.1279881E+00
          2   -1    0    0  501    0  0.00000000000E+00  0.00000000000E+00  0.77440555939E+03  0.77440555939E+03  0.00000000000E+00 0. -1.
         -2   -1    0    0    0  501 -0.00000000000E+00 -0.00000000000E+00 -0.17506012849E+02  0.17506012849E+02  0.00000000000E+00 0.  1.
         25    2    1    2    0    0  0.27734186536E+02 -0.26967881870E+02  0.48767630097E+03  0.50494800122E+03  0.12509139720E+03 0.  0.
          5    1    3    3  502    0  0.55068231052E+02  0.27082428669E+02  0.33578520538E+03  0.34137244260E+03  0.41800000000E+01 0.  1.
         -5    1    3    3    0  502 -0.27334044516E+02 -0.54050310539E+02  0.15189109559E+03  0.16357555862E+03  0.41800000000E+01 0.  1.
        -11    1    1    2    0    0  0.77849790688E+01  0.39688090691E+02  0.49016254583E+02  0.63547963423E+02  0.00000000000E+00 0.  1.
         11    1    1    2    0    0 -0.35519165605E+02 -0.12720208821E+02  0.22020699099E+03  0.22341560759E+03  0.00000000000E+00 0. -1.
</event>
<event>
 7    1  0.2394257E-009  0.1717239E+03  0.7561462E-02  0.1176062E+00
          2   -1    0    0  501    0  0.00000000000E+00  0.00000000000E+00  0.61865019743E+03  0.61865019743E+03  0.00000000000E+00 0. -1.
         -2   -1    0    0    0  501 -0.00000000000E+00 -0.00000000000E+00 -0.54589788056E+02  0.54589788056E+02  0.00000000000E+00 0.  1.
         25    2    1    2    0    0  0.53215673504E+02 -0.13407555021E+03  0.23817560018E+03  0.30525909736E+03  0.12508932380E+03 0.  0.
          5    1    3    3  502    0  0.15695915926E+02 -0.13396743476E+03  0.22994660815E+03  0.26662061127E+03  0.41800000000E+01 0.  1.
         -5    1    3    3    0  502  0.37519757578E+02 -0.10811544775E+00  0.82289920341E+01  0.38638486093E+02  0.41800000000E+01 0.  1.
        -11    1    1    2    0    0 -0.38634456065E+02  0.28775796298E+01  0.67452629571E+02  0.77786624146E+02  0.00000000000E+00 0. -1.
         11    1    1    2    0    0 -0.14581217439E+02  0.13119797058E+03  0.25843217961E+03  0.29019426398E+03  0.00000000000E+00 0.  1.
</event>
<event>
 7    1  0.2394257E-009  0.1125566E+03  0.7561462E-02  0.1255907E+00
         -2   -1    0    0    0  501 -0.00000000000E+00  0.00000000000E+00  0.35617062555E+02  0.35617062555E+02  0.00000000000E+00 0.  1.
          2   -1    0    0  501    0  0.00000000000E+00 -0.00000000000E+00 -0.39197654597E+03  0.39197654597E+03  0.00000000000E+00 0. -1.
         25    2    1    2    0    0 -0.11861610010E+02  0.40244322795E+02 -0.16339936954E+03  0.21001807478E+03  0.12509170420E+03 0.  0.
          5    1    3    3  502    0 -0.45480010835E+02  0.67291797709E+02 -0.71015257076E+02  0.10796877587E+03  0.41800000000E+01 0. -1.
         -5    1    3    3    0  502  0.33618400825E+02 -0.27047474913E+02 -0.92384112459E+02  0.10204929891E+03  0.41800000000E+01 0. -1.
        -11    1    1    2    0    0  0.13068975208E+02  0.28671551281E+02 -0.64875107033E+02  0.72122364620E+02  0.00000000000E+00 0.  1.
         11    1    1    2    0    0 -0.12073651980E+01 -0.68915874076E+02 -0.12808500685E+03  0.14545316913E+03  0.00000000000E+00 0. -1.
</event>
<event>
 7    1  0.2394257E-009  0.9241569E+02  0.7561462E-02  0.1297105E+00
         -1   -1    0    0    0  501 -0.00000000000E+00  0.00000000000E+00  0.33256552770E+02  0.33256552770E+02  0.00000000000E+00 0.  1.
          1   -1    0    0  501    0  0.00000000000E+00 -0.00000000000E+00 -0.38321037525E+03  0.38321037525E+03  0.00000000000E+00 0. -1.
         25    2    1    2    0    0 -0.14348591731E+02  0.29147935505E+02 -0.17321062960E+03  0.21611309898E+03  0.12508982819E+03 0.  0.
          5    1    3    3  502    0 -0.67506912964E+02  0.33250948453E+02 -0.92937473719E+02  0.11965640514E+03  0.41800000000E+01 0.  1.
         -5    1    3    3    0  502  0.53158321233E+02 -0.41030129481E+01 -0.80273155880E+02  0.96456693839E+02  0.41800000000E+01 0.  1.
        -11    1    1    2    0    0 -0.25847632007E+01 -0.37160528514E+02 -0.17773269345E+03  0.18159431765E+03  0.00000000000E+00 0. -1.
         11    1    1    2    0    0  0.16933354932E+02  0.80125930096E+01  0.98950057444E+00  0.18759511384E+02  0.00000000000E+00 0.  1.
</event>
<event>
 7    1  0.2394257E-009  0.2174930E+03  0.7561462E-02  0.1135766E+00
         -1   -1    0    0    0  501 -0.00000000000E+00  0.00000000000E+00  0.90077572331E+03  0.90077572331E+03  0.00000000000E+00 0.  1.
          1   -1    0    0  501    0  0.00000000000E+00 -0.00000000000E+00 -0.57489797210E+02  0.57489797210E+02  0.00000000000E+00 0. -1.
         25    2    1    2    0    0  0.60889652900E+02 -0.17721281927E+03  0.29562577793E+03  0.37169132731E+03  0.12509160273E+03 0.  0.
          5    1    3    3  502    0 -0.12470006535E+01 -0.16031743840E+03  0.22053473327E+03  0.27268347409E+03  0.41800000000E+01 0.  1.
         -5    1    3    3    0  502  0.62136653553E+02 -0.16895380870E+02  0.75091044668E+02  0.99007853218E+02  0.41800000000E+01 0.  1.
        -11    1    1    2    0    0 -0.30016743499E+02  0.17667146476E+03  0.46903845172E+03  0.50210644344E+03  0.00000000000E+00 0.  1.
         11    1    1    2    0    0 -0.30872909400E+02  0.54135451708E+00  0.78621696447E+02  0.84467749773E+02  0.00000000000E+00 0. -1.
</event>
<event>
 7    1  0.2394257E-009  0.1039337E+03  0.7561462E-02  0.1272235E+00
         -2   -1    0    0    0  501 -0.00000000000E+00  0.00000000000E+00  0.52773333684E+02  0.52773333684E+02  0.00000000000E+00 0.  1.
          2   -1    0    0  501    0  0.00000000000E+00 -0.00000000000E+00 -0.23007767115E+03  0.23007767115E+03  0.00000000000E+00 0. -1.
         25    2    1    2    0    0  0.12632351813E+02  0.25024993276E+02 -0.82800038645E+02  0.15261155001E+03  0.12509441313E+03 0.  0.
          5    1    3    3  502    0  0.54211768374E+02 -0.27588429149E+02 -0.37598363041E+02  0.71632021865E+02  0.41800000000E+01 0. -1.
         -5    1    3    3    0  502 -0.41579416561E+02  0.52613422425E+02 -0.45201675604E+02  0.80979528143E+02  0.41800000000E+01 0. -1.
        -11    1    1    2    0    0  0.22741731040E+02  0.14259245260E+02 -0.63534265647E+02  0.68971844382E+02  0.00000000000E+00 0. -1.
         11    1    1    2    0    0 -0.35374082853E+02 -0.39284238536E+02 -0.30970033178E+02  0.61267610449E+02  0.00000000000E+00 0.  1.
</event>
<event>
 7    1  0.2394257E-009  0.1224137E+03  0.7561462E-02  0.1239168E+00
         -2   -1    0    0    0  501 -0.00000000000E+00  0.00000000000E+00  0.23836535598E+02  0.23836535598E+02  0.00000000000E+00 0.  1.
          2   -1    0    0  501    0  0.00000000000E+00 -0.00000000000E+00 -0.75028565145E+03  0.75028565145E+03  0.00000000000E+00 0. -1.
         25    2    1    2    0    0  0.40536570769E+02 -0.46498195010E+02 -0.28806035385E+03  0.32005153915E+03  0.12509566157E+03 0.  0.
          5    1    3    3  502    0  0.78894382284E+02 -0.44790896384E+02 -0.24932693120E+03  0.26535248063E+03  0.41800000000E+01 0.  1.
         -5    1    3    3    0  502 -0.38357811515E+02 -0.17072986261E+01 -0.38733422649E+02  0.54699058520E+02  0.41800000000E+01 0.  1.
        -11    1    1    2    0    0 -0.38117171330E+02  0.76403071649E+02 -0.27500601737E+03  0.28795599959E+03  0.00000000000E+00 0.  1.
         11    1    1    2    0    0 -0.24193994389E+01 -0.29904876638E+02 -0.16338274464E+03  0.16611464832E+03  0.00000000000E+00 0. -1.
</event>
<event>
 7    1  0.2394257E-009  0.1590066E+03  0.7561462E-02  0.1189823E+00
         -2   -1    0    0    0  501 -0.00000000000E+00  0.00000000000E+00  0.78927140842E+02  0.78927140842E+02  0.00000000000E+00 0.  1.
          2   -1    0    0  501    0  0.00000000000E+00 -0.00000000000E+00 -0.40103876317E+03  0.40103876317E+03  0.00000000000E+00 0. -1.
         25    2    1    2    0    0 -0.90546107371E+02  0.10414340340E+03 -0.13406263987E+03  0.22948857947E+03  0.12509104950E+03 0.  0.
          5    1    3    3  502    0  0.23236072376E+02  0.47027646334E+02 -0.68038582722E+02  0.86012997378E+02  0.41800000000E+01 0. -1.
         -5    1    3    3    0  502 -0.11378217975E+03  0.57115757070E+02 -0.66024057143E+02  0.14347558209E+03  0.41800000000E+01 0. -1.
        -11    1    1    2    0    0  0.66325498893E+02 -0.75230000303E+02 -0.59734182863E+02  0.11673387405E+03  0.00000000000E+00 0.  1.
         11    1    1    2    0    0  0.24220608478E+02 -0.28913403100E+02 -0.12831479960E+03  0.13374345050E+03  0.00000000000E+00 0. -1.
</event>
<event>
 7    1  0.2394257E-009  0.7365089E+02  0.7561462E-02  0.1348100E+00
         -1   -1    0    0    0  501 -0.00000000000E+00  0.00000000000E+00  0.41367805737E+02  0.41367805737E+02  0.00000000000E+00 0.  1.
          1   -1    0    0  501    0  0.00000000000E+00 -0.00000000000E+00 -0.34783502816E+03  0.34783502816E+03  0.00000000000E+00 0. -1.
         25    2    1    2    0    0  0.23641843739E+02  0.63082479644E+02 -0.19544629087E+03  0.24162923072E+03  0.12508835482E+03 0.  0.
          5    1    3    3  502    0  0.24621249513E+02  0.62165894035E+02 -0.25589009156E+02  0.71715229194E+02  0.41800000000E+01 0.  1.
         -5    1    3    3    0  502 -0.97940577362E+00  0.91658560907E+00 -0.16985728171E+03  0.16991400153E+03  0.41800000000E+01 0.  1.
        -11    1    1    2    0    0 -0.32650816195E+02 -0.43768634124E+02 -0.11366247048E+03  0.12609887520E+03  0.00000000000E+00 0. -1.
         11    1    1    2    0    0  0.90089724561E+01 -0.19313845520E+02  0.26415389288E+01  0.21474727970E+02  0.00000000000E+00 0.  1.
</event>
<event>
 7    1  0.2394257E-009  0.3054864E+03  0.7561462E-02  0.1082530E+00
          2   -1    0    0  501    0  0.00000000000E+00  0.00000000000E+00  0.18567622473E+04  0.18567622473E+04  0.00000000000E+00 0. -1.
         -2   -1    0    0    0  501 -0.00000000000E+00 -0.00000000000E+00 -0.55405609975E+02  0.55405609975E+02  0.00000000000E+00 0.  1.
         25    2    1    2    0    0  0.28160767884E+03  0.77629144453E+02  0.11356289043E+04  0.11792497671E+04  0.12509131030E+03 0.  0.
          5    1    3    3  502    0  0.17304266332E+03  0.89971404387E+02  0.87738614959E+03  0.89881174048E+03  0.41800000000E+01 0.  1.
         -5    1    3    3    0  502  0.10856501552E+03 -0.12342259934E+02  0.25824275474E+03  0.28043802657E+03  0.41800000000E+01 0.  1.
        -11    1    1    2    0    0 -0.92056714244E+02 -0.72076636900E+02  0.25178937854E+03  0.27761010675E+03  0.00000000000E+00 0. -1.
         11    1    1    2    0    0 -0.18955096459E+03 -0.55525075531E+01  0.41393835446E+03  0.45530798347E+03  0.00000000000E+00 0.  1.
</event>
<event>
 7    1  0.2394257E-009  0.1406909E+03  0.7561462E-02  0.1212402E+00
         -2   -1    0    0    0  501 -0.00000000000E+00  0.00000000000E+00  0.15325435908E+02  0.15325435908E+02  0.00000000000E+00 0.  1.
          2   -1    0    0  501    0  0.00000000000E+00 -0.00000000000E+00 -0.15420538188E+04  0.15420538188E+04  0.00000000000E+00 0. -1.
         25    2    1    2    0    0  0.76499318701E+02 -0.70750195083E+02 -0.96293711960E+03  0.97660278436E+03  0.12508943301E+03 0.  0.
          5    1    3    3  502    0  0.30064088627E+02  0.24310327789E+02 -0.50891478924E+03  0.51039844883E+03  0.41800000000E+01 0.  1.
         -5    1    3    3    0  502  0.46435230074E+02 -0.95060522872E+02 -0.45402233036E+03  0.46620433553E+03  0.41800000000E+01 0.  1.
        -11    1    1    2    0    0  0.64370768222E+01  0.50940489612E+02 -0.15838211091E+03  0.16649703450E+03  0.00000000000E+00 0.  1.
         11    1    1    2    0    0 -0.82936395523E+02  0.19809705471E+02 -0.40540915233E+03  0.41427943580E+03  0.00000000000E+00 0. -1.
</event>
<event>
 7    1  0.2394257E-009  0.1070007E+03  0.7561462E-02  0.1266227E+00
         -2   -1    0    0    0  501 -0.00000000000E+00  0.00000000000E+00  0.12038890964E+03  0.12038890964E+03  0.00000000000E+00 0.  1.
          2   -1    0    0  501    0  0.00000000000E+00 -0.00000000000E+00 -0.11924229521E+03  0.11924229521E+03  0.00000000000E+00 0. -1.
         25    2    1    2    0    0  0.45686627515E+02 -0.19204777561E+02  0.29673559583E+01  0.13458019269E+03  0.12508769583E+03 0.  0.
          5    1    3    3  502    0 -0.39751306341E+02 -0.27348198913E+02 -0.23586678345E+01  0.48488411539E+02  0.41800000000E+01 0.  1.
         -5    1    3    3    0  502  0.85437933856E+02  0.81434213518E+01  0.53260237927E+01  0.86091781154E+02  0.41800000000E+01 0.  1.
        -11    1    1    2    0    0 -0.40811176860E+02 -0.16196794289E+02  0.33176578626E+02  0.55032478331E+02  0.00000000000E+00 0.  1.
         11    1    1    2    0    0 -0.48754506549E+01  0.35401571851E+02 -0.34997320153E+02  0.50018533830E+02  0.00000000000E+00 0. -1.
</event>
<event>
 7    1  0.2394257E-009  0.1415043E+03  0.7561462E-02  0.1211319E+00
          1   -1    0    0  501    0  0.00000000000E+00  0.00000000000E+00  0.79803557899E+03  0.79803557899E+03  0.00000000000E+00 0. -1.
         -1   -1    0    0    0  501 -0.00000000000E+00 -0.00000000000E+00 -0.41424931598E+02  0.41424931598E+02  0.00000000000E+00 0.  1.
         25    2    1    2    0    0 -0.11018329450E+03  0.11718811460E+02  0.18191085191E+03  0.24701787441E+03  0.12509429767E+03 0.  0.
          5    1    3    3  502    0  0.20393294820E+02 -0.80838337410E+01  0.71239643575E+02  0.74657846596E+02  0.41800000000E+01 0.  1.
         -5    1    3    3    0  502 -0.13057658932E+03  0.19802645201E+02  0.11067120834E+03  0.17236002782E+03  0.41800000000E+01 0.  1.
        -11    1    1    2    0    0  0.77571161441E+00  0.15724945565E+02  0.15914410025E+02  0.22386247742E+02  0.00000000000E+00 0.  1.
         11    1    1    2    0    0  0.10940758288E+03 -0.27443757025E+02  0.55878538545E+03  0.57005638843E+03  0.00000000000E+00 0. -1.
</event>
<event>
 7    1  0.2394257E-009  0.1497764E+03  0.7561462E-02  0.1200748E+00
         -2   -1    0    0    0  501 -0.00000000000E+00  0.00000000000E+00  0.51234291351E+02  0.51234291351E+02  0.00000000000E+00 0.  1.
          2   -1    0    0  501    0  0.00000000000E+00 -0.00000000000E+00 -0.62730458092E+03  0.62730458092E+03  0.00000000000E+00 0. -1.
         25    2    1    2    0    0 -0.52465947036E+02  0.11538876880E+03 -0.43046747099E+03  0.46584979192E+03  0.12508613626E+03 0.  0.
          5    1    3    3  502    0 -0.53645175219E+02  0.13530953449E+03 -0.41627204538E+03  0.44100608059E+03  0.41800000000E+01 0. -1.
         -5    1    3    3    0  502  0.11792281829E+01 -0.19920765684E+02 -0.14195425611E+02  0.24843711334E+02  0.41800000000E+01 0. -1.
        -11    1    1    2    0    0  0.39173329290E+02 -0.36483794830E+02 -0.11531030414E+03  0.12713018231E+03  0.00000000000E+00 0. -1.
         11    1    1    2    0    0  0.13292617746E+02 -0.78904973972E+02 -0.30292514439E+02  0.85558898047E+02  0.00000000000E+00 0.  1.
</event>
<event>
 7    1  0.2394257E-009  0.8717596E+02  0.7561462E-02  0.1309838E+00
         -1   -1    0    0    0  501 -0.00000000000E+00  0.00000000000E+00  0.63380605998E+02  0.63380605998E+02  0.00000000000E+00 0.  1.
          1   -1    0    0  501    0  0.00000000000E+00 -0.00000000000E+00 -0.16549122840E+03  0.16549122840E+03  0.00000000000E+00 0. -1.
         25    2    1    2    0    0 -0.10705823538E+02 -0.17186626648E+02 -0.51083064519E+02  0.13663252033E+03  0.12509584860E+03 0.  0.
          5    1    3    3  502    0 -0.34807774269E+02  0.29826261455E+02 -0.67009207195E+02  0.81295099919E+02  0.41800000000E+01 0. -1.
         -5    1    3    3    0  502  0.24101950731E+02 -0.47012888104E+02  0.15926142676E+02  0.55337420408E+02  0.41800000000E+01 0. -1.
        -11    1    1    2    0    0  0.12551730554E+02  0.45374547565E+02 -0.22815462991E+02  0.52315780202E+02  0.00000000000E+00 0. -1.
         11    1    1    2    0    0 -0.18459070153E+01 -0.28187920917E+02 -0.28212094889E+02  0.39923533866E+02  0.00000000000E+00 0.  1.
</event>
<event>
 7    1  0.2394257E-009  0.1433231E+03  0.7561462E-02  0.1208926E+00
          2   -1    0    0  501    0  0.00000000000E+00  0.00000000000E+00  0.16941993180E+04  0.16941993180E+04  0.00000000000E+00 0. -1.
         -2   -1    0    0    0  501 -0.00000000000E+00 -0.00000000000E+00 -0.14674445725E+02  0.14674445725E+02  0.00000000000E+00 0.  1.
         25    2    1    2    0    0 -0.83093490587E+00  0.93379737528E+02  0.12477903215E+04  0.12575166803E+04  0.12508816438E+03 0.  0.
          5    1    3    3  502    0 -0.76951403832E+01  0.12392667033E+03  0.10237602586E+04  0.10312708540E+04  0.41800000000E+01 0. -1.
         -5    1    3    3    0  502  0.68642054774E+01 -0.30546932802E+02  0.22403006293E+03  0.22624582629E+03  0.41800000000E+01 0. -1.
        -11    1    1    2    0    0 -0.32499631128E+02 -0.88995525235E+00  0.13033080652E+03  0.13432474520E+03  0.00000000000E+00 0.  1.
         11    1    1    2    0    0  0.33330566034E+02 -0.92489782275E+02  0.30140374422E+03  0.31703233824E+03  0.00000000000E+00 0. -1.
</event>
<event>
 7    1  0.2394257E-009  0.9455872E+02  0.7561462E-02  0.1292173E+00
          1   -1    0    0  501    0  0.00000000000E+00  0.00000000000E+00  0.11196439936E+04  0.11196439936E+04  0.00000000000E+00 0. -1.
         -1   -1    0    0    0  501 -0.00000000000E+00 -0.00000000000E+00 -0.18975054189E+02  0.18975054189E+02  0.00000000000E+00 0.  1.
         25    2    1    2    0    0 -0.81508851778E+02  0.33084382592E+02  0.77308685741E+03  0.78806664470E+03  0.12508988006E+03 0.  0.
          5    1    3    3  502    0 -0.19459432774E+02  0.32822793059E+02  0.53766962023E+02  0.66063332290E+02  0.41800000000E+01 0.  1.
         -5    1    3    3    0  502 -0.62049419004E+02  0.26158953307E+00  0.71931989539E+03  0.72200331241E+03  0.41800000000E+01 0.  1.
        -11    1    1    2    0    0  0.21560591115E+02 -0.13662893936E+02  0.11059760897E+02  0.27818196761E+02  0.00000000000E+00 0.  1.
         11    1    1    2    0    0  0.59948260663E+02 -0.19421488656E+02  0.31652232107E+03  0.32273420629E+03  0.00000000000E+00 0. -1.
</event>
<event>
 7    1  0.2394257E-009  0.1272916E+03  0.7561462E-02  0.1231531E+00
          1   -1    0    0  501    0  0.00000000000E+00  0.00000000000E+00  0.11272694957E+03  0.11272694957E+03  0.00000000000E+00 0. -1.
         -1   -1    0    0    0  501 -0.00000000000E+00 -0.00000000000E+00 -0.22163857696E+03  0.22163857696E+03  0.00000000000E+00 0.  1.
         25    2    1    2    0    0  0.88845328563E+02 -0.71455279889E+02 -0.36598548677E+02  0.17316417592E+03  0.12508808346E+03 0.  0.
          5    1    3    3  502    0  0.84863798456E+02 -0.20359147565E+02 -0.69907970956E+02  0.11189707763E+03  0.41800000000E+01 0. -1.
         -5    1    3    3    0  502  0.39815301072E+01 -0.51096132324E+02  0.33309422280E+02  0.61267098292E+02  0.41800000000E+01 0. -1.
        -11    1    1    2    0    0 -0.18017323906E+02  0.25993816325E+02  0.19097864894E+02  0.36946324464E+02  0.00000000000E+00 0. -1.
         11    1    1    2    0    0 -0.70828004657E+02  0.45461463564E+02 -0.91410943602E+02  0.12425502615E+03  0.00000000000E+00 0.  1.
</event>
<event>
 7    1  0.2394257E-009  0.1996136E+03  0.7561462E-02  0.1150065E+00
         -1   -1    0    0    0  501 -0.00000000000E+00  0.00000000000E+00  0.14689102576E+03  0.14689102576E+03  0.00000000000E+00 0.  1.
          1   -1    0    0  501    0  0.00000000000E+00 -0.00000000000E+00 -0.35401016317E+03  0.35401016317E+03  0.00000000000E+00 0. -1.
         25    2    1    2    0    0  0.17723814053E+03  0.84129455767E+02 -0.14982977639E+03  0.27674276149E+03  0.12508585196E+03 0.  0.
          5    1    3    3  502    0  0.39626113853E+02  0.39882368939E+02 -0.11488101618E+03  0.12796856071E+03  0.41800000000E+01 0. -1.
         -5    1    3    3    0  502  0.13761202668E+03  0.44247086828E+02 -0.34948760211E+02  0.14877420079E+03  0.41800000000E+01 0. -1.
        -11    1    1    2    0    0 -0.14020365644E+03 -0.78780311635E+02 -0.80788496910E+02  0.17997273130E+03  0.00000000000E+00 0. -1.
         11    1    1    2    0    0 -0.37034484098E+02 -0.53491441320E+01  0.23499135893E+02  0.44185696136E+02  0.00000000000E+00 0.  1.
</event>
<event>
 7    1  0.3043593E-009  0.1553015E+03  0.7561462E-02  0.1194106E+00
          2   -1    0    0  501    0  0.00000000000E+00  0.00000000000E+00  0.71881412026E+03  0.71881412026E+03  0.00000000000E+00 0. -1.
         -2   -1    0    0    0  501 -0.00000000000E+00 -0.00000000000E+00 -0.66157873671E+02  0.66157873671E+02  0.00000000000E+00 0.  1.
         25    2    1    2    0    0 -0.11382631889E+03  0.95773283126E+02  0.12962738943E+03  0.23362360622E+03  0.12509107346E+03 0.  0.
          5    1    3    3  502    0 -0.77117369570E+02  0.57819575449E+02  0.14876136472E+03  0.17730653690E+03  0.41800000000E+01 0. -1.
         -5    1    3    3    0  502 -0.36708949320E+02  0.37953707677E+02 -0.19133975288E+02  0.56317069321E+02  0.41800000000E+01 0. -1.
        -11    1    1    2    0    0  0.82030425672E+02 -0.28655476765E+02  0.17380860326E+03  0.19431818662E+03  0.00000000000E+00 0.  1.
         11    1    1    2    0    0  0.31795893217E+02 -0.67117806362E+02  0.34922025390E+03  0.35703020109E+03  0.00000000000E+00 0. -1.
</event>
<event>
 7    1  0.2394257E-009  0.1440485E+03  0.7561462E-02  0.1207983E+00
          3   -1    0    0  501    0  0.00000000000E+00  0.00000000000E+00  0.12919553066E+03  0.12919553066E+03  0.00000000000E+00 0. -1.
         -3   -1    0    0    0  501 -0.00000000000E+00 -0.00000000000E+00 -0.17381801238E+03  0.17381801238E+03  0.00000000000E+00 0.  1.
         25    2    1    2    0    0  0.88010966834E+02  0.51269719562E+02 -0.45327180575E+01  0.16137553889E+03  0.12508798740E+03 0.  0.
          5    1    3    3  502    0  0.35091089538E+02 -0.41357724084E+02 -0.48397591487E+01  0.54614481366E+02  0.41800000000E+01 0. -1.
         -5    1    3    3    0  502  0.52919877297E+02  0.92627443645E+02  0.30704109113E+00  0.10676105752E+03  0.41800000000E+01 0. -1.
        -11    1    1    2    0    0  0.13866541213E+02 -0.29308578877E+01 -0.23804621232E+02  0.27704347766E+02  0.00000000000E+00 0. -1.
         11    1    1    2    0    0 -0.10187750805E+03 -0.48338861674E+02 -0.16285142434E+02  0.11393365639E+03  0.00000000000E+00 0.  1.
</event>
<event>
 7    1  0.2394257E-009  0.9888403E+02  0.7561462E-02  0.1282660E+00
          1   -1    0    0  501    0  0.00000000000E+00  0.00000000000E+00  0.13120852358E+03  0.13120852358E+03  0.00000000000E+00 0. -1.
         -1   -1    0    0    0  501 -0.00000000000E+00 -0.00000000000E+00 -0.13819618212E+03  0.13819618212E+03  0.00000000000E+00 0.  1.
         25    2    1    2    0    0  0.27923660023E+02 -0.30508836587E+02 -0.72615028573E+02  0.15043449626E+03  0.12508827040E+03 0.  0.
          5    1    3    3  502    0 -0.13537933134E+02  0.32809199743E+02 -0.65097447904E+02  0.74262166309E+02  0.41800000000E+01 0.  1.
         -5    1    3    3    0  502  0.41461593157E+02 -0.63318036330E+02 -0.75175806690E+01  0.76172329956E+02  0.41800000000E+01 0.  1.
        -11    1    1    2    0    0  0.22516382562E+02  0.27720214274E+02  0.57667007276E+02  0.67829797959E+02  0.00000000000E+00 0. -1.
         11    1    1    2    0    0 -0.50440042586E+02  0.27886223130E+01  0.79603627549E+01  0.51140411473E+02  0.00000000000E+00 0.  1.
</event>
<event>
 7    1  0.2394257E-009  0.1186493E+03  0.7561462E-02  0.1245342E+00
         -4   -1    0    0    0  501 -0.00000000000E+00  0.00000000000E+00  0.48897748615E+02  0.48897748615E+02  0.00000000000E+00 0.  1.
          4   -1    0    0  501    0  0.00000000000E+00 -0.00000000000E+00 -0.47174903789E+03  0.47174903789E+03  0.00000000000E+00 0. -1.
         25    2    1    2    0    0 -0.31626437049E+01  0.70539483139E+02 -0.35395127472E+03  0.38198816083E+03  0.12509048381E+03 0.  0.
          5    1    3    3  502    0  0.25745024381E+02 -0.18732063737E+02 -0.27452147179E+02  0.42246766467E+02  0.41800000000E+01 0.  1.
         -5    1    3    3    0  502 -0.28907668086E+02  0.89271546876E+02 -0.32649912754E+03  0.33974139436E+03  0.41800000000E+01 0.  1.
        -11    1    1    2    0    0  0.41078328037E+02 -0.14429483531E+02 -0.53917063870E+02  0.69301434370E+02  0.00000000000E+00 0. -1.
         11    1    1    2    0    0 -0.37915684332E+02 -0.56109999608E+02 -0.14982950677E+02  0.69357191302E+02  0.00000000000E+00 0.  1.
</event>
<event>
 7    1  0.2394257E-009  0.1568204E+03  0.7561462E-02  0.1192334E+00
         -2   -1    0    0    0  501 -0.00000000000E+00  0.00000000000E+00  0.34399362631E+03  0.34399362631E+03  0.00000000000E+00 0.  1.
          2   -1    0    0  501    0  0.00000000000E+00 -0.00000000000E+00 -0.12383472667E+03  0.12383472667E+03  0.00000000000E+00 0. -1.
         25    2    1    2    0    0 -0.11277102453E+03  0.58036728284E+02 -0.21524809028E+02  0.17943188265E+03  0.12508763850E+03 0.  0.
          5    1    3    3  502    0 -0.10277287186E+03  0.94457022462E+02 -0.11433220550E+02  0.14011632030E+03  0.41800000000E+01 0.  1.
         -5    1    3    3    0  502 -0.99981526645E+01 -0.36420294178E+02 -0.10091588478E+02  0.39315562348E+02  0.41800000000E+01 0.  1.
        -11    1    1    2    0    0  0.40535845244E+02 -0.48377476748E+02  0.18676841777E+03  0.19714455834E+03  0.00000000000E+00 0.  1.
         11    1    1    2    0    0  0.72235179283E+02 -0.96592515365E+01  0.54915290903E+02  0.91251911987E+02  0.00000000000E+00 0. -1.
</event>
<event>
 7    1  0.2394257E-009  0.1326361E+03  0.7561462E-02  0.1223596E+00
         -1   -1    0    0    0  501 -0.00000000000E+00  0.00000000000E+00  0.18095304834E+03  0.18095304834E+03  0.00000000000E+00 0.  1.
          1   -1    0    0  501    0  0.00000000000E+00 -0.00000000000E+00 -0.14008745868E+03  0.14008745868E+03  0.00000000000E+00 0. -1.
         25    2    1    2    0    0 -0.94361431437E+02  0.30902511019E+02  0.72804335069E+02  0.17551895411E+03  0.12508951642E+03 0.  0.
          5    1    3    3  502    0 -0.95709089157E+02  0.63602981954E+02  0.82039301995E+02  0.14125681765E+03  0.41800000000E+01 0.  1.
         -5    1    3    3    0  502  0.13476577195E+01 -0.32700470935E+02 -0.92349669260E+01  0.34262136461E+02  0.41800000000E+01 0.  1.
        -11    1    1    2    0    0 -0.57561208474E+01 -0.14803255146E+02 -0.40749826345E+02  0.43735770684E+02  0.00000000000E+00 0. -1.
         11    1    1    2    0    0  0.10011755228E+03 -0.16099255873E+02  0.88110809359E+01  0.10178578222E+03  0.00000000000E+00 0.  1.
</event>
<event>
 7    1  0.2394257E-009  0.1021538E+03  0.7561462E-02  0.1275831E+00
          2   -1    0    0  501    0  0.00000000000E+00  0.00000000000E+00  0.12307960701E+04  0.12307960701E+04  0.00000000000E+00 0. -1.
         -2   -1    0    0    0  501 -0.00000000000E+00 -0.00000000000E+00 -0.12360209092E+02  0.12360209092E+02  0.00000000000E+00 0.  1.
         25    2    1    2    0    0 -0.27129324884E+02  0.21749106482E+02  0.92003176293E+03  0.92914728682E+03  0.12508881606E+03 0.  0.
          5    1    3    3  502    0  0.33979674774E+02  0.30010027837E+02  0.15301156195E+03  0.15964094261E+03  0.41800000000E+01 0. -1.
         -5    1    3    3    0  502 -0.61108999658E+02 -0.82609213558E+01  0.76702020099E+03  0.76950634421E+03  0.41800000000E+01 0. -1.
        -11    1    1    2    0    0 -0.28088842751E+02  0.13806991410E+02  0.78582494715E+02  0.84586196122E+02  0.00000000000E+00 0. -1.
         11    1    1    2    0    0  0.55218167635E+02 -0.35556097892E+02  0.21982160340E+03  0.22942279629E+03  0.00000000000E+00 0.  1.
</event>
<event>
 7    1  0.2394257E-009  0.1037815E+03  0.7561462E-02  0.1272539E+00
          1   -1    0    0  501    0  0.00000000000E+00  0.00000000000E+00  0.56959082472E+02  0.56959082472E+02  0.00000000000E+00 0. -1.
         -1   -1    0    0    0  501 -0.00000000000E+00 -0.00000000000E+00 -0.23670284300E+03  0.23670284300E+03  0.00000000000E+00 0.  1.
         25    2    1    2    0    0  0.29251108976E+00 -0.34501917159E+01 -0.15468908740E+03  0.19896800722E+03  0.12509022644E+03 0.  0.
          5    1    3    3  502    0  0.59908054012E+02  0.57099902142E+01 -0.51250646693E+02  0.79156049107E+02  0.41800000000E+01 0.  1.
         -5    1    3    3    0  502 -0.59615542922E+02 -0.91601819301E+01 -0.10343844071E+03  0.11981195811E+03  0.41800000000E+01 0.  1.
        -11    1    1    2    0    0  0.41031883938E+02  0.15295368067E+02 -0.27375424911E+02  0.51642789166E+02  0.00000000000E+00 0.  1.
         11    1    1    2    0    0 -0.41324395028E+02 -0.11845176351E+02  0.23207517800E+01  0.43051129091E+02  0.00000000000E+00 0. -1.
</event>
<event>
 7    1  0.2394257E-009  0.8748063E+02  0.7561462E-02  0.1309070E+00
          2   -1    0    0  501    0  0.00000000000E+00  0.00000000000E+00  0.68956060854E+03  0.68956060854E+03  0.00000000000E+00 0. -1.
         -2   -1    0    0    0  501 -0.00000000000E+00 -0.00000000000E+00 -0.19242749262E+02  0.19242749262E+02  0.00000000000E+00 0.  1.
         25    2    1    2    0    0 -0.17267867397E+02 -0.34217180411E+02  0.34688957748E+03  0.37074139348E+03  0.12509119550E+03 0.  0.
          5    1    3    3  502    0 -0.44448065453E+02 -0.34608965182E+02  0.33670995395E+03  0.34141540164E+03  0.41800000000E+01 0.  1.
         -5    1    3    3    0  502  0.27180198056E+02  0.39178477121E+00  0.10179623536E+02  0.29325991833E+02  0.41800000000E+01 0.  1.
        -11    1    1    2    0    0 -0.15400942169E+02  0.51681131334E+02  0.12394553958E+03  0.13516887637E+03  0.00000000000E+00 0.  1.
         11    1    1    2    0    0  0.32668809566E+02 -0.17463950923E+02  0.19948274222E+03  0.20289308796E+03  0.00000000000E+00 0. -1.
</event>
<event>
 7    1  0.2394257E-009  0.8980899E+02  0.7561462E-02  0.1303315E+00
         -2   -1    0    0    0  501 -0.00000000000E+00  0.00000000000E+00  0.18697523140E+03  0.18697523140E+03  0.00000000000E+00 0. -1.
          2   -1    0    0  501    0  0.00000000000E+00 -0.00000000000E+00 -0.75298970142E+02  0.75298970142E+02  0.00000000000E+00 0.  1.
         25    2    1    2    0    0  0.18697416531E+02 -0.42270479795E+02  0.80876410061E+02  0.15596493359E+03  0.12509068693E+03 0.  0.
          5    1    3    3  502    0 -0.42916146528E+02 -0.19372091859E+02  0.76537317567E+02  0.89958362347E+02  0.41800000000E+01 0.  1.
         -5    1    3    3    0  502  0.61613563059E+02 -0.22898387936E+02  0.43390924931E+01  0.66006571238E+02  0.41800000000E+01 0.  1.
        -11    1    1    2    0    0 -0.22526411842E+02 -0.14710601618E+01 -0.26054226677E+02  0.34473554737E+02  0.00000000000E+00 0.  1.
         11    1    1    2    0    0  0.38289953106E+01  0.43741539957E+02  0.56854077874E+02  0.71835713219E+02  0.00000000000E+00 0. -1.
</event>
<event>
 7    1  0.2394257E-009  0.9626475E+02  0.7561462E-02  0.1288353E+00
          2   -1    0    0  501    0  0.00000000000E+00  0.00000000000E+00  0.13383871091E+03  0.13383871091E+03  0.00000000000E+00 0. -1.
         -2   -1    0    0    0  501 -0.00000000000E+00 -0.00000000000E+00 -0.12300946883E+03  0.12300946883E+03  0.00000000000E+00 0.  1.
         25    2    1    2    0    0 -0.37157877908E+02 -0.30274569842E+02  0.55147969272E+02  0.14486661767E+03  0.12509109054E+03 0.  0.
          5    1    3    3  502    0 -0.40394012030E+02 -0.76417158971E+02  0.44099326401E+02  0.97126110712E+02  0.41800000000E+01 0. -1.
         -5    1    3    3    0  502  0.32361341220E+01  0.46142589129E+02  0.11048642870E+02  0.47740506960E+02  0.41800000000E+01 0. -1.
        -11    1    1    2    0    0  0.37416620166E+02  0.92784078422E+01  0.20630032620E+02  0.43722883741E+02  0.00000000000E+00 0. -1.
         11    1    1    2    0    0 -0.25874225778E+00  0.20996162000E+02 -0.64948759814E+02  0.68258678332E+02  0.00000000000E+00 0.  1.
</event>
<event>
 7    1  0.4101282E-009  0.1173863E+03  0.7561462E-02  0.1247472E+00
          1   -1    0    0  501    0  0.00000000000E+00  0.00000000000E+00  0.61404164804E+03  0.61404164804E+03  0.00000000000E+00 0. -1.
         -1   -1    0    0    0  501 -0.00000000000E+00 -0.00000000000E+00 -0.30698661104E+02  0.30698661104E+02  0.00000000000E+00 0.  1.
         25    2    1    2    0    0  0.82401362511E+02 -0.29550696038E+01  0.35415232879E+03  0.38454056352E+03  0.12509538769E+03 0.  0.
          5    1    3    3  502    0  0.13995939318E+02 -0.36152411623E+02  0.26250429551E+03  0.26538436416E+03  0.41800000000E+01 0.  1.
         -5    1    3    3    0  502  0.68405423194E+02  0.33197342019E+02  0.91648033286E+02  0.11915619935E+03  0.41800000000E+01 0.  1.
        -11    1    1    2    0    0 -0.62205732020E+02 -0.38753708457E+02  0.10864893284E+03  0.13105721507E+03  0.00000000000E+00 0. -1.
         11    1    1    2    0    0 -0.20195630492E+02  0.41708778061E+02  0.12054172530E+03  0.12914253055E+03  0.00000000000E+00 0.  1.
</event>
<event>
 7    1  0.2394257E-009  0.1433946E+03  0.7561462E-02  0.1208833E+00
          2   -1    0    0  501    0  0.00000000000E+00  0.00000000000E+00  0.18265123009E+03  0.18265123009E+03  0.00000000000E+00 0. -1.
         -2   -1    0    0    0  501 -0.00000000000E+00 -0.00000000000E+00 -0.11492542799E+03  0.11492542799E+03  0.00000000000E+00 0.  1.
         25    2    1    2    0    0 -0.93690217778E+02  0.14916898582E+02  0.45023671258E+02  0.16333610636E+03  0.12510468375E+03 0.  0.
          5    1    3    3  502    0 -0.12266864949E+03  0.21215714714E+02  0.24277042634E+02  0.12690370884E+03  0.41800000000E+01 0. -1.
         -5    1    3    3    0  502  0.28978431716E+02 -0.62988161316E+01  0.20746628624E+02  0.36432397514E+02  0.41800000000E+01 0. -1.
        -11    1    1    2    0    0  0.11135418308E+03 -0.21535861424E+02  0.20393166288E+02  0.11523640331E+03  0.00000000000E+00 0.  1.
         11    1    1    2    0    0 -0.17663965305E+02  0.66189628421E+01  0.23089645595E+01  0.19004148409E+02  0.00000000000E+00 0. -1.
</event>
<event>
 7    1  0.2394257E-009  0.1050698E+03  0.7561462E-02  0.1269982E+00
         -2   -1    0    0    0  501 -0.00000000000E+00  0.00000000000E+00  0.62323002205E+03  0.62323002205E+03  0.00000000000E+00 0.  1.
          2   -1    0    0  501    0  0.00000000000E+00 -0.00000000000E+00 -0.20316108963E+02  0.20316108963E+02  0.00000000000E+00 0. -1.
         25    2    1    2    0    0  0.87827312513E+01 -0.34629732730E+01  0.42744483560E+03  0.44547179837E+03  0.12508759773E+03 0.  0.
          5    1    3    3  502    0  0.33298034976E+02 -0.56962470324E+02  0.20962223456E+03  0.21980090032E+03  0.41800000000E+01 0.  1.
         -5    1    3    3    0  502 -0.24515303724E+02  0.53499497051E+02  0.21782260105E+03  0.22567089805E+03  0.41800000000E+01 0.  1.
        -11    1    1    2    0    0  0.27306428710E+02 -0.26553625364E+02  0.42535443519E+02  0.57096409906E+02  0.00000000000E+00 0. -1.
         11    1    1    2    0    0 -0.36089159962E+02  0.30016598637E+02  0.13293363397E+03  0.14097792274E+03  0.00000000000E+00 0.  1.
</event>
<event>
 7    1  0.2394257E-009  0.1196885E+03  0.7561462E-02  0.1243612E+00
          1   -1    0    0  501    0  0.00000000000E+00  0.00000000000E+00  0.11983635157E+04  0.11983635157E+04  0.00000000000E+00 0. -1.
         -1   -1    0    0    0  501 -0.00000000000E+00 -0.00000000000E+00 -0.17225460223E+02  0.17225460223E+02  0.00000000000E+00 0.  1.
         25    2    1    2    0    0 -0.89279036789E+02  0.28279390526E+02  0.65169978967E+03  0.67017224744E+03  0.12509098705E+03 0.  0.
          5    1    3    3  502    0  0.52767755610E+01  0.14787849309E+02  0.40897355321E+03  0.40929618184E+03  0.41800000000E+01 0. -1.
         -5    1    3    3    0  502 -0.94555812350E+02  0.13491541217E+02  0.24272623646E+03  0.26087606559E+03  0.41800000000E+01 0. -1.
        -11    1    1    2    0    0  0.13504879285E+02  0.29361241347E+02  0.85969290750E+02  0.91843253481E+02  0.00000000000E+00 0.  1.
         11    1    1    2    0    0  0.75774157504E+02 -0.57640631873E+02  0.44346897506E+03  0.45357347500E+03  0.00000000000E+00 0. -1.
</event>
<event>
 7    1  0.2394257E-009  0.3838042E+03  0.7561462E-02  0.1049537E+00
         -1   -1    0    0    0  501 -0.00000000000E+00  0.00000000000E+00  0.27794257854E+03  0.27794257854E+03  0.00000000000E+00 0.  1.
          1   -1    0    0  501    0  0.00000000000E+00 -0.00000000000E+00 -0.10796076251E+04  0.10796076251E+04  0.00000000000E+00 0. -1.
         25    2    1    2    0    0 -0.29147283270E+03 -0.23921892289E+03  0.70018907201E+02  0.40340048813E+03  0.12508877323E+03 0.  0.
          5    1    3    3  502    0 -0.19389397131E+03 -0.12406910762E+03  0.97332016401E+02  0.24995801526E+03  0.41800000000E+01 0. -1.
         -5    1    3    3    0  502 -0.97578861391E+02 -0.11514981526E+03 -0.27313109200E+02  0.15344247287E+03  0.41800000000E+01 0. -1.
        -11    1    1    2    0    0  0.16113957232E+03  0.18469550074E+03 -0.59424928643E+03  0.64281459549E+03  0.00000000000E+00 0.  1.
         11    1    1    2    0    0  0.13033326038E+03  0.54523422150E+02 -0.27743466732E+03  0.31133512002E+03  0.00000000000E+00 0. -1.
</event>
<event>
 7    1  0.2394257E-009  0.1248182E+03  0.7561462E-02  0.1235354E+00
         -2   -1    0    0    0  501 -0.00000000000E+00  0.00000000000E+00  0.48220290898E+02  0.48220290898E+02  0.00000000000E+00 0.  1.
          2   -1    0    0  501    0  0.00000000000E+00 -0.00000000000E+00 -0.45621525022E+03  0.45621525022E+03  0.00000000000E+00 0. -1.
         25    2    1    2    0    0  0.71646317075E+02 -0.59286182174E+01 -0.10013427590E+03  0.17562404889E+03  0.12509432471E+03 0.  0.
          5    1    3    3  502    0  0.11581965195E+02 -0.59690819652E+02 -0.26847734233E+02  0.66598867122E+02  0.41800000000E+01 0. -1.
         -5    1    3    3    0  502  0.60064351880E+02  0.53762201435E+02 -0.73286541669E+02  0.10902518177E+03  0.41800000000E+01 0. -1.
        -11    1    1    2    0    0 -0.51187748221E+01  0.34996586883E+02 -0.52286910264E+02  0.63125937094E+02  0.00000000000E+00 0.  1.
         11    1    1    2    0    0 -0.66527542253E+02 -0.29067968665E+02 -0.25557377315E+03  0.26568555513E+03  0.00000000000E+00 0. -1.
</event>
<event>
 7    1  0.2394257E-009  0.7094439E+02  0.7561462E-02  0.1356911E+00
         -1   -1    0    0    0  501 -0.00000000000E+00  0.00000000000E+00  0.53564728000E+03  0.53564728000E+03  0.00000000000E+00 0.  1.
          1   -1    0    0  501    0  0.00000000000E+00 -0.00000000000E+00 -0.32130507290E+02  0.32130507290E+02  0.00000000000E+00 0. -1.
         25    2    1    2    0    0 -0.28896860900E+02  0.19996565450E+02  0.13775716994E+03  0.18935889523E+03  0.12507942330E+03 0.  0.
          5    1    3    3  502    0 -0.42478969528E+01  0.20424891967E+02  0.15660672272E+03  0.15804543284E+03  0.41800000000E+01 0. -1.
         -5    1    3    3    0  502 -0.24648963947E+02 -0.42832651673E+00 -0.18849552777E+02  0.31313462395E+02  0.41800000000E+01 0. -1.
        -11    1    1    2    0    0  0.21783633437E+02 -0.55383155848E+02  0.25799745294E+03  0.26477255590E+03  0.00000000000E+00 0.  1.
         11    1    1    2    0    0  0.71132274629E+01  0.35386590398E+02  0.10776214983E+03  0.11364633615E+03  0.00000000000E+00 0. -1.
</event>
<event>
 7    1  0.2394257E-009  0.1850541E+03  0.7561462E-02  0.1162999E+00
         -1   -1    0    0    0  501 -0.00000000000E+00  0.00000000000E+00  0.70763036336E+02  0.70763036336E+02  0.00000000000E+00 0.  1.
          1   -1    0    0  501    0  0.00000000000E+00 -0.00000000000E+00 -0.69901144000E+03  0.69901144000E+03  0.00000000000E+00 0. -1.
         25    2    1    2    0    0 -0.16508402304E+03  0.42116294448E+00 -0.14836203648E+03  0.25478229560E+03  0.12509920959E+03 0.  0.
          5    1    3    3  502    0 -0.16171023984E+03  0.25837079083E+02 -0.81330375439E+02  0.18289302527E+03  0.41800000000E+01 0.  1.
         -5    1    3    3    0  502 -0.33737831999E+01 -0.25415916139E+02 -0.67031661037E+02  0.71889270324E+02  0.41800000000E+01 0.  1.
        -11    1    1    2    0    0  0.10364663898E+03 -0.35514757582E+02 -0.22182461669E+03  0.24740671848E+03  0.00000000000E+00 0.  1.
         11    1    1    2    0    0  0.61437384064E+02  0.35093594638E+02 -0.25806175050E+03  0.26758546226E+03  0.00000000000E+00 0. -1.
</event>
<event>
 7    1  0.2394257E-009  0.1360742E+03  0.7561462E-02  0.1218711E+00
          2   -1    0    0  501    0  0.00000000000E+00  0.00000000000E+00  0.12942753936E+03  0.12942753936E+03  0.00000000000E+00 0.  1.
         -2   -1    0    0    0  501 -0.00000000000E+00 -0.00000000000E+00 -0.19994799577E+03  0.19994799577E+03  0.00000000000E+00 0. -1.
         25    2    1    2    0    0 -0.92292415388E+02  0.13182112341E+01 -0.11462828204E+03  0.19314839205E+03  0.12508809171E+03 0.  0.
          5    1    3    3  502    0 -0.31434648986E+02  0.59830622599E+02 -0.31821819224E+02  0.74819390109E+02  0.41800000000E+01 0.  1.
         -5    1    3    3    0  502 -0.60857766402E+02 -0.58512411365E+02 -0.82806462816E+02  0.11832900194E+03  0.41800000000E+01 0.  1.
        -11    1    1    2    0    0  0.10592152928E+03  0.17501889654E+01  0.54196900338E+02  0.11899469539E+03  0.00000000000E+00 0.  1.
         11    1    1    2    0    0 -0.13629113887E+02 -0.30684001996E+01 -0.10089074701E+02  0.17232447692E+02  0.00000000000E+00 0. -1.
</event>
<event>
 7    1  0.2394257E-009  0.9379945E+02  0.7561462E-02  0.1293903E+00
         -3   -1    0    0    0  501 -0.00000000000E+00  0.00000000000E+00  0.65075417687E+03  0.65075417687E+03  0.00000000000E+00 0.  1.
          3   -1    0    0  501    0  0.00000000000E+00 -0.00000000000E+00 -0.18678383035E+02  0.18678383035E+02  0.00000000000E+00 0. -1.
         25    2    1    2    0    0 -0.12966154797E+02  0.20366489228E+02  0.42642107112E+03  0.44504487564E+03  0.12508835430E+03 0.  0.
          5    1    3    3  502    0 -0.56145351790E+02  0.38581819112E+01  0.35765488945E+03  0.36207965760E+03  0.41800000000E+01 0. -1.
         -5    1    3    3    0  502  0.43179196993E+02  0.16508307317E+02  0.68766181669E+02  0.82965218042E+02  0.41800000000E+01 0. -1.
        -11    1    1    2    0    0  0.45955116651E+02 -0.23495613122E+02  0.15896412365E+03  0.16713320792E+03  0.00000000000E+00 0.  1.
         11    1    1    2    0    0 -0.32988961854E+02  0.31291238940E+01  0.46690599058E+02  0.57254476340E+02  0.00000000000E+00 0. -1.
</event>
<event>
 7    1  0.2394257E-009  0.1428036E+03  0.7561462E-02  0.1209605E+00
         -1   -1    0    0    0  501 -0.00000000000E+00  0.00000000000E+00  0.53156593664E+03  0.53156593664E+03  0.00000000000E+00 0.  1.
          1   -1    0    0  501    0  0.00000000000E+00 -0.00000000000E+00 -0.54357977630E+02  0.54357977630E+02  0.00000000000E+00 0. -1.
         25    2    1    2    0    0 -0.60462707521E+02 -0.11567574519E+03  0.27093936102E+03  0.32571777010E+03  0.12508921370E+03 0.  0.
          5    1    3    3  502    0 -0.25696807923E+02  0.70504948380E+01  0.14110790685E+03  0.14366262280E+03  0.41800000000E+01 0. -1.
         -5    1    3    3    0  502 -0.34765899598E+02 -0.12272624003E+03  0.12983145417E+03  0.18205514730E+03  0.41800000000E+01 0. -1.
        -11    1    1    2    0    0  0.43231668161E+02  0.70984917049E+02  0.50529571867E+02  0.97268048267E+02  0.00000000000E+00 0. -1.
         11    1    1    2    0    0  0.17231039360E+02  0.44690828144E+02  0.15573902612E+03  0.16293809590E+03  0.00000000000E+00 0.  1.
</event>
<event>
 7    1  0.2394257E-009  0.1530517E+03  0.7561462E-02  0.1196772E+00
         -2   -1    0    0    0  501 -0.00000000000E+00  0.00000000000E+00  0.35835683618E+02  0.35835683618E+02  0.00000000000E+00 0.  1.
          2   -1    0    0  501    0  0.00000000000E+00 -0.00000000000E+00 -0.87558731267E+03  0.87558731267E+03  0.00000000000E+00 0. -1.
         25    2    1    2    0    0 -0.11713981687E+03 -0.20251847815E+02 -0.62327141770E+03  0.64671999451E+03  0.12509043586E+03 0.  0.
          5    1    3    3  502    0  0.18550713209E+02 -0.30681826752E+02 -0.14719997427E+03  0.15156123607E+03  0.41800000000E+01 0. -1.
         -5    1    3    3    0  502 -0.13569053007E+03  0.10429978936E+02 -0.47607144342E+03  0.49515875844E+03  0.41800000000E+01 0. -1.
        -11    1    1    2    0    0  0.97437480261E+02  0.40573094121E+02 -0.10201406892E+03  0.14678933471E+03  0.00000000000E+00 0.  1.
         11    1    1    2    0    0  0.19702336605E+02 -0.20321246306E+02 -0.11446614243E+03  0.11791366707E+03  0.00000000000E+00 0. -1.
</event>
<event>
 7    1  0.2394257E-009  0.1305075E+03  0.7561462E-02  0.1226705E+00
         -2   -1    0    0    0  501 -0.00000000000E+00  0.00000000000E+00  0.22949488348E+03  0.22949488348E+03  0.00000000000E+00 0. -1.
          2   -1    0    0  501    0  0.00000000000E+00 -0.00000000000E+00 -0.12971031612E+03  0.12971031612E+03  0.00000000000E+00 0.  1.
         25    2    1    2    0    0 -0.99843473460E+02 -0.19712481116E+02  0.13592629045E+03  0.21090747970E+03  0.12509479387E+03 0.  0.
          5    1    3    3  502    0  0.17722663855E+02 -0.37858567756E+01  0.75389562708E+02  0.77649752678E+02  0.41800000000E+01 0. -1.
         -5    1    3    3    0  502 -0.11756613731E+03 -0.15926624340E+02  0.60536727744E+02  0.13325772703E+03  0.41800000000E+01 0. -1.
        -11    1    1    2    0    0  0.76243047556E+02  0.45466842876E+02  0.11187858191E+02  0.89472924802E+02  0.00000000000E+00 0. -1.
         11    1    1    2    0    0  0.23600425903E+02 -0.25754361760E+02 -0.47329581286E+02  0.58824795088E+02  0.00000000000E+00 0.  1.
</event>
<event>
 7    1  0.2394257E-009  0.1451239E+03  0.7561462E-02  0.1206596E+00
         -1   -1    0    0    0  501 -0.00000000000E+00  0.00000000000E+00  0.34846825522E+03  0.34846825522E+03  0.00000000000E+00 0. -1.
          1   -1    0    0  501    0  0.00000000000E+00 -0.00000000000E+00 -0.10250765046E+03  0.10250765046E+03  0.00000000000E+00 0.  1.
         25    2    1    2    0    0 -0.82457580292E+02 -0.90639210895E+02  0.16748121812E+02  0.17590401746E+03  0.12508798773E+03 0.  0.
          5    1    3    3  502    0 -0.78657612518E+02 -0.20114105515E+01 -0.17512396839E+02  0.80716926493E+02  0.41800000000E+01 0. -1.
         -5    1    3    3    0  502 -0.37999677743E+01 -0.88627800344E+02  0.34260518650E+02  0.95187090968E+02  0.41800000000E+01 0. -1.
        -11    1    1    2    0    0  0.44407204925E+02  0.44933156364E+02  0.35563705081E+02  0.72496658608E+02  0.00000000000E+00 0.  1.
         11    1    1    2    0    0  0.38050375367E+02  0.45706054531E+02  0.19364877787E+03  0.20257522962E+03  0.00000000000E+00 0. -1.
</event>
<event>
 7    1  0.2394257E-009  0.3497866E+03  0.7561462E-02  0.1062703E+00
         -2   -1    0    0    0  501 -0.00000000000E+00  0.00000000000E+00  0.28090793343E+03  0.28090793343E+03  0.00000000000E+00 0.  1.
          2   -1    0    0  501    0  0.00000000000E+00 -0.00000000000E+00 -0.44122626065E+03  0.44122626065E+03  0.00000000000E+00 0. -1.
         25    2    1    2    0    0  0.16798232989E+03  0.26022969543E+03 -0.81541963349E+02  0.34385219187E+03  0.12509068921E+03 0.  0.
          5    1    3    3  502    0  0.17560222186E+03  0.17602062398E+03 -0.70555563239E+02  0.25848589960E+03  0.41800000000E+01 0. -1.
         -5    1    3    3    0  502 -0.76198919684E+01  0.84209071453E+02 -0.10986400110E+02  0.85366292270E+02  0.41800000000E+01 0. -1.
        -11    1    1    2    0    0 -0.19792836562E+03 -0.14023748281E+03 -0.77327009460E+02  0.25460097386E+03  0.00000000000E+00 0. -1.
         11    1    1    2    0    0  0.29946035730E+02 -0.11999221262E+03 -0.14493544148E+01  0.12368102835E+03  0.00000000000E+00 0.  1.
</event>
<event>
 7    1  0.2394257E-009  0.1384273E+03  0.7561462E-02  0.1215461E+00
          1   -1    0    0  501    0  0.00000000000E+00  0.00000000000E+00  0.39542301294E+03  0.39542301294E+03  0.00000000000E+00 0. -1.
         -1   -1    0    0    0  501 -0.00000000000E+00 -0.00000000000E+00 -0.81286751785E+02  0.81286751785E+02  0.00000000000E+00 0.  1.
         25    2    1    2    0    0  0.13319327657E+03  0.33551750181E+02  0.12356293855E+03  0.22311791902E+03  0.12509051579E+03 0.  0.
          5    1    3    3  502    0  0.44924648060E+02  0.20824544719E+02  0.12426847703E+03  0.13383576670E+03  0.41800000000E+01 0.  1.
         -5    1    3    3    0  502  0.88268628512E+02  0.12727205463E+02 -0.70553847827E+00  0.89282152319E+02  0.41800000000E+01 0.  1.
        -11    1    1    2    0    0 -0.71610931394E+02 -0.24227908496E+02  0.17312312136E+03  0.18890932268E+03  0.00000000000E+00 0. -1.
         11    1    1    2    0    0 -0.61582345177E+02 -0.93238416850E+01  0.17450201244E+02  0.64682523024E+02  0.00000000000E+00 0.  1.
</event>
<event>
 7    1  0.2394257E-009  0.9062112E+02  0.7561462E-02  0.1301355E+00
         -1   -1    0    0    0  501 -0.00000000000E+00  0.00000000000E+00  0.20053053298E+02  0.20053053298E+02  0.00000000000E+00 0.  1.
          1   -1    0    0  501    0  0.00000000000E+00 -0.00000000000E+00 -0.13693520659E+04  0.13693520659E+04  0.00000000000E+00 0. -1.
         25    2    1    2    0    0  0.61362685185E+01  0.43709076831E+02 -0.12262795303E+04  0.12334329037E+04  0.12508838636E+03 0.  0.
          5    1    3    3  502    0  0.18167773764E+02  0.75692209084E+02 -0.47410920742E+03  0.48047517259E+03  0.41800000000E+01 0.  1.
         -5    1    3    3    0  502 -0.12031505246E+02 -0.31983132253E+02 -0.75217032287E+03  0.75295773114E+03  0.41800000000E+01 0.  1.
        -11    1    1    2    0    0  0.23192340390E+02 -0.24860525829E+02 -0.68473357100E+01  0.34681643611E+02  0.00000000000E+00 0.  1.
         11    1    1    2    0    0 -0.29328608908E+02 -0.18848551003E+02 -0.11617214658E+03  0.12129057184E+03  0.00000000000E+00 0. -1.
</event>
<event>
 7    1  0.2394257E-009  0.1271999E+03  0.7561462E-02  0.1231671E+00
          2   -1    0    0  501    0  0.00000000000E+00  0.00000000000E+00  0.37448684083E+03  0.37448684083E+03  0.00000000000E+00 0. -1.
         -2   -1    0    0    0  501 -0.00000000000E+00 -0.00000000000E+00 -0.59472352397E+02  0.59472352397E+02  0.00000000000E+00 0.  1.
         25    2    1    2    0    0  0.81171296665E+02  0.55833244633E+02  0.21469246047E+03  0.26729480041E+03  0.12509007608E+03 0.  0.
          5    1    3    3  502    0  0.57630566705E+02 -0.25463901093E+02  0.14290901812E+03  0.15623748698E+03  0.41800000000E+01 0.  1.
         -5    1    3    3    0  502  0.23540729960E+02  0.81297145726E+02  0.71783442350E+02  0.11105731343E+03  0.41800000000E+01 0.  1.
        -11    1    1    2    0    0 -0.35371341325E+02 -0.14291681159E+01 -0.87414118579E+01  0.36463496676E+02  0.00000000000E+00 0.  1.
         11    1    1    2    0    0 -0.45799955340E+02 -0.54404076517E+02  0.10906343982E+03  0.13020089614E+03  0.00000000000E+00 0. -1.
</event>
<event>
 7    1  0.2394257E-009  0.1247345E+03  0.7561462E-02  0.1235485E+00
         -2   -1    0    0    0  501 -0.00000000000E+00  0.00000000000E+00  0.29149257620E+03  0.29149257620E+03  0.00000000000E+00 0.  1.
          2   -1    0    0  501    0  0.00000000000E+00 -0.00000000000E+00 -0.55859465491E+02  0.55859465491E+02  0.00000000000E+00 0. -1.
         25    2    1    2    0    0  0.62655201116E+02 -0.23772939878E+02  0.11646046603E+03  0.18358098449E+03  0.12509240913E+03 0.  0.
          5    1    3    3  502    0  0.88406183063E+02 -0.52037080420E+02  0.75866511155E+02  0.12765857142E+03  0.41800000000E+01 0. -1.
         -5    1    3    3    0  502 -0.25750981947E+02  0.28264140541E+02  0.40593954872E+02  0.55922413073E+02  0.41800000000E+01 0. -1.
        -11    1    1    2    0    0 -0.33856439682E+02  0.55798308585E+02  0.49717964450E+02  0.82046241462E+02  0.00000000000E+00 0. -1.
         11    1    1    2    0    0 -0.28798761433E+02 -0.32025368707E+02  0.69454680236E+02  0.81724815739E+02  0.00000000000E+00 0.  1.
</event>
<event>
 7    1  0.2394257E-009  0.8817699E+02  0.7561462E-02  0.1307327E+00
         -1   -1    0    0    0  501 -0.00000000000E+00  0.00000000000E+00  0.33422936869E+03  0.33422936869E+03  0.00000000000E+00 0. -1.
          1   -1    0    0  501    0  0.00000000000E+00 -0.00000000000E+00 -0.67704936080E+02  0.67704936080E+02  0.00000000000E+00 0.  1.
         25    2    1    2    0    0 -0.28347790930E+02  0.73331005095E+02  0.23565046364E+03  0.27813631519E+03  0.12509050826E+03 0.  0.
          5    1    3    3  502    0  0.35924717679E+01 -0.81177451697E+01 -0.11972374563E+02  0.15479463580E+02  0.41800000000E+01 0. -1.
         -5    1    3    3    0  502 -0.31940262698E+02  0.81448750264E+02  0.24762283820E+03  0.26265685161E+03  0.41800000000E+01 0. -1.
        -11    1    1    2    0    0  0.65096717514E+01 -0.26410552234E+02  0.58947355927E+02  0.64920596627E+02  0.00000000000E+00 0. -1.
         11    1    1    2    0    0  0.21838119179E+02 -0.46920452861E+02 -0.28073386952E+02  0.58877392952E+02  0.00000000000E+00 0.  1.
</event>
<event>
 7    1  0.2394257E-009  0.9196943E+02  0.7561462E-02  0.1298151E+00
         -2   -1    0    0    0  501 -0.00000000000E+00  0.00000000000E+00  0.17226308033E+02  0.17226308033E+02  0.00000000000E+00 0. -1.
          2   -1    0    0  501    0  0.00000000000E+00 -0.00000000000E+00 -0.15648396369E+04  0.15648396369E+04  0.00000000000E+00 0.  1.
         25    2    1    2    0    0 -0.13655961340E+02  0.69318651587E+02 -0.13131123276E+04  0.13209479141E+04  0.12509135175E+03 0.  0.
          5    1    3    3  502    0 -0.35985946228E+02  0.47127854289E+02 -0.23612007385E+03  0.24348754516E+03  0.41800000000E+01 0.  1.
         -5    1    3    3    0  502  0.22329984888E+02  0.22190797298E+02 -0.10769922537E+04  0.10774603690E+04  0.41800000000E+01 0.  1.
        -11    1    1    2    0    0 -0.21416896017E+02 -0.45655598801E+02 -0.20077605222E+03  0.20701241577E+03  0.00000000000E+00 0.  1.
         11    1    1    2    0    0  0.35072857357E+02 -0.23663052786E+02 -0.33724949122E+02  0.54105615084E+02  0.00000000000E+00 0. -1.
</event>
<event>
 7    1  0.2394257E-009  0.1411097E+03  0.7561462E-02  0.1211844E+00
         -1   -1    0    0    0  501 -0.00000000000E+00  0.00000000000E+00  0.30561269642E+03  0.30561269642E+03  0.00000000000E+00 0.  1.
          1   -1    0    0  501    0  0.00000000000E+00 -0.00000000000E+00 -0.73371078711E+02  0.73371078711E+02  0.00000000000E+00 0. -1.
         25    2    1    2    0    0  0.98524107607E+02 -0.25403604180E+02  0.14503633135E+03  0.21687600913E+03  0.12508926028E+03 0.  0.
          5    1    3    3  502    0  0.10361209886E+03  0.27717093344E+02  0.89646720846E+02  0.13984888720E+03  0.41800000000E+01 0. -1.
         -5    1    3    3    0  502 -0.50879912497E+01 -0.53120697524E+02  0.55389610503E+02  0.77027121925E+02  0.41800000000E+01 0. -1.
        -11    1    1    2    0    0 -0.61889136958E+02 -0.18099436809E+02  0.85520214151E+01  0.65046075642E+02  0.00000000000E+00 0.  1.
         11    1    1    2    0    0 -0.36634970650E+02  0.43503040989E+02  0.78653264949E+02  0.97061690367E+02  0.00000000000E+00 0. -1.
</event>
<event>
 7    1  0.2394257E-009  0.1140508E+03  0.7561462E-02  0.1253247E+00
         -2   -1    0    0    0  501 -0.00000000000E+00  0.00000000000E+00  0.60905853181E+03  0.60905853181E+03  0.00000000000E+00 0.  1.
          2   -1    0    0  501    0  0.00000000000E+00 -0.00000000000E+00 -0.24805222747E+02  0.24805222747E+02  0.00000000000E+00 0. -1.
         25    2    1    2    0    0  0.32450858905E+02 -0.41354440716E+02  0.39593092460E+03  0.41853975709E+03  0.12510388962E+03 0.  0.
          5    1    3    3  502    0 -0.47326780282E+02 -0.14881684044E+02  0.18090301202E+03  0.18762905108E+03  0.41800000000E+01 0.  1.
         -5    1    3    3    0  502  0.79777639187E+02 -0.26472756672E+02  0.21502791258E+03  0.23091070600E+03  0.41800000000E+01 0.  1.
        -11    1    1    2    0    0 -0.27976905363E+02 -0.18882207472E+02  0.11745060235E+03  0.12220429201E+03  0.00000000000E+00 0. -1.
         11    1    1    2    0    0 -0.44739535412E+01  0.60236648188E+02  0.70871782114E+02  0.93119705461E+02  0.00000000000E+00 0.  1.
</event>
<event>
 7    1  0.2394257E-009  0.1030081E+03  0.7561462E-02  0.1274095E+00
          1   -1    0    0  501    0  0.00000000000E+00  0.00000000000E+00  0.20249266550E+03  0.20249266550E+03  0.00000000000E+00 0. -1.
         -1   -1    0    0    0  501 -0.00000000000E+00 -0.00000000000E+00 -0.16870741834E+03  0.16870741834E+03  0.00000000000E+00 0.  1.
         25    2    1    2    0    0 -0.16406536096E+02 -0.10063182926E+03 -0.89778452335E+02  0.18467124839E+03  0.12508940799E+03 0.  0.
          5    1    3    3  502    0 -0.10764231305E+02 -0.56334080215E+02  0.24044995954E+02  0.62330020854E+02  0.41800000000E+01 0. -1.
         -5    1    3    3    0  502 -0.56423047912E+01 -0.44297749045E+02 -0.11382344829E+03  0.12234122753E+03  0.41800000000E+01 0. -1.
        -11    1    1    2    0    0  0.13748080986E+02  0.30245946991E+02  0.10985764003E+03  0.11477163461E+03  0.00000000000E+00 0. -1.
         11    1    1    2    0    0  0.26584551106E+01  0.70385882269E+02  0.13706059471E+02  0.71757200841E+02  0.00000000000E+00 0.  1.
</event>
<event>
 7    1  0.2394257E-009  0.1268732E+03  0.7561462E-02  0.1232170E+00
         -2   -1    0    0    0  501 -0.00000000000E+00  0.00000000000E+00  0.13898847368E+04  0.13898847368E+04  0.00000000000E+00 0.  1.
          2   -1    0    0  501    0  0.00000000000E+00 -0.00000000000E+00 -0.12187538739E+02  0.12187538739E+02  0.00000000000E+00 0. -1.
         25    2    1    2    0    0 -0.39558433249E+02  0.59959962982E+02  0.83990760012E+03  0.85220435642E+03  0.12508965407E+03 0.  0.
          5    1    3    3  502    0 -0.18835796807E+02 -0.36021476146E+02  0.15565342174E+03  0.16092791581E+03  0.41800000000E+01 0. -1.
         -5    1    3    3    0  502 -0.20722636441E+02  0.95981439127E+02  0.68425417837E+03  0.69127644061E+03  0.41800000000E+01 0. -1.
        -11    1    1    2    0    0  0.67311755551E+02 -0.29794755140E+02  0.34979965449E+03  0.35746104424E+03  0.00000000000E+00 0.  1.
         11    1    1    2    0    0 -0.27753322302E+02 -0.30165207842E+02  0.18798994348E+03  0.19240687491E+03  0.00000000000E+00 0. -1.
</event>
<event>
 7    1  0.2394257E-009  0.1277902E+03  0.7561462E-02  0.1230772E+00
          1   -1    0    0  501    0  0.00000000000E+00  0.00000000000E+00  0.18893860534E+02  0.18893860534E+02  0.00000000000E+00 0. -1.
         -1   -1    0    0    0  501 -0.00000000000E+00 -0.00000000000E+00 -0.15262147559E+04  0.15262147559E+04  0.00000000000E+00 0.  1.
         25    2    1    2    0    0  0.99335741984E+02 -0.39172707328E+02 -0.11442116814E+04  0.11559712391E+04  0.12508814154E+03 0.  0.
          5    1    3    3  502    0  0.10196425257E+03 -0.43242772368E+02 -0.51789604734E+03  0.52962291719E+03  0.41800000000E+01 0. -1.
         -5    1    3    3    0  502 -0.26285105851E+01  0.40700650398E+01 -0.62631563403E+03  0.62634832189E+03  0.41800000000E+01 0. -1.
        -11    1    1    2    0    0 -0.58957415960E+02  0.67047422777E+02 -0.26106824609E+03  0.27591296257E+03  0.00000000000E+00 0.  1.
         11    1    1    2    0    0 -0.40378326023E+02 -0.27874715448E+02 -0.10204096794E+03  0.11322441482E+03  0.00000000000E+00 0. -1.
</event>
<event>
 7    1  0.2394257E-009  0.9557683E+02  0.7561462E-02  0.1289882E+00
          2   -1    0    0  501    0  0.00000000000E+00  0.00000000000E+00  0.22870714642E+03  0.22870714642E+03  0.00000000000E+00 0. -1.
         -2   -1    0    0    0  501 -0.00000000000E+00 -0.00000000000E+00 -0.61467144062E+02  0.61467144062E+02  0.00000000000E+00 0.  1.
         25    2    1    2    0    0  0.31574513094E+02 -0.80616528167E+00  0.14138406247E+03  0.19140093891E+03  0.12508903435E+03 0.  0.
          5    1    3    3  502    0 -0.24520667886E+02 -0.29676679309E+02  0.11766246501E+03  0.12387048285E+03  0.41800000000E+01 0. -1.
         -5    1    3    3    0  502  0.56095180980E+02  0.28870514027E+02  0.23721597453E+02  0.67530456056E+02  0.41800000000E+01 0. -1.
        -11    1    1    2    0    0 -0.54545482020E+02  0.21166787752E+02 -0.20190489562E+00  0.58508830770E+02  0.00000000000E+00 0. -1.
         11    1    1    2    0    0  0.22970968926E+02 -0.20360622470E+02  0.26057844783E+02  0.40264520803E+02  0.00000000000E+00 0.  1.
</event>
<event>
 7    1  0.2394257E-009  0.1451278E+03  0.7561462E-02  0.1206591E+00
          1   -1    0    0  501    0  0.00000000000E+00  0.00000000000E+00  0.51586492784E+03  0.51586492784E+03  0.00000000000E+00 0. -1.
         -1   -1    0    0    0  501 -0.00000000000E+00 -0.00000000000E+00 -0.70032584147E+02  0.70032584147E+02  0.00000000000E+00 0.  1.
         25    2    1    2    0    0 -0.12178486387E+03 -0.25457145090E+02  0.90143788093E+02  0.19812430756E+03  0.12509084463E+03 0.  0.
          5    1    3    3  502    0 -0.17131657134E+02  0.28336663354E+02 -0.18288937109E+02  0.38058084381E+02  0.41800000000E+01 0.  1.
         -5    1    3    3    0  502 -0.10465320674E+03 -0.53793808443E+02  0.10843272520E+03  0.16006622318E+03  0.41800000000E+01 0.  1.
        -11    1    1    2    0    0  0.44578054944E+01 -0.14517461232E+02  0.52637100593E+01  0.16072814129E+02  0.00000000000E+00 0.  1.
         11    1    1    2    0    0  0.11732705838E+03  0.39974606321E+02  0.35042484554E+03  0.37170039030E+03  0.00000000000E+00 0. -1.
</event>
<event>
 7    1  0.2394257E-009  0.1120181E+03  0.7561462E-02  0.1256878E+00
          2   -1    0    0  501    0  0.00000000000E+00  0.00000000000E+00  0.16380569799E+03  0.16380569799E+03  0.00000000000E+00 0. -1.
         -2   -1    0    0    0  501 -0.00000000000E+00 -0.00000000000E+00 -0.10788689595E+03  0.10788689595E+03  0.00000000000E+00 0.  1.
         25    2    1    2    0    0  0.70643703196E+02  0.28556785058E+02  0.39300469334E+02  0.15165737624E+03  0.12509760231E+03 0.  0.
          5    1    3    3  502    0  0.80227612965E+02  0.40050282649E+02 -0.18630275753E+02  0.91679084839E+02  0.41800000000E+01 0.  1.
         -5    1    3    3    0  502 -0.95839097693E+01 -0.11493497591E+02  0.57930745086E+02  0.59978291403E+02  0.41800000000E+01 0.  1.
        -11    1    1    2    0    0 -0.57673741022E+02  0.25559298519E+02  0.11806842261E+02  0.64178965934E+02  0.00000000000E+00 0.  1.
         11    1    1    2    0    0 -0.12969962174E+02 -0.54116083577E+02  0.48114904513E+01  0.55856251762E+02  0.00000000000E+00 0. -1.
</event>
<event>
 7    1  0.3831118E-009  0.1466138E+03  0.7561462E-02  0.1204697E+00
          3   -1    0    0  501    0  0.00000000000E+00  0.00000000000E+00  0.12057096952E+03  0.12057096952E+03  0.00000000000E+00 0. -1.
         -3   -1    0    0    0  501 -0.00000000000E+00 -0.00000000000E+00 -0.21642956707E+03  0.21642956707E+03  0.00000000000E+00 0.  1.
         25    2    1    2    0    0  0.10815093629E+03  0.18565727213E+02 -0.99196321724E+02  0.19372281182E+03  0.12508919349E+03 0.  0.
          5    1    3    3  502    0  0.11579421563E+01 -0.33667724547E+02  0.63777816216E+01  0.34539904526E+02  0.41800000000E+01 0.  1.
         -5    1    3    3    0  502  0.10699299413E+03  0.52233451760E+02 -0.10557410335E+03  0.15918290729E+03  0.41800000000E+01 0.  1.
        -11    1    1    2    0    0 -0.59242994564E+02  0.34032863368E+02 -0.13173415633E+02  0.69580939009E+02  0.00000000000E+00 0.  1.
         11    1    1    2    0    0 -0.48907941724E+02 -0.52598590581E+02  0.16511139800E+02  0.73696785766E+02  0.00000000000E+00 0. -1.
</event>
<event>
 7    1  0.2394257E-009  0.3816621E+03  0.7561462E-02  0.1050321E+00
         -1   -1    0    0    0  501 -0.00000000000E+00  0.00000000000E+00  0.16076109094E+03  0.16076109094E+03  0.00000000000E+00 0.  1.
          1   -1    0    0  501    0  0.00000000000E+00 -0.00000000000E+00 -0.96728980439E+03  0.96728980439E+03  0.00000000000E+00 0. -1.
         25    2    1    2    0    0  0.32846659211E+03 -0.17273706369E+03 -0.51573430845E+03  0.64757938383E+03  0.12509510840E+03 0.  0.
          5    1    3    3  502    0  0.20102670455E+03 -0.16910226659E+03 -0.37175217274E+03  0.45521913717E+03  0.41800000000E+01 0.  1.
         -5    1    3    3    0  502  0.12743988756E+03 -0.36347970975E+01 -0.14398213571E+03  0.19236024666E+03  0.41800000000E+01 0.  1.
        -11    1    1    2    0    0 -0.90270415880E+02  0.28907650399E+02 -0.30826483925E+02  0.99672826517E+02  0.00000000000E+00 0. -1.
         11    1    1    2    0    0 -0.23819617623E+03  0.14382941329E+03 -0.25996792108E+03  0.38079868499E+03  0.00000000000E+00 0.  1.
</event>
<event>
 7    1  0.2394257E-009  0.1518646E+03  0.7561462E-02  0.1198200E+00
         -1   -1    0    0    0  501 -0.00000000000E+00  0.00000000000E+00  0.35093040519E+02  0.35093040519E+02  0.00000000000E+00 0.  1.
          1   -1    0    0  501    0  0.00000000000E+00 -0.00000000000E+00 -0.82346170002E+03  0.82346170002E+03  0.00000000000E+00 0. -1.
         25    2    1    2    0    0 -0.96960386252E+02 -0.78874022110E+02 -0.53231690948E+03  0.56092118725E+03  0.12509539688E+03 0.  0.
          5    1    3    3  502    0 -0.38755575711E+02 -0.85229049421E+02 -0.17220199543E+03  0.19605352622E+03  0.41800000000E+01 0. -1.
         -5    1    3    3    0  502 -0.58204810541E+02  0.63550273111E+01 -0.36011491405E+03  0.36486766103E+03  0.41800000000E+01 0. -1.
        -11    1    1    2    0    0  0.56990172208E+02  0.92867880595E+02 -0.19407002420E+03  0.22256571449E+03  0.00000000000E+00 0.  1.
         11    1    1    2    0    0  0.39970214044E+02 -0.13993858485E+02 -0.61981725826E+02  0.75067838802E+02  0.00000000000E+00 0. -1.
</event>
<event>
 7    1  0.2394257E-009  0.8339681E+02  0.7561462E-02  0.1319679E+00
          1   -1    0    0  501    0  0.00000000000E+00  0.00000000000E+00  0.85659062324E+03  0.85659062324E+03  0.00000000000E+00 0. -1.
         -1   -1    0    0    0  501 -0.00000000000E+00 -0.00000000000E+00 -0.17673934163E+02  0.17673934163E+02  0.00000000000E+00 0.  1.
         25    2    1    2    0    0  0.26776597080E+02 -0.43433123162E+02  0.56504997371E+03  0.58097546587E+03  0.12509035461E+03 0.  0.
          5    1    3    3  502    0 -0.27257398263E+01 -0.29287467696E+02  0.53658532926E+03  0.53740717654E+03  0.41800000000E+01 0.  1.
         -5    1    3    3    0  502  0.29502336906E+02 -0.14145655466E+02  0.28464644453E+02  0.43568289332E+02  0.41800000000E+01 0.  1.
        -11    1    1    2    0    0  0.12855300646E+02 -0.23227577847E+02  0.54604721942E+02  0.60716182240E+02  0.00000000000E+00 0.  1.
         11    1    1    2    0    0 -0.39631897726E+02  0.66660701009E+02  0.21926199343E+03  0.23257290930E+03  0.00000000000E+00 0. -1.
</event>
<event>
 7    1  0.2394257E-009  0.2044188E+03  0.7561462E-02  0.1146063E+00
         -1   -1    0    0    0  501 -0.00000000000E+00  0.00000000000E+00  0.96283203756E+03  0.96283203756E+03  0.00000000000E+00 0.  1.
          1   -1    0    0  501    0  0.00000000000E+00 -0.00000000000E+00 -0.45072506518E+02  0.45072506518E+02  0.00000000000E+00 0. -1.
         25    2    1    2    0    0  0.15969536097E+03 -0.75457014829E+02  0.51763874931E+03  0.56106478187E+03  0.12508974886E+03 0.  0.
          5    1    3    3  502    0  0.13757682404E+03 -0.28725956115E+01  0.37450750980E+03  0.39901000190E+03  0.41800000000E+01 0.  1.
         -5    1    3    3    0  502  0.22118536931E+02 -0.72584419217E+02  0.14313123951E+03  0.16205477998E+03  0.41800000000E+01 0.  1.
        -11    1    1    2    0    0 -0.39864070047E+02  0.63192045104E+02  0.19692797601E+03  0.21062527479E+03  0.00000000000E+00 0. -1.
         11    1    1    2    0    0 -0.11983129092E+03  0.12264969724E+02  0.20319280573E+03  0.23621448742E+03  0.00000000000E+00 0.  1.
</event>
<event>
 7    1  0.2394257E-009  0.1618490E+03  0.7561462E-02  0.1186625E+00
         -2   -1    0    0    0  501 -0.00000000000E+00  0.00000000000E+00  0.38740824876E+03  0.38740824876E+03  0.00000000000E+00 0.  1.
          2   -1    0    0  501    0  0.00000000000E+00 -0.00000000000E+00 -0.83760866288E+02  0.83760866288E+02  0.00000000000E+00 0. -1.
         25    2    1    2    0    0 -0.13183419598E+03  0.40815286830E+02  0.21629759841E+03  0.28544304022E+03  0.12508771027E+03 0.  0.
          5    1    3    3  502    0  0.34403339725E+01  0.23179231623E+02 -0.60393019209E+01  0.24557244230E+02  0.41800000000E+01 0.  1.
         -5    1    3    3    0  502 -0.13527452995E+03  0.17636055207E+02  0.22233690034E+03  0.26088579599E+03  0.41800000000E+01 0.  1.
        -11    1    1    2    0    0  0.13876962020E+03 -0.18444096870E+02  0.69591986363E+02  0.15633373521E+03  0.00000000000E+00 0. -1.
         11    1    1    2    0    0 -0.69354242165E+01 -0.22371189960E+02  0.17757797696E+02  0.29392339619E+02  0.00000000000E+00 0.  1.
</event>
<event>
 7    1  0.2394257E-009  0.1564119E+03  0.7561462E-02  0.1192808E+00
          2   -1    0    0  501    0  0.00000000000E+00  0.00000000000E+00  0.20509146612E+03  0.20509146612E+03  0.00000000000E+00 0.  1.
         -2   -1    0    0    0  501 -0.00000000000E+00 -0.00000000000E+00 -0.17134616878E+03  0.17134616878E+03  0.00000000000E+00 0. -1.
         25    2    1    2    0    0 -0.32126322386E+02 -0.14446924445E+03 -0.19040204981E+02  0.19471754310E+03  0.12509567940E+03 0.  0.
          5    1    3    3  502    0 -0.23553697741E+02 -0.12414276565E+03 -0.66035812858E+02  0.14263381058E+03  0.41800000000E+01 0.  1.
         -5    1    3    3    0  502 -0.85726246446E+01 -0.20326478799E+02  0.46995607877E+02  0.52083732522E+02  0.41800000000E+01 0.  1.
        -11    1    1    2    0    0 -0.21153951153E+02  0.22698279077E+02 -0.12725424356E+02  0.33535622068E+02  0.00000000000E+00 0. -1.
         11    1    1    2    0    0  0.53280273539E+02  0.12177096538E+03  0.65510926671E+02  0.14818446973E+03  0.00000000000E+00 0.  1.
</event>
<event>
 7    1  0.2394257E-009  0.9863228E+02  0.7561462E-02  0.1283199E+00
         -2   -1    0    0    0  501 -0.00000000000E+00  0.00000000000E+00  0.53260686106E+02  0.53260686106E+02  0.00000000000E+00 0.  1.
          2   -1    0    0  501    0  0.00000000000E+00 -0.00000000000E+00 -0.22843897825E+03  0.22843897825E+03  0.00000000000E+00 0. -1.
         25    2    1    2    0    0 -0.23847964935E+01 -0.85157310020E+01 -0.11884684078E+03  0.17277371056E+03  0.12509188051E+03 0.  0.
          5    1    3    3  502    0 -0.63383089397E+02 -0.69184222265E+01 -0.54309326486E+02  0.83858547155E+02  0.41800000000E+01 0. -1.
         -5    1    3    3    0  502  0.60998292903E+02 -0.15973087755E+01 -0.64537514296E+02  0.88915163408E+02  0.41800000000E+01 0. -1.
        -11    1    1    2    0    0  0.28488426078E+02 -0.19027372500E+02  0.71223083498E+01  0.34990835956E+02  0.00000000000E+00 0.  1.
         11    1    1    2    0    0 -0.26103629584E+02  0.27543103502E+02 -0.63453759715E+02  0.73935117840E+02  0.00000000000E+00 0. -1.
</event>
<event>
 7    1  0.2394257E-009  0.1236643E+03  0.7561462E-02  0.1237172E+00
          1   -1    0    0  501    0  0.00000000000E+00  0.00000000000E+00  0.83649980231E+02  0.83649980231E+02  0.00000000000E+00 0. -1.
         -1   -1    0    0    0  501 -0.00000000000E+00 -0.00000000000E+00 -0.26512347779E+03  0.26512347779E+03  0.00000000000E+00 0.  1.
         25    2    1    2    0    0 -0.82630482856E+01  0.79196078392E+02 -0.24160601015E+02  0.15024964919E+03  0.12510365959E+03 0.  0.
          5    1    3    3  502    0  0.45472995989E+02  0.10575984772E+02  0.21725199616E+02  0.51663347903E+02  0.41800000000E+01 0. -1.
         -5    1    3    3    0  502 -0.53736044275E+02  0.68620093620E+02 -0.45885800631E+02  0.98586301291E+02  0.41800000000E+01 0. -1.
        -11    1    1    2    0    0 -0.36308207590E+02 -0.35962730931E+02 -0.10709885761E+03  0.11866663076E+03  0.00000000000E+00 0.  1.
         11    1    1    2    0    0  0.44571255876E+02 -0.43233347461E+02 -0.50214038936E+02  0.79857178070E+02  0.00000000000E+00 0. -1.
</event>
<event>
 7    1  0.2394257E-009  0.1047325E+03  0.7561462E-02  0.1270648E+00
          1   -1    0    0  501    0  0.00000000000E+00  0.00000000000E+00  0.36146635180E+03  0.36146635180E+03  0.00000000000E+00 0. -1.
         -1   -1    0    0    0  501 -0.00000000000E+00 -0.00000000000E+00 -0.39060313806E+02  0.39060313806E+02  0.00000000000E+00 0.  1.
         25    2    1    2    0    0 -0.35376832068E+02  0.33306243914E+02  0.17155127300E+03  0.21780915975E+03  0.12510061819E+03 0.  0.
          5    1    3    3  502    0  0.50368293402E+01  0.74168552921E+02  0.11551381561E+03  0.13743092042E+03  0.41800000000E+01 0.  1.
         -5    1    3    3    0  502 -0.40413661408E+02 -0.40862309006E+02  0.56037457389E+02  0.80378239321E+02  0.41800000000E+01 0.  1.
        -11    1    1    2    0    0  0.38303848070E+02  0.52989412907E+01  0.13576557544E+03  0.14116499223E+03  0.00000000000E+00 0. -1.
         11    1    1    2    0    0 -0.29270160026E+01 -0.38605185205E+02  0.15089189548E+02  0.41552513626E+02  0.00000000000E+00 0.  1.
</event>
<event>
 7    1  0.2394257E-009  0.1431347E+03  0.7561462E-02  0.1209172E+00
          2   -1    0    0  501    0  0.00000000000E+00  0.00000000000E+00  0.86576833614E+03  0.86576833614E+03  0.00000000000E+00 0. -1.
         -2   -1    0    0    0  501 -0.00000000000E+00 -0.00000000000E+00 -0.33309434120E+02  0.33309434120E+02  0.00000000000E+00 0.  1.
         25    2    1    2    0    0  0.62252052602E+02 -0.76183223889E+02  0.21880990236E+03  0.27056392665E+03  0.12509142008E+03 0.  0.
          5    1    3    3  502    0  0.17686542779E+02 -0.10246968251E+03  0.11917797016E+03  0.15822044937E+03  0.41800000000E+01 0. -1.
         -5    1    3    3    0  502  0.44565509822E+02  0.26286458620E+02  0.99631932198E+02  0.11234347727E+03  0.41800000000E+01 0. -1.
        -11    1    1    2    0    0 -0.23963608338E+02 -0.17111326640E+02  0.76320194961E+02  0.81803570721E+02  0.00000000000E+00 0.  1.
         11    1    1    2    0    0 -0.38288444263E+02  0.93294550528E+02  0.53732880470E+03  0.54671027289E+03  0.00000000000E+00 0. -1.
</event>
<event>
 7    1  0.2394257E-009  0.3537980E+03  0.7561462E-02  0.1061067E+00
          1   -1    0    0  501    0  0.00000000000E+00  0.00000000000E+00  0.47371282029E+03  0.47371282029E+03  0.00000000000E+00 0. -1.
         -1   -1    0    0    0  501 -0.00000000000E+00 -0.00000000000E+00 -0.30966965019E+03  0.30966965019E+03  0.00000000000E+00 0.  1.
         25    2    1    2    0    0 -0.23994475886E+03 -0.24917783186E+03 -0.42318963223E+02  0.37026874922E+03  0.12507986571E+03 0.  0.
          5    1    3    3  502    0 -0.20494571786E+03 -0.24237007290E+03 -0.69851541733E+02  0.32502724469E+03  0.41800000000E+01 0.  1.
         -5    1    3    3    0  502 -0.34999041004E+02 -0.68077589619E+01  0.27532578510E+02  0.45241504536E+02  0.41800000000E+01 0.  1.
        -11    1    1    2    0    0  0.44134815382E+02  0.95996368090E+02  0.35535292779E+02  0.11147170784E+03  0.00000000000E+00 0.  1.
         11    1    1    2    0    0  0.19580994348E+03  0.15318146377E+03  0.17082684054E+03  0.30164201342E+03  0.00000000000E+00 0. -1.
</event>
<event>
 7    1  0.2394257E-009  0.1479675E+03  0.7561462E-02  0.1202993E+00
         -1   -1    0    0    0  501 -0.00000000000E+00  0.00000000000E+00  0.45872420227E+02  0.45872420227E+02  0.00000000000E+00 0.  1.
          1   -1    0    0  501    0  0.00000000000E+00 -0.00000000000E+00 -0.70133945935E+03  0.70133945935E+03  0.00000000000E+00 0. -1.
         25    2    1    2    0    0 -0.67163748230E+02 -0.12258588348E+03 -0.40887313726E+03  0.44984329267E+03  0.12507388888E+03 0.  0.
          5    1    3    3  502    0 -0.18460449588E+02  0.30466349671E+01  0.15585917092E+00  0.19172033687E+02  0.41800000000E+01 0. -1.
         -5    1    3    3    0  502 -0.48703298642E+02 -0.12563251844E+03 -0.40902899643E+03  0.43067125898E+03  0.41800000000E+01 0. -1.
        -11    1    1    2    0    0  0.19545437350E+02  0.61328768352E+02 -0.37850290957E+02  0.74671858650E+02  0.00000000000E+00 0.  1.
         11    1    1    2    0    0  0.47618310880E+02  0.61257115124E+02 -0.20874361091E+03  0.22269672826E+03  0.00000000000E+00 0. -1.
</event>
<event>
 7    1  0.2394257E-009  0.1439894E+03  0.7561462E-02  0.1208059E+00
          3   -1    0    0  501    0  0.00000000000E+00  0.00000000000E+00  0.20817525793E+03  0.20817525793E+03  0.00000000000E+00 0. -1.
         -3   -1    0    0    0  501 -0.00000000000E+00 -0.00000000000E+00 -0.11511438603E+03  0.11511438603E+03  0.00000000000E+00 0.  1.
         25    2    1    2    0    0  0.43174088555E+02  0.98001210799E+02  0.19000967320E+02  0.16575855222E+03  0.12508645664E+03 0.  0.
          5    1    3    3  502    0  0.40387996087E+02  0.12484129870E+03  0.32582416629E+02  0.13526132619E+03  0.41800000000E+01 0. -1.
         -5    1    3    3    0  502  0.27860924682E+01 -0.26840087904E+02 -0.13581449309E+02  0.30497226026E+02  0.41800000000E+01 0. -1.
        -11    1    1    2    0    0  0.19649156118E+02 -0.36642272778E+02 -0.16114818467E+01  0.41609402354E+02  0.00000000000E+00 0.  1.
         11    1    1    2    0    0 -0.62823244674E+02 -0.61358938021E+02  0.75671386425E+02  0.11592168939E+03  0.00000000000E+00 0. -1.
</event>
<event>
 7    1  0.2394257E-009  0.9154576E+02  0.7561462E-02  0.1299151E+00
         -1   -1    0    0    0  501 -0.00000000000E+00  0.00000000000E+00  0.49757596781E+02  0.49757596781E+02  0.00000000000E+00 0.  1.
          1   -1    0    0  501    0  0.00000000000E+00 -0.00000000000E+00 -0.38446685357E+03  0.38446685357E+03  0.00000000000E+00 0. -1.
         25    2    1    2    0    0 -0.12415750560E+02 -0.63542333779E+02 -0.95703632549E+02  0.17027692871E+03  0.12507305115E+03 0.  0.
          5    1    3    3  502    0  0.19426402836E+01 -0.58720668255E+02  0.13103424795E+02  0.60341220347E+02  0.41800000000E+01 0. -1.
         -5    1    3    3    0  502 -0.14358390843E+02 -0.48216655240E+01 -0.10880705734E+03  0.10993570837E+03  0.41800000000E+01 0. -1.
        -11    1    1    2    0    0  0.49051982044E+02  0.24124616685E+02 -0.87532120640E+02  0.10319867352E+03  0.00000000000E+00 0.  1.
         11    1    1    2    0    0 -0.36636231485E+02  0.39417717094E+02 -0.15147350360E+03  0.16074884811E+03  0.00000000000E+00 0. -1.
</event>
<event>
 7    1  0.2394257E-009  0.9686495E+02  0.7561462E-02  0.1287030E+00
          2   -1    0    0  501    0  0.00000000000E+00  0.00000000000E+00  0.12989191497E+03  0.12989191497E+03  0.00000000000E+00 0. -1.
         -2   -1    0    0    0  501 -0.00000000000E+00 -0.00000000000E+00 -0.12539560194E+03  0.12539560194E+03  0.00000000000E+00 0.  1.
         25    2    1    2    0    0 -0.69684580790E+01  0.12370552827E+02  0.69518479731E+02  0.14379797844E+03  0.12507377661E+03 0.  0.
          5    1    3    3  502    0  0.48388228760E+02  0.40677380051E+02  0.30894727746E+02  0.70484228966E+02  0.41800000000E+01 0.  1.
         -5    1    3    3    0  502 -0.55356686839E+02 -0.28306827224E+02  0.38623751985E+02  0.73313749479E+02  0.41800000000E+01 0.  1.
        -11    1    1    2    0    0  0.42388270473E+00 -0.39830972263E+02 -0.72113004362E+02  0.82383077304E+02  0.00000000000E+00 0.  1.
         11    1    1    2    0    0  0.65445753742E+01  0.27460419436E+02  0.70908376661E+01  0.29106461159E+02  0.00000000000E+00 0. -1.
</event>
<event>
 7    1  0.2394257E-009  0.1082285E+03  0.7561462E-02  0.1263886E+00
         -1   -1    0    0    0  501 -0.00000000000E+00  0.00000000000E+00  0.12672876596E+03  0.12672876596E+03  0.00000000000E+00 0.  1.
          1   -1    0    0  501    0  0.00000000000E+00 -0.00000000000E+00 -0.16839445289E+03  0.16839445289E+03  0.00000000000E+00 0. -1.
         25    2    1    2    0    0 -0.57157877212E+02  0.77686501776E+02 -0.80105726773E+01  0.15815751052E+03  0.12508962136E+03 0.  0.
          5    1    3    3  502    0 -0.45268741560E+02  0.67419719666E+02  0.51643358962E+02  0.96328534127E+02  0.41800000000E+01 0.  1.
         -5    1    3    3    0  502 -0.11889135653E+02  0.10266782110E+02 -0.59653931639E+02  0.61828976390E+02  0.41800000000E+01 0.  1.
        -11    1    1    2    0    0  0.42610591553E+02 -0.29117603432E+01 -0.42529888841E+02  0.60273811109E+02  0.00000000000E+00 0. -1.
         11    1    1    2    0    0  0.14547285659E+02 -0.74774741432E+02  0.88747745863E+01  0.76691897227E+02  0.00000000000E+00 0.  1.
</event>
<event>
 7    1  0.2394257E-009  0.9811405E+02  0.7561462E-02  0.1284313E+00
          1   -1    0    0  501    0  0.00000000000E+00  0.00000000000E+00  0.88996513863E+02  0.88996513863E+02  0.00000000000E+00 0. -1.
         -1   -1    0    0    0  501 -0.00000000000E+00 -0.00000000000E+00 -0.15877724912E+03  0.15877724912E+03  0.00000000000E+00 0.  1.
         25    2    1    2    0    0 -0.40017772130E+02  0.18340164799E+02 -0.43109204181E+02  0.13943969707E+03  0.12508893597E+03 0.  0.
          5    1    3    3  502    0 -0.77074760727E+02  0.37088024783E+02 -0.46707713480E+02  0.97545493089E+02  0.41800000000E+01 0.  1.
         -5    1    3    3    0  502  0.37056988597E+02 -0.18747859984E+02  0.35985092986E+01  0.41894203980E+02  0.41800000000E+01 0.  1.
        -11    1    1    2    0    0  0.14982646010E+02  0.18814141391E+02 -0.51696184819E+02  0.57017077465E+02  0.00000000000E+00 0.  1.
         11    1    1    2    0    0  0.25035126120E+02 -0.37154306190E+02  0.25024653745E+02  0.51316988448E+02  0.00000000000E+00 0. -1.
</event>
<event>
 7    1  0.2394257E-009  0.1259488E+03  0.7561462E-02  0.1233594E+00
          2   -1    0    0  501    0  0.00000000000E+00  0.00000000000E+00  0.43806869970E+03  0.43806869970E+03  0.00000000000E+00 0. -1.
         -2   -1    0    0    0  501 -0.00000000000E+00 -0.00000000000E+00 -0.45682282721E+02  0.45682282721E+02  0.00000000000E+00 0.  1.
         25    2    1    2    0    0 -0.23497037208E+02 -0.59741447802E+02  0.31508786136E+03  0.34503783941E+03  0.12509835692E+03 0.  0.
          5    1    3    3  502    0 -0.25425154154E+02  0.36068829389E+02  0.88394197911E+02  0.98885820731E+02  0.41800000000E+01 0. -1.
         -5    1    3    3    0  502  0.19281169468E+01 -0.95810277191E+02  0.22669366345E+03  0.24615201868E+03  0.41800000000E+01 0. -1.
        -11    1    1    2    0    0  0.39077506314E+02 -0.98794405522E+01  0.44961446730E+02  0.60383661179E+02  0.00000000000E+00 0. -1.
         11    1    1    2    0    0 -0.15580469107E+02  0.69620888354E+02  0.32337108885E+02  0.78329481831E+02  0.00000000000E+00 0.  1.
</event>
<event>
 7    1  0.2394257E-009  0.8445942E+02  0.7561462E-02  0.1316852E+00
         -1   -1    0    0    0  501 -0.00000000000E+00  0.00000000000E+00  0.55834335516E+02  0.55834335516E+02  0.00000000000E+00 0.  1.
          1   -1    0    0  501    0  0.00000000000E+00 -0.00000000000E+00 -0.31411660502E+03  0.31411660502E+03  0.00000000000E+00 0. -1.
         25    2    1    2    0    0 -0.61637691220E+02  0.23391276368E+02 -0.90703322089E+02  0.16799140050E+03  0.12509061202E+03 0.  0.
          5    1    3    3  502    0 -0.38339274506E+02  0.28248626454E+02 -0.12049525047E+03  0.12963202788E+03  0.41800000000E+01 0. -1.
         -5    1    3    3    0  502 -0.23298416714E+02 -0.48573500857E+01  0.29791928382E+02  0.38359372622E+02  0.41800000000E+01 0. -1.
        -11    1    1    2    0    0 -0.82655607802E+00  0.20557352482E+02 -0.33570455288E+01  0.20846047364E+02  0.00000000000E+00 0.  1.
         11    1    1    2    0    0  0.62464247298E+02 -0.43948628850E+02 -0.16422190188E+03  0.18111349267E+03  0.00000000000E+00 0. -1.
</event>
<event>
 7    1  0.2394257E-009  0.1178447E+03  0.7561462E-02  0.1246696E+00
         -2   -1    0    0    0  501 -0.00000000000E+00  0.00000000000E+00  0.79372999816E+02  0.79372999816E+02  0.00000000000E+00 0.  1.
          2   -1    0    0  501    0  0.00000000000E+00 -0.00000000000E+00 -0.19392235608E+03  0.19392235608E+03  0.00000000000E+00 0. -1.
         25    2    1    2    0    0  0.40358763800E+02  0.48459058520E+02 -0.41222965914E+02  0.14602761359E+03  0.12509045065E+03 0.  0.
          5    1    3    3  502    0 -0.43421158039E+02  0.28275238468E+02 -0.27023806774E+02  0.58588775448E+02  0.41800000000E+01 0.  1.
         -5    1    3    3    0  502  0.83779921839E+02  0.20183820052E+02 -0.14199159140E+02  0.87438838141E+02  0.41800000000E+01 0.  1.
        -11    1    1    2    0    0 -0.62012312792E+02 -0.29610372722E+02 -0.29291416471E+02  0.74701326558E+02  0.00000000000E+00 0.  1.
         11    1    1    2    0    0  0.21653548992E+02 -0.18848685797E+02 -0.44034973879E+02  0.52566415749E+02  0.00000000000E+00 0. -1.
</event>
<event>
 7    1  0.2394257E-009  0.1698589E+03  0.7561462E-02  0.1177995E+00
         -2   -1    0    0    0  501 -0.00000000000E+00  0.00000000000E+00  0.84403425678E+02  0.84403425678E+02  0.00000000000E+00 0.  1.
          2   -1    0    0  501    0  0.00000000000E+00 -0.00000000000E+00 -0.40010964547E+03  0.40010964547E+03  0.00000000000E+00 0. -1.
         25    2    1    2    0    0  0.39666875105E+02 -0.14159433780E+03 -0.12011037173E+03  0.22737173366E+03  0.12509590877E+03 0.  0.
          5    1    3    3  502    0 -0.29860345668E+02 -0.11272975498E+03 -0.83948919024E+02  0.14375163063E+03  0.41800000000E+01 0. -1.
         -5    1    3    3    0  502  0.69527220773E+02 -0.28864582821E+02 -0.36161452705E+02  0.83620103036E+02  0.41800000000E+01 0. -1.
        -11    1    1    2    0    0 -0.17751380417E+02  0.87140292182E+02 -0.17247746542E+03  0.19405416282E+03  0.00000000000E+00 0.  1.
         11    1    1    2    0    0 -0.21915494688E+02  0.54454045623E+02 -0.23118382644E+02  0.63087174673E+02  0.00000000000E+00 0. -1.
</event>
<event>
 7    1  0.2394257E-009  0.1001839E+03  0.7561462E-02  0.1279910E+00
         -1   -1    0    0    0  501 -0.00000000000E+00  0.00000000000E+00  0.17878413801E+03  0.17878413801E+03  0.00000000000E+00 0.  1.
          1   -1    0    0  501    0  0.00000000000E+00 -0.00000000000E+00 -0.74875315450E+02  0.74875315450E+02  0.00000000000E+00 0. -1.
         25    2    1    2    0    0 -0.14769389059E+02  0.11172770241E+02  0.10022575992E+03  0.16135254995E+03  0.12508587760E+03 0.  0.
          5    1    3    3  502    0 -0.43953100161E+02  0.48286902928E+02  0.92541236253E+02  0.11333513496E+03  0.41800000000E+01 0.  1.
         -5    1    3    3    0  502  0.29183711102E+02 -0.37114132687E+02  0.76845236690E+01  0.48017414995E+02  0.41800000000E+01 0.  1.
        -11    1    1    2    0    0  0.24866179408E+02  0.33511381075E+02 -0.12756752823E+02  0.43635699633E+02  0.00000000000E+00 0. -1.
         11    1    1    2    0    0 -0.10096790349E+02 -0.44684151316E+02  0.16439815459E+02  0.48671203874E+02  0.00000000000E+00 0.  1.
</event>
<event>
 7    1  0.2394257E-009  0.1065931E+03  0.7561462E-02  0.1267012E+00
         -2   -1    0    0    0  501 -0.00000000000E+00  0.00000000000E+00  0.46690530096E+02  0.46690530096E+02  0.00000000000E+00 0.  1.
          2   -1    0    0  501    0  0.00000000000E+00 -0.00000000000E+00 -0.36905659996E+03  0.36905659996E+03  0.00000000000E+00 0. -1.
         25    2    1    2    0    0 -0.60979213294E+02 -0.26019112835E+01 -0.11094047129E+03  0.17799447028E+03  0.12509599867E+03 0.  0.
          5    1    3    3  502    0  0.37874365933E+01 -0.32531388296E+02 -0.10047689918E+03  0.10576254332E+03  0.41800000000E+01 0.  1.
         -5    1    3    3    0  502 -0.64766649887E+02  0.29929477013E+02 -0.10463572115E+02  0.72231926966E+02  0.41800000000E+01 0.  1.
        -11    1    1    2    0    0  0.12392859772E+02  0.43475324402E+02 -0.91348724331E+02  0.10192289361E+03  0.00000000000E+00 0.  1.
         11    1    1    2    0    0  0.48586353521E+02 -0.40873413119E+02 -0.12007687425E+03  0.13582976617E+03  0.00000000000E+00 0. -1.
</event>
<event>
 7    1  0.2394257E-009  0.1042449E+03  0.7561462E-02  0.1271615E+00
         -1   -1    0    0    0  501 -0.00000000000E+00  0.00000000000E+00  0.19055706509E+02  0.19055706509E+02  0.00000000000E+00 0.  1.
          1   -1    0    0  501    0  0.00000000000E+00 -0.00000000000E+00 -0.92208237262E+03  0.92208237262E+03  0.00000000000E+00 0. -1.
         25    2    1    2    0    0 -0.54370621085E+02  0.16656711414E+02 -0.67999626290E+03  0.69374035332E+03  0.12508856782E+03 0.  0.
          5    1    3    3  502    0  0.12007647979E+02  0.49227065039E+02 -0.43030498823E+03  0.43329821467E+03  0.41800000000E+01 0. -1.
         -5    1    3    3    0  502 -0.66378269064E+02 -0.32570353624E+02 -0.24969127467E+03  0.26044213865E+03  0.41800000000E+01 0. -1.
        -11    1    1    2    0    0  0.26864801922E+02  0.22974936869E+02 -0.17776275538E+03  0.18124337921E+03  0.00000000000E+00 0. -1.
         11    1    1    2    0    0  0.27505819163E+02 -0.39631648284E+02 -0.45267647832E+02  0.66154346598E+02  0.00000000000E+00 0.  1.
</event>
<event>
 7    1  0.2394257E-009  0.1959416E+03  0.7561462E-02  0.1153209E+00
         -2   -1    0    0    0  501 -0.00000000000E+00  0.00000000000E+00  0.21185793248E+02  0.21185793248E+02  0.00000000000E+00 0.  1.
          2   -1    0    0  501    0  0.00000000000E+00 -0.00000000000E+00 -0.26898763811E+04  0.26898763811E+04  0.00000000000E+00 0. -1.
         25    2    1    2    0    0  0.14392014648E+03  0.76679009164E+02 -0.21444734022E+04  0.21542998464E+04  0.12509586933E+03 0.  0.
          5    1    3    3  502    0 -0.22513339232E+02  0.50054404371E+01 -0.31418180345E+03  0.31505488870E+03  0.41800000000E+01 0. -1.
         -5    1    3    3    0  502  0.16643348571E+03  0.71673568727E+02 -0.18302915987E+04  0.18392449577E+04  0.41800000000E+01 0. -1.
        -11    1    1    2    0    0 -0.39560114703E+02  0.20525847621E+02 -0.11028438459E+03  0.11894939504E+03  0.00000000000E+00 0. -1.
         11    1    1    2    0    0 -0.10436003177E+03 -0.97204856785E+02 -0.41393280112E+03  0.43781293295E+03  0.00000000000E+00 0.  1.
</event>
<event>
 7    1  0.2394257E-009  0.8288832E+02  0.7561462E-02  0.1321049E+00
          1   -1    0    0  501    0  0.00000000000E+00  0.00000000000E+00  0.66206827086E+03  0.66206827086E+03  0.00000000000E+00 0. -1.
         -1   -1    0    0    0  501 -0.00000000000E+00 -0.00000000000E+00 -0.23144217472E+02  0.23144217472E+02  0.00000000000E+00 0.  1.
         25    2    1    2    0    0 -0.50095581473E+02 -0.22596831753E+02  0.43978437772E+03  0.46051909692E+03  0.12508939068E+03 0.  0.
          5    1    3    3  502    0 -0.31839066029E+02 -0.44324983932E+02  0.42450209311E+03  0.42801627280E+03  0.41800000000E+01 0. -1.
         -5    1    3    3    0  502 -0.18256515443E+02  0.21728152179E+02  0.15282284604E+02  0.32502824123E+02  0.41800000000E+01 0. -1.
        -11    1    1    2    0    0  0.25122968719E+01  0.33455156800E+02  0.20075950854E+02  0.39097352273E+02  0.00000000000E+00 0.  1.
         11    1    1    2    0    0  0.47583284601E+02 -0.10858325047E+02  0.17906372482E+03  0.18559603914E+03  0.00000000000E+00 0. -1.
</event>
<event>
 7    1  0.2394257E-009  0.1035079E+03  0.7561462E-02  0.1273088E+00
          1   -1    0    0  501    0  0.00000000000E+00  0.00000000000E+00  0.10798624208E+03  0.10798624208E+03  0.00000000000E+00 0. -1.
         -1   -1    0    0    0  501 -0.00000000000E+00 -0.00000000000E+00 -0.12005522525E+03  0.12005522525E+03  0.00000000000E+00 0.  1.
         25    2    1    2    0    0  0.16510115934E+02  0.15950125684E+02 -0.15610917783E+02  0.12812937818E+03  0.12508575602E+03 0.  0.
          5    1    3    3  502    0  0.33128038833E+01  0.66355189614E+02  0.14040067176E+02  0.68033680957E+02  0.41800000000E+01 0. -1.
         -5    1    3    3    0  502  0.13197312051E+02 -0.50405063930E+02 -0.29650984959E+02  0.60095697218E+02  0.41800000000E+01 0. -1.
        -11    1    1    2    0    0  0.33109112905E+02  0.64541947391E+01  0.24377083064E+02  0.41618651658E+02  0.00000000000E+00 0. -1.
         11    1    1    2    0    0 -0.49619228839E+02 -0.22404320423E+02 -0.20835148458E+02  0.58293437499E+02  0.00000000000E+00 0.  1.
</event>
<event>
 7    1  0.2394257E-009  0.2389787E+03  0.7561462E-02  0.1120475E+00
          1   -1    0    0  501    0  0.00000000000E+00  0.00000000000E+00  0.88496209152E+03  0.88496209152E+03  0.00000000000E+00 0. -1.
         -1   -1    0    0    0  501 -0.00000000000E+00 -0.00000000000E+00 -0.73467503679E+02  0.73467503679E+02  0.00000000000E+00 0.  1.
         25    2    1    2    0    0 -0.20751631683E+03  0.51079798963E+02  0.25911954981E+03  0.35841698154E+03  0.12509046305E+03 0.  0.
          5    1    3    3  502    0 -0.21131286442E+03  0.73457146513E+02  0.24261878293E+03  0.33004609568E+03  0.41800000000E+01 0.  1.
         -5    1    3    3    0  502  0.37965475810E+01 -0.22377347550E+02  0.16500766878E+02  0.28370885860E+02  0.41800000000E+01 0.  1.
        -11    1    1    2    0    0  0.20137926523E+03 -0.23357349191E+02  0.44600140739E+03  0.48991471668E+03  0.00000000000E+00 0. -1.
         11    1    1    2    0    0  0.61370516055E+01 -0.27722449772E+02  0.10637363065E+03  0.11009789699E+03  0.00000000000E+00 0.  1.
</event>
<event>
 7    1  0.2394257E-009  0.1255401E+03  0.7561462E-02  0.1234228E+00
         -2   -1    0    0    0  501 -0.00000000000E+00  0.00000000000E+00  0.65827909224E+02  0.65827909224E+02  0.00000000000E+00 0.  1.
          2   -1    0    0  501    0  0.00000000000E+00 -0.00000000000E+00 -0.34937136779E+03  0.34937136779E+03  0.00000000000E+00 0. -1.
         25    2    1    2    0    0  0.19861658978E+01 -0.33765762959E+02 -0.11868705685E+03  0.17572172845E+03  0.12508971494E+03 0.  0.
          5    1    3    3  502    0 -0.32148323418E+02 -0.27372722311E+02  0.89631965032E+01  0.43365792012E+02  0.41800000000E+01 0.  1.
         -5    1    3    3    0  502  0.34134489316E+02 -0.63930406481E+01 -0.12765025335E+03  0.13235593644E+03  0.41800000000E+01 0.  1.
        -11    1    1    2    0    0  0.24419614857E+02 -0.66051652518E+02 -0.68973453588E+02  0.98572185174E+02  0.00000000000E+00 0. -1.
         11    1    1    2    0    0 -0.26405780754E+02  0.99817415477E+02 -0.95882948124E+02  0.14090536339E+03  0.00000000000E+00 0.  1.
</event>
<event>
 7    1  0.2394257E-009  0.1101489E+03  0.7561462E-02  0.1260294E+00
          1   -1    0    0  501    0  0.00000000000E+00  0.00000000000E+00  0.11324020006E+03  0.11324020006E+03  0.00000000000E+00 0. -1.
         -1   -1    0    0    0  501 -0.00000000000E+00 -0.00000000000E+00 -0.21936810456E+03  0.21936810456E+03  0.00000000000E+00 0.  1.
         25    2    1    2    0    0  0.53348190946E+02  0.52928673388E+02 -0.14685730888E+03  0.20703076593E+03  0.12508874820E+03 0.  0.
          5    1    3    3  502    0  0.73252631063E+02  0.29028646443E+02 -0.27411792039E+02  0.83531365455E+02  0.41800000000E+01 0.  1.
         -5    1    3    3    0  502 -0.19904440116E+02  0.23900026946E+02 -0.11944551684E+03  0.12349940047E+03  0.41800000000E+01 0.  1.
        -11    1    1    2    0    0 -0.73450739743E+01 -0.62576262632E+02 -0.56866731563E+00  0.63008429112E+02  0.00000000000E+00 0.  1.
         11    1    1    2    0    0 -0.46003116972E+02  0.96475892431E+01  0.41298071692E+02  0.62569109589E+02  0.00000000000E+00 0. -1.
</event>
<event>
 7    1  0.2394257E-009  0.9810804E+02  0.7561462E-02  0.1284326E+00
          4   -1    0    0  501    0  0.00000000000E+00  0.00000000000E+00  0.30968520641E+03  0.30968520641E+03  0.00000000000E+00 0. -1.
         -4   -1    0    0    0  501 -0.00000000000E+00 -0.00000000000E+00 -0.43064867730E+02  0.43064867730E+02  0.00000000000E+00 0.  1.
         25    2    1    2    0    0 -0.13443963328E+02  0.12663298834E+02  0.96539707439E+02  0.15908657365E+03  0.12509006162E+03 0.  0.
          5    1    3    3  502    0  0.36049432470E+01 -0.55597066024E+02  0.39643702294E+02  0.68506385818E+02  0.41800000000E+01 0.  1.
         -5    1    3    3    0  502 -0.17048906575E+02  0.68260364858E+02  0.56896005145E+02  0.90580187830E+02  0.41800000000E+01 0.  1.
        -11    1    1    2    0    0 -0.15755433133E+02 -0.31427433758E+02  0.21780574570E+02  0.41355902776E+02  0.00000000000E+00 0.  1.
         11    1    1    2    0    0  0.29199396461E+02  0.18764134924E+02  0.14830005667E+03  0.15230759772E+03  0.00000000000E+00 0. -1.
</event>
<event>
 7    1  0.2394257E-009  0.1482482E+03  0.7561462E-02  0.1202642E+00
         -4   -1    0    0    0  501 -0.00000000000E+00  0.00000000000E+00  0.60547478192E+02  0.60547478192E+02  0.00000000000E+00 0.  1.
          4   -1    0    0  501    0  0.00000000000E+00 -0.00000000000E+00 -0.78690485868E+03  0.78690485868E+03  0.00000000000E+00 0. -1.
         25    2    1    2    0    0  0.13009132349E+03 -0.27079594591E+02 -0.11816413981E+03  0.21740965179E+03  0.12508851212E+03 0.  0.
          5    1    3    3  502    0 -0.66330725623E+01  0.10551010612E+02  0.16979851209E+02  0.21473453929E+02  0.41800000000E+01 0.  1.
         -5    1    3    3    0  502  0.13672439605E+03 -0.37630605203E+02 -0.13514399102E+03  0.19593619786E+03  0.41800000000E+01 0.  1.
        -11    1    1    2    0    0 -0.57848962003E+01  0.15609399342E+02 -0.11026632678E+02  0.19967598757E+02  0.00000000000E+00 0.  1.
         11    1    1    2    0    0 -0.12430642729E+03  0.11470195248E+02 -0.59716660800E+03  0.61007508632E+03  0.00000000000E+00 0. -1.
</event>
<event>
 7    1  0.2394257E-009  0.1225763E+03  0.7561462E-02  0.1238907E+00
         -3   -1    0    0    0  501 -0.00000000000E+00  0.00000000000E+00  0.35457737233E+03  0.35457737233E+03  0.00000000000E+00 0.  1.
          3   -1    0    0  501    0  0.00000000000E+00 -0.00000000000E+00 -0.48711602154E+02  0.48711602154E+02  0.00000000000E+00 0. -1.
         25    2    1    2    0    0 -0.65957790613E+02  0.29141108420E+02  0.18177313567E+03  0.23213868230E+03  0.12508901080E+03 0.  0.
          5    1    3    3  502    0  0.64599281421E+01  0.60187987853E+02  0.10924847497E+03  0.12496810087E+03  0.41800000000E+01 0. -1.
         -5    1    3    3    0  502 -0.72417718755E+02 -0.31046879433E+02  0.72524660705E+02  0.10717058142E+03  0.41800000000E+01 0. -1.
        -11    1    1    2    0    0 -0.17712503312E+02 -0.67698693835E+01  0.61319909526E+02  0.64184851868E+02  0.00000000000E+00 0.  1.
         11    1    1    2    0    0  0.83670293924E+02 -0.22371239037E+02  0.62772724975E+02  0.10696544032E+03  0.00000000000E+00 0. -1.
</event>
<event>
 7    1  0.2394257E-009  0.1493912E+03  0.7561462E-02  0.1201223E+00
         -2   -1    0    0    0  501 -0.00000000000E+00  0.00000000000E+00  0.13627792537E+02  0.13627792537E+02  0.00000000000E+00 0.  1.
          2   -1    0    0  501    0  0.00000000000E+00 -0.00000000000E+00 -0.21070643095E+04  0.21070643095E+04  0.00000000000E+00 0. -1.
         25    2    1    2    0    0 -0.98125293992E+02 -0.33049218095E+02 -0.16074228179E+04  0.16156036075E+04  0.12508427915E+03 0.  0.
          5    1    3    3  502    0 -0.11030933074E+03  0.16065945469E+02 -0.11232380724E+04  0.11287637054E+04  0.41800000000E+01 0.  1.
         -5    1    3    3    0  502  0.12184036747E+02 -0.49115163564E+02 -0.48418474551E+03  0.48683990205E+03  0.41800000000E+01 0.  1.
        -11    1    1    2    0    0  0.84179861396E+02 -0.15803649291E+02 -0.33413097455E+03  0.34493406986E+03  0.00000000000E+00 0.  1.
         11    1    1    2    0    0  0.13945432596E+02  0.48852867386E+02 -0.15188272451E+03  0.16015442469E+03  0.00000000000E+00 0. -1.
</event>
<event>
 7    1  0.2500937E-009  0.2218563E+03  0.7561462E-02  0.1132507E+00
          1   -1    0    0  501    0  0.00000000000E+00  0.00000000000E+00  0.55098777672E+03  0.55098777672E+03  0.00000000000E+00 0. -1.
         -1   -1    0    0    0  501 -0.00000000000E+00 -0.00000000000E+00 -0.11758882061E+03  0.11758882061E+03  0.00000000000E+00 0.  1.
         25    2    1    2    0    0  0.13696696981E+03  0.17196040659E+03  0.31110884723E+03  0.40095715316E+03  0.12509033375E+03 0.  0.
          5    1    3    3  502    0  0.79931711248E+02  0.12325079490E+03  0.28635324158E+03  0.32186253008E+03  0.41800000000E+01 0. -1.
         -5    1    3    3    0  502  0.57035258558E+02  0.48709611694E+02  0.24755605652E+02  0.79094623087E+02  0.41800000000E+01 0. -1.
        -11    1    1    2    0    0 -0.55005766392E+02 -0.47881001693E+02  0.89307913365E+02  0.11530016500E+03  0.00000000000E+00 0.  1.
         11    1    1    2    0    0 -0.81961203414E+02 -0.12407940490E+03  0.32982195518E+02  0.15231927917E+03  0.00000000000E+00 0. -1.
</event>
<event>
 7    1  0.2394257E-009  0.2652135E+03  0.7561462E-02  0.1104051E+00
         -1   -1    0    0    0  501 -0.00000000000E+00  0.00000000000E+00  0.11365946332E+03  0.11365946332E+03  0.00000000000E+00 0.  1.
          1   -1    0    0  501    0  0.00000000000E+00 -0.00000000000E+00 -0.76406745838E+03  0.76406745838E+03  0.00000000000E+00 0. -1.
         25    2    1    2    0    0  0.25085126957E+03  0.58502233881E+02 -0.19415942664E+03  0.34596812159E+03  0.12508871807E+03 0.  0.
          5    1    3    3  502    0  0.17182573093E+03  0.40414180454E+02 -0.19725201895E+03  0.26473235384E+03  0.41800000000E+01 0.  1.
         -5    1    3    3    0  502  0.79025538639E+02  0.18088053427E+02  0.30925923063E+01  0.81235767746E+02  0.41800000000E+01 0.  1.
        -11    1    1    2    0    0 -0.18960721960E+03 -0.82670261392E+02 -0.35879693924E+03  0.41415035126E+03  0.00000000000E+00 0. -1.
         11    1    1    2    0    0 -0.61244049962E+02  0.24168027511E+02 -0.97451629189E+02  0.11760844885E+03  0.00000000000E+00 0.  1.
</event>
<event>
 7    1  0.2394257E-009  0.8559390E+02  0.7561462E-02  0.1313887E+00
          1   -1    0    0  501    0  0.00000000000E+00  0.00000000000E+00  0.61331307340E+03  0.61331307340E+03  0.00000000000E+00 0. -1.
         -1   -1    0    0    0  501 -0.00000000000E+00 -0.00000000000E+00 -0.23260664763E+02  0.23260664763E+02  0.00000000000E+00 0.  1.
         25    2    1    2    0    0 -0.43491036919E+02 -0.24106236612E+02  0.33524708177E+03  0.36126367918E+03  0.12509300188E+03 0.  0.
          5    1    3    3  502    0 -0.78366600134E+01  0.13075476677E+02  0.29586188699E+03  0.29628383335E+03  0.41800000000E+01 0. -1.
         -5    1    3    3    0  502 -0.35654376906E+02 -0.37181713289E+02  0.39385194779E+02  0.64979845825E+02  0.41800000000E+01 0. -1.
        -11    1    1    2    0    0  0.53220551349E+02  0.51846803710E+02  0.16910548053E+03  0.18470836929E+03  0.00000000000E+00 0.  1.
         11    1    1    2    0    0 -0.97295144296E+01 -0.27740567098E+02  0.85699846334E+02  0.90601689695E+02  0.00000000000E+00 0. -1.
</event>
<event>
 7    1  0.2394257E-009  0.1153107E+03  0.7561462E-02  0.1251040E+00
         -1   -1    0    0    0  501 -0.00000000000E+00  0.00000000000E+00  0.45232214848E+03  0.45232214848E+03  0.00000000000E+00 0.  1.
          1   -1    0    0  501    0  0.00000000000E+00 -0.00000000000E+00 -0.48029947637E+02  0.48029947637E+02  0.00000000000E+00 0. -1.
         25    2    1    2    0    0 -0.88648425381E+02 -0.32059428912E+02  0.16920870577E+03  0.23057987589E+03  0.12509653373E+03 0.  0.
          5    1    3    3  502    0  0.48303082293E-01 -0.35091931368E+01 -0.19408267462E+02  0.20161101546E+02  0.41800000000E+01 0.  1.
         -5    1    3    3    0  502 -0.88696728463E+02 -0.28550235775E+02  0.18861697323E+03  0.21041877434E+03  0.41800000000E+01 0.  1.
        -11    1    1    2    0    0  0.87365325314E+02  0.58678079974E+02  0.17822430694E+03  0.20697758507E+03  0.00000000000E+00 0. -1.
         11    1    1    2    0    0  0.12831000669E+01 -0.26618651062E+02  0.56859188123E+02  0.62794635155E+02  0.00000000000E+00 0.  1.
</event>
<event>
 7    1  0.2394257E-009  0.1377446E+03  0.7561462E-02  0.1216396E+00
          3   -1    0    0  501    0  0.00000000000E+00  0.00000000000E+00  0.16482005254E+03  0.16482005254E+03  0.00000000000E+00 0. -1.
         -3   -1    0    0    0  501 -0.00000000000E+00 -0.00000000000E+00 -0.14713147962E+03  0.14713147962E+03  0.00000000000E+00 0.  1.
         25    2    1    2    0    0  0.13787035763E+01 -0.11029327647E+03  0.26434939894E+02  0.16885681604E+03  0.12508921064E+03 0.  0.
          5    1    3    3  502    0 -0.38033555077E+02 -0.96996832191E+02  0.55326853324E+02  0.11804011973E+03  0.41800000000E+01 0.  1.
         -5    1    3    3    0  502  0.39412258653E+02 -0.13296444284E+02 -0.28891913430E+02  0.50816696315E+02  0.41800000000E+01 0.  1.
        -11    1    1    2    0    0 -0.24494214722E+02  0.99421899637E+01 -0.27806341844E+02  0.38366734848E+02  0.00000000000E+00 0.  1.
         11    1    1    2    0    0  0.23115511146E+02  0.10035108651E+03  0.19059974869E+02  0.10472798127E+03  0.00000000000E+00 0. -1.
</event>
<event>
 7    1  0.2394257E-009  0.9314560E+02  0.7561462E-02  0.1295408E+00
         -2   -1    0    0    0  501 -0.00000000000E+00  0.00000000000E+00  0.14667770769E+02  0.14667770769E+02  0.00000000000E+00 0.  1.
          2   -1    0    0  501    0  0.00000000000E+00 -0.00000000000E+00 -0.90428549613E+03  0.90428549613E+03  0.00000000000E+00 0. -1.
         25    2    1    2    0    0 -0.16886878945E+02 -0.64316748198E+01 -0.67473628164E+03  0.68647266110E+03  0.12509648900E+03 0.  0.
          5    1    3    3  502    0 -0.63680886220E+02 -0.90400151806E+01 -0.21827542303E+03  0.22759307952E+03  0.41800000000E+01 0. -1.
         -5    1    3    3    0  502  0.46794007275E+02  0.26083403608E+01 -0.45646085861E+03  0.45887958158E+03  0.41800000000E+01 0. -1.
        -11    1    1    2    0    0  0.31610172356E+02  0.32189242725E+02 -0.18481042995E+03  0.19023733956E+03  0.00000000000E+00 0. -1.
         11    1    1    2    0    0 -0.14723293411E+02 -0.25757567905E+02 -0.30071013774E+02  0.42243266240E+02  0.00000000000E+00 0.  1.
</event>
<event>
 7    1  0.2394257E-009  0.7103804E+02  0.7561462E-02  0.1356598E+00
         -3   -1    0    0    0  501 -0.00000000000E+00  0.00000000000E+00  0.26817505318E+03  0.26817505318E+03  0.00000000000E+00 0.  1.
          3   -1    0    0  501    0  0.00000000000E+00 -0.00000000000E+00 -0.47350796185E+02  0.47350796185E+02  0.00000000000E+00 0. -1.
         25    2    1    2    0    0 -0.61284003115E+01 -0.27939796775E+02  0.15828220409E+03  0.20375588774E+03  0.12508003887E+03 0.  0.
          5    1    3    3  502    0  0.37116826261E+02 -0.32318461641E+02  0.15177140733E+03  0.15960631015E+03  0.41800000000E+01 0. -1.
         -5    1    3    3    0  502 -0.43245226573E+02  0.43786648666E+01  0.65107967584E+01  0.44149577594E+02  0.41800000000E+01 0. -1.
        -11    1    1    2    0    0 -0.17061691053E+02  0.12653342195E+02  0.77406022848E+02  0.80267681812E+02  0.00000000000E+00 0.  1.
         11    1    1    2    0    0  0.23190091364E+02  0.15286454579E+02 -0.14863969943E+02  0.31502279815E+02  0.00000000000E+00 0. -1.
</event>
<event>
 7    1  0.2394257E-009  0.1000629E+03  0.7561462E-02  0.1280164E+00
          2   -1    0    0  501    0  0.00000000000E+00  0.00000000000E+00  0.28609939148E+03  0.28609939148E+03  0.00000000000E+00 0.  1.
         -2   -1    0    0    0  501 -0.00000000000E+00 -0.00000000000E+00 -0.47320359377E+02  0.47320359377E+02  0.00000000000E+00 0. -1.
         25    2    1    2    0    0  0.32209141432E+02  0.19006874920E+02  0.16240576328E+03  0.20837977912E+03  0.12509120798E+03 0.  0.
          5    1    3    3  502    0 -0.13877460037E+01  0.60343128387E+02  0.13584755676E+03  0.14871197013E+03  0.41800000000E+01 0. -1.
         -5    1    3    3    0  502  0.33596887436E+02 -0.41336253467E+02  0.26558206516E+02  0.59667808988E+02  0.41800000000E+01 0. -1.
        -11    1    1    2    0    0  0.78644925854E+01  0.25273769790E+02 -0.19551003301E+01  0.26541215125E+02  0.00000000000E+00 0. -1.
         11    1    1    2    0    0 -0.40073634017E+02 -0.44280644711E+02  0.78328369154E+02  0.98498756610E+02  0.00000000000E+00 0.  1.
</event>
<event>
 7    1  0.2394257E-009  0.1243742E+03  0.7561462E-02  0.1236051E+00
         -2   -1    0    0    0  501 -0.00000000000E+00  0.00000000000E+00  0.48667109822E+02  0.48667109822E+02  0.00000000000E+00 0.  1.
          2   -1    0    0  501    0  0.00000000000E+00 -0.00000000000E+00 -0.38850763519E+03  0.38850763519E+03  0.00000000000E+00 0. -1.
         25    2    1    2    0    0  0.67834875202E+02  0.34034999635E+02 -0.24107427889E+03  0.28200201186E+03  0.12509346608E+03 0.  0.
          5    1    3    3  502    0  0.37473114491E+02  0.79904502609E+02 -0.17407112012E+03  0.19521063267E+03  0.41800000000E+01 0. -1.
         -5    1    3    3    0  502  0.30361760711E+02 -0.45869502973E+02 -0.67003158774E+02  0.86791379193E+02  0.41800000000E+01 0. -1.
        -11    1    1    2    0    0 -0.39723829728E+02 -0.56622144798E+02 -0.25873580324E+02  0.73847762922E+02  0.00000000000E+00 0.  1.
         11    1    1    2    0    0 -0.28111045474E+02  0.22587145162E+02 -0.72892666150E+02  0.81324970229E+02  0.00000000000E+00 0. -1.
</event>
<event>
 7    1  0.2394257E-009  0.8429639E+02  0.7561462E-02  0.1317283E+00
         -2   -1    0    0    0  501 -0.00000000000E+00  0.00000000000E+00  0.16164179188E+02  0.16164179188E+02  0.00000000000E+00 0.  1.
          2   -1    0    0  501    0  0.00000000000E+00 -0.00000000000E+00 -0.76307985399E+03  0.76307985399E+03  0.00000000000E+00 0. -1.
         25    2    1    2    0    0 -0.96680165301E+01 -0.13776080945E-02 -0.34259066474E+03  0.36484196618E+03  0.12509127136E+03 0.  0.
          5    1    3    3  502    0 -0.56371987383E+01 -0.38988337546E+02 -0.29785955533E+02  0.49563535197E+02  0.41800000000E+01 0. -1.
         -5    1    3    3    0  502 -0.40308177918E+01  0.38986959938E+02 -0.31280470921E+03  0.31527843098E+03  0.41800000000E+01 0. -1.
        -11    1    1    2    0    0 -0.38301755052E+02  0.11954995393E+02 -0.14737120705E+03  0.15273578173E+03  0.00000000000E+00 0.  1.
         11    1    1    2    0    0  0.47969771582E+02 -0.11953617785E+02 -0.25695380302E+03  0.26166628527E+03  0.00000000000E+00 0. -1.
</event>
<event>
 7    1  0.2493004E-009  0.4300917E+03  0.7561462E-02  0.1033831E+00
         -2   -1    0    0    0  501 -0.00000000000E+00  0.00000000000E+00  0.11122845980E+03  0.11122845980E+03  0.00000000000E+00 0. -1.
          2   -1    0    0  501    0  0.00000000000E+00 -0.00000000000E+00 -0.16956754259E+04  0.16956754259E+04  0.00000000000E+00 0.  1.
         25    2    1    2    0    0  0.16844574681E+03 -0.38483145985E+03 -0.83061825008E+03  0.93917239170E+03  0.12509549101E+03 0.  0.
          5    1    3    3  502    0 -0.18062230125E+02 -0.31825637303E+02 -0.47130460551E+02  0.59815282818E+02  0.41800000000E+01 0.  1.
         -5    1    3    3    0  502  0.18650797693E+03 -0.35300582254E+03 -0.78348778953E+03  0.87935710888E+03  0.41800000000E+01 0.  1.
        -11    1    1    2    0    0 -0.12520296428E+03  0.21468183246E+03 -0.37074350192E+03  0.44633486943E+03  0.00000000000E+00 0. -1.
         11    1    1    2    0    0 -0.43242782526E+02  0.17014962739E+03 -0.38308521415E+03  0.42139662462E+03  0.00000000000E+00 0.  1.
</event>
<event>
 7    1  0.2394257E-009  0.1093390E+03  0.7561462E-02  0.1261799E+00
         -2   -1    0    0    0  501 -0.00000000000E+00  0.00000000000E+00  0.23481880768E+02  0.23481880768E+02  0.00000000000E+00 0.  1.
          2   -1    0    0  501    0  0.00000000000E+00 -0.00000000000E+00 -0.57649299377E+03  0.57649299377E+03  0.00000000000E+00 0. -1.
         25    2    1    2    0    0 -0.44413946395E+01 -0.40197917975E+02 -0.31597434542E+03  0.34223250608E+03  0.12509077766E+03 0.  0.
          5    1    3    3  502    0 -0.38572658778E+02  0.28974264606E+02 -0.75853875859E+02  0.89992449114E+02  0.41800000000E+01 0.  1.
         -5    1    3    3    0  502  0.34131264138E+02 -0.69172182581E+02 -0.24012046956E+03  0.25224005696E+03  0.41800000000E+01 0.  1.
        -11    1    1    2    0    0  0.41481071791E+02  0.47744328883E+01 -0.15891583159E+03  0.16430981728E+03  0.00000000000E+00 0. -1.
         11    1    1    2    0    0 -0.37039677151E+02  0.35423485086E+02 -0.78120935993E+02  0.93432551177E+02  0.00000000000E+00 0.  1.
</event>
<event>
 7    1  0.2394257E-009  0.9290437E+02  0.7561462E-02  0.1295967E+00
          3   -1    0    0  501    0  0.00000000000E+00  0.00000000000E+00  0.36042366932E+03  0.36042366932E+03  0.00000000000E+00 0. -1.
         -3   -1    0    0    0  501 -0.00000000000E+00 -0.00000000000E+00 -0.39642163671E+02  0.39642163671E+02  0.00000000000E+00 0.  1.
         25    2    1    2    0    0 -0.34609313104E+02 -0.24391576011E+02  0.21327079357E+03  0.25084975792E+03  0.12509362944E+03 0.  0.
          5    1    3    3  502    0 -0.81563906752E+02 -0.22369146727E+02  0.14352076551E+03  0.16663952755E+03  0.41800000000E+01 0.  1.
         -5    1    3    3    0  502  0.46954593648E+02 -0.20224292841E+01  0.69750028061E+02  0.84210230372E+02  0.41800000000E+01 0.  1.
        -11    1    1    2    0    0  0.12427528120E+02  0.28767313908E+02 -0.73201982760E+01  0.32180539266E+02  0.00000000000E+00 0.  1.
         11    1    1    2    0    0  0.22181784985E+02 -0.43757378971E+01  0.11483091035E+03  0.11703553580E+03  0.00000000000E+00 0. -1.
</event>
<event>
 7    1  0.2394257E-009  0.3164144E+03  0.7561462E-02  0.1077311E+00
         -2   -1    0    0    0  501 -0.00000000000E+00  0.00000000000E+00  0.29369312671E+02  0.29369312671E+02  0.00000000000E+00 0.  1.
          2   -1    0    0  501    0  0.00000000000E+00 -0.00000000000E+00 -0.41518151593E+04  0.41518151593E+04  0.00000000000E+00 0. -1.
         25    2    1    2    0    0 -0.27108244003E+03 -0.13294975136E+03 -0.29105049429E+04  0.29287963890E+04  0.12509172413E+03 0.  0.
          5    1    3    3  502    0 -0.18828811117E+03 -0.14775766256E+03 -0.23200039950E+04  0.23323208932E+04  0.41800000000E+01 0.  1.
         -5    1    3    3    0  502 -0.82794328851E+02  0.14807911197E+02 -0.59050094790E+03  0.59647549572E+03  0.41800000000E+01 0.  1.
        -11    1    1    2    0    0  0.16448218815E+03  0.43647152404E+02 -0.79002404033E+03  0.80814444775E+03  0.00000000000E+00 0. -1.
         11    1    1    2    0    0  0.10660025188E+03  0.89302598960E+02 -0.42191686340E+03  0.44424363530E+03  0.00000000000E+00 0.  1.
</event>
<event>
 7    1  0.2394257E-009  0.9988011E+02  0.7561462E-02  0.1280548E+00
          1   -1    0    0  501    0  0.00000000000E+00  0.00000000000E+00  0.11715453542E+03  0.11715453542E+03  0.00000000000E+00 0. -1.
         -1   -1    0    0    0  501 -0.00000000000E+00 -0.00000000000E+00 -0.20556253304E+03  0.20556253304E+03  0.00000000000E+00 0.  1.
         25    2    1    2    0    0 -0.27606764758E+02 -0.80420859191E+02 -0.12107715727E+03  0.19373305015E+03  0.12507265350E+03 0.  0.
          5    1    3    3  502    0  0.18352807561E+02  0.64967562602E+00  0.18141468427E+02  0.26150198861E+02  0.41800000000E+01 0. -1.
         -5    1    3    3    0  502 -0.45959572319E+02 -0.81070534817E+02 -0.13921862570E+03  0.16758285128E+03  0.41800000000E+01 0. -1.
        -11    1    1    2    0    0  0.27275794298E+02  0.47925504587E+02  0.63560523528E+02  0.84147270280E+02  0.00000000000E+00 0. -1.
         11    1    1    2    0    0  0.33097045970E+00  0.32495354604E+02 -0.30891363877E+02  0.44836748036E+02  0.00000000000E+00 0.  1.
</event>
<event>
 7    1  0.2394257E-009  0.1016949E+03  0.7561462E-02  0.1276772E+00
         -2   -1    0    0    0  501 -0.00000000000E+00  0.00000000000E+00  0.34118532242E+03  0.34118532242E+03  0.00000000000E+00 0.  1.
          2   -1    0    0  501    0  0.00000000000E+00 -0.00000000000E+00 -0.41738866628E+02  0.41738866628E+02  0.00000000000E+00 0. -1.
         25    2    1    2    0    0  0.33774270183E+02 -0.33838495661E+02  0.19348350564E+03  0.23530409848E+03  0.12508559747E+03 0.  0.
          5    1    3    3  502    0  0.60118840533E+02 -0.41358509499E+02  0.19428487848E+03  0.20757863016E+03  0.41800000000E+01 0. -1.
         -5    1    3    3    0  502 -0.26344570350E+02  0.75200138385E+01 -0.80137284064E+00  0.27725468318E+02  0.41800000000E+01 0. -1.
        -11    1    1    2    0    0 -0.48714824765E+02 -0.15430823143E+02  0.48251340728E+02  0.70281123616E+02  0.00000000000E+00 0. -1.
         11    1    1    2    0    0  0.14940554582E+02  0.49269318803E+02  0.57711609430E+02  0.77338966954E+02  0.00000000000E+00 0.  1.
</event>
<event>
 7    1  0.2394257E-009  0.8730388E+02  0.7561462E-02  0.1309515E+00
          1   -1    0    0  501    0  0.00000000000E+00  0.00000000000E+00  0.96737923732E+03  0.96737923732E+03  0.00000000000E+00 0. -1.
         -1   -1    0    0    0  501 -0.00000000000E+00 -0.00000000000E+00 -0.19041189860E+02  0.19041189860E+02  0.00000000000E+00 0.  1.
         25    2    1    2    0    0 -0.28605866865E+02  0.14042314352E+02  0.78070284231E+03  0.79130262729E+03  0.12508971878E+03 0.  0.
          5    1    3    3  502    0 -0.10424323128E+02  0.46584160981E+02  0.11553801400E+03  0.12508099634E+03  0.41800000000E+01 0.  1.
         -5    1    3    3    0  502 -0.18181543737E+02 -0.32541846629E+02  0.66516482831E+03  0.66622163095E+03  0.41800000000E+01 0.  1.
        -11    1    1    2    0    0 -0.10946181537E+02  0.28836278549E+02  0.21024635211E+02  0.37328074376E+02  0.00000000000E+00 0.  1.
         11    1    1    2    0    0  0.39552048402E+02 -0.42878592901E+02  0.14661056994E+03  0.15778972552E+03  0.00000000000E+00 0. -1.
</event>
<event>
 7    1  0.2394257E-009  0.1208557E+03  0.7561462E-02  0.1241692E+00
         -2   -1    0    0    0  501 -0.00000000000E+00  0.00000000000E+00  0.30388914051E+02  0.30388914051E+02  0.00000000000E+00 0.  1.
          2   -1    0    0  501    0  0.00000000000E+00 -0.00000000000E+00 -0.58373268668E+03  0.58373268668E+03  0.00000000000E+00 0. -1.
         25    2    1    2    0    0 -0.44905489134E+02  0.43910486624E+02 -0.19500395964E+03  0.24003886332E+03  0.12508987904E+03 0.  0.
          5    1    3    3  502    0 -0.35348407001E+02  0.87742851985E+02 -0.13841360005E+03  0.16770245983E+03  0.41800000000E+01 0. -1.
         -5    1    3    3    0  502 -0.95570821324E+01 -0.43832365361E+02 -0.56590359585E+02  0.72336403491E+02  0.41800000000E+01 0. -1.
        -11    1    1    2    0    0  0.54052662590E+02  0.30358564782E+01 -0.24770076807E+03  0.25354797822E+03  0.00000000000E+00 0. -1.
         11    1    1    2    0    0 -0.91471734562E+01 -0.46946343102E+02 -0.11063904491E+03  0.12053475919E+03  0.00000000000E+00 0.  1.
</event>
<event>
 7    1  0.2394257E-009  0.1117925E+03  0.7561462E-02  0.1257286E+00
         -1   -1    0    0    0  501 -0.00000000000E+00  0.00000000000E+00  0.26721987965E+03  0.26721987965E+03  0.00000000000E+00 0.  1.
          1   -1    0    0  501    0  0.00000000000E+00 -0.00000000000E+00 -0.62697267690E+02  0.62697267690E+02  0.00000000000E+00 0. -1.
         25    2    1    2    0    0 -0.57118189450E+02  0.24404622157E+02  0.15636038526E+03  0.20965236836E+03  0.12508985702E+03 0.  0.
          5    1    3    3  502    0 -0.30293652986E+02  0.68988501680E+02  0.48165558470E+02  0.89523807995E+02  0.41800000000E+01 0.  1.
         -5    1    3    3    0  502 -0.26824536464E+02 -0.44583879523E+02  0.10819482679E+03  0.12012856036E+03  0.41800000000E+01 0.  1.
        -11    1    1    2    0    0  0.49496164690E+02 -0.49316726523E+02  0.59575999664E+02  0.91822162739E+02  0.00000000000E+00 0.  1.
         11    1    1    2    0    0  0.76220247596E+01  0.24912104366E+02 -0.11413772967E+02  0.28442616243E+02  0.00000000000E+00 0. -1.
</event>
<event>
 7    1  0.2394257E-009  0.7813066E+02  0.7561462E-02  0.1334442E+00
          3   -1    0    0  501    0  0.00000000000E+00  0.00000000000E+00  0.92090720892E+03  0.92090720892E+03  0.00000000000E+00 0. -1.
         -3   -1    0    0    0  501 -0.00000000000E+00 -0.00000000000E+00 -0.15715984373E+02  0.15715984373E+02  0.00000000000E+00 0.  1.
         25    2    1    2    0    0  0.47502616618E+02  0.47572641994E+01  0.59444659289E+03  0.60933928835E+03  0.12509391026E+03 0.  0.
          5    1    3    3  502    0  0.41930748461E+02 -0.22103256872E+02  0.72901677309E+02  0.87056697533E+02  0.41800000000E+01 0. -1.
         -5    1    3    3    0  502  0.55718681567E+01  0.26860521071E+02  0.52154491558E+03  0.52228259082E+03  0.41800000000E+01 0. -1.
        -11    1    1    2    0    0  0.12841873676E+02  0.12749460452E+02  0.11335974406E+02  0.21353378587E+02  0.00000000000E+00 0.  1.
         11    1    1    2    0    0 -0.60344490294E+02 -0.17506724652E+02  0.29940865725E+03  0.30593052635E+03  0.00000000000E+00 0. -1.
</event>
<event>
 7    1  0.2394257E-009  0.9636850E+02  0.7561462E-02  0.1288123E+00
          2   -1    0    0  501    0  0.00000000000E+00  0.00000000000E+00  0.53961115316E+03  0.53961115316E+03  0.00000000000E+00 0. -1.
         -2   -1    0    0    0  501 -0.00000000000E+00 -0.00000000000E+00 -0.28093980915E+02  0.28093980915E+02  0.00000000000E+00 0.  1.
         25    2    1    2    0    0 -0.24498733443E+02  0.43170695085E+02  0.37318216940E+03  0.39670654861E+03  0.12508899750E+03 0.  0.
          5    1    3    3  502    0  0.10677720948E+02 -0.23576489711E+02  0.14117037236E+02  0.29776294801E+02  0.41800000000E+01 0. -1.
         -5    1    3    3    0  502 -0.35176454391E+02  0.66747184796E+02  0.35906513217E+03  0.36693025381E+03  0.41800000000E+01 0. -1.
        -11    1    1    2    0    0 -0.16132054347E+02 -0.47433101931E+02  0.38681972074E+02  0.63296424068E+02  0.00000000000E+00 0.  1.
         11    1    1    2    0    0  0.40630787789E+02  0.42624068460E+01  0.99653030768E+02  0.10770216140E+03  0.00000000000E+00 0. -1.
</event>
<event>
 7    1  0.2394257E-009  0.2299648E+03  0.7561462E-02  0.1126665E+00
          1   -1    0    0  501    0  0.00000000000E+00  0.00000000000E+00  0.93383181620E+02  0.93383181620E+02  0.00000000000E+00 0. -1.
         -1   -1    0    0    0  501 -0.00000000000E+00 -0.00000000000E+00 -0.63678669143E+03  0.63678669143E+03  0.00000000000E+00 0.  1.
         25    2    1    2    0    0  0.21416024193E+03  0.10833020489E+02 -0.22148640262E+03  0.33269628019E+03  0.12509446332E+03 0.  0.
          5    1    3    3  502    0  0.60186184769E+02  0.56048322446E+02 -0.43941988232E+02  0.93338963010E+02  0.41800000000E+01 0. -1.
         -5    1    3    3    0  502  0.15397405716E+03 -0.45215301957E+02 -0.17754441438E+03  0.23935731718E+03  0.41800000000E+01 0. -1.
        -11    1    1    2    0    0 -0.11319833548E+03 -0.22514473909E+02 -0.97393223192E+02  0.15101723284E+03  0.00000000000E+00 0. -1.
         11    1    1    2    0    0 -0.10096190645E+03  0.11681453420E+02 -0.22452388400E+03  0.24645636002E+03  0.00000000000E+00 0.  1.
</event>
<event>
 7    1  0.2394257E-009  0.1329566E+03  0.7561462E-02  0.1223133E+00
          3   -1    0    0  501    0  0.00000000000E+00  0.00000000000E+00  0.98645450808E+03  0.98645450808E+03  0.00000000000E+00 0. -1.
         -3   -1    0    0    0  501 -0.00000000000E+00 -0.00000000000E+00 -0.20107614609E+02  0.20107614609E+02  0.00000000000E+00 0.  1.
         25    2    1    2    0    0  0.34438975681E+02  0.77121056092E+02  0.62605375875E+03  0.64399108586E+03  0.12509000555E+03 0.  0.
          5    1    3    3  502    0  0.60216651138E+02  0.10431507198E+01  0.38914562742E+03  0.39380061577E+03  0.41800000000E+01 0. -1.
         -5    1    3    3    0  502 -0.25777675457E+02  0.76077905372E+02  0.23690813132E+03  0.25019047009E+03  0.41800000000E+01 0. -1.
        -11    1    1    2    0    0 -0.62545259114E+02 -0.28027927044E+02  0.18275658725E+03  0.19518566626E+03  0.00000000000E+00 0. -1.
         11    1    1    2    0    0  0.28106283433E+02 -0.49093129047E+02  0.15753654747E+03  0.16738537056E+03  0.00000000000E+00 0.  1.
</event>
<event>
 7    1  0.2394257E-009  0.4480904E+03  0.7561462E-02  0.1028293E+00
         -1   -1    0    0    0  501 -0.00000000000E+00  0.00000000000E+00  0.22400284158E+03  0.22400284158E+03  0.00000000000E+00 0.  1.
          1   -1    0    0  501    0  0.00000000000E+00 -0.00000000000E+00 -0.94769647847E+03  0.94769647847E+03  0.00000000000E+00 0. -1.
         25    2    1    2    0    0 -0.24970316483E+03 -0.35869915064E+03 -0.48680661171E+03  0.66606708213E+03  0.12509168438E+03 0.  0.
          5    1    3    3  502    0 -0.57117057990E+02 -0.15596508402E+02 -0.85103498829E+02  0.10375783007E+03  0.41800000000E+01 0.  1.
         -5    1    3    3    0  502 -0.19258610684E+03 -0.34310264224E+03 -0.40170311288E+03  0.56230925207E+03  0.41800000000E+01 0.  1.
        -11    1    1    2    0    0  0.69845623198E+02  0.49385306003E+02 -0.22249185657E+02  0.88387475308E+02  0.00000000000E+00 0.  1.
         11    1    1    2    0    0  0.17985754163E+03  0.30931384464E+03 -0.21463783953E+03  0.41724476261E+03  0.00000000000E+00 0. -1.
</event>
<event>
 7    1  0.2394257E-009  0.1429517E+03  0.7561462E-02  0.1209411E+00
         -2   -1    0    0    0  501 -0.00000000000E+00  0.00000000000E+00  0.47579500192E+02  0.47579500192E+02  0.00000000000E+00 0.  1.
          2   -1    0    0  501    0  0.00000000000E+00 -0.00000000000E+00 -0.10056255280E+04  0.10056255280E+04  0.00000000000E+00 0. -1.
         25    2    1    2    0    0  0.11932422070E+03 -0.83245385305E+01 -0.85198964201E+03  0.86939229609E+03  0.12509615030E+03 0.  0.
          5    1    3    3  502    0  0.39126952867E+02  0.27333896664E+02 -0.61114232188E+03  0.61301751226E+03  0.41800000000E+01 0.  1.
         -5    1    3    3    0  502  0.80197267833E+02 -0.35658435194E+02 -0.24084732013E+03  0.25637478383E+03  0.41800000000E+01 0.  1.
        -11    1    1    2    0    0 -0.56750958547E+02  0.49428577691E+02 -0.52369546344E+02  0.91686558300E+02  0.00000000000E+00 0. -1.
         11    1    1    2    0    0 -0.62573262153E+02 -0.41104039161E+02 -0.53686839487E+02  0.92126173837E+02  0.00000000000E+00 0.  1.
</event>
<event>
 7    1  0.3831166E-009  0.1498195E+03  0.7561462E-02  0.1200695E+00
          1   -1    0    0  501    0  0.00000000000E+00  0.00000000000E+00  0.74431371058E+03  0.74431371058E+03  0.00000000000E+00 0.  1.
         -1   -1    0    0    0  501 -0.00000000000E+00 -0.00000000000E+00 -0.35675630456E+02  0.35675630456E+02  0.00000000000E+00 0. -1.
         25    2    1    2    0    0 -0.43973223471E+02 -0.95222051264E+02  0.52385320320E+03  0.54869846273E+03  0.12508773348E+03 0.  0.
          5    1    3    3  502    0 -0.15165030280E+02 -0.12205321323E+03  0.41540250013E+03  0.43324782114E+03  0.41800000000E+01 0. -1.
         -5    1    3    3    0  502 -0.28808193191E+02  0.26831161970E+02  0.10845070307E+03  0.11545064159E+03  0.41800000000E+01 0. -1.
        -11    1    1    2    0    0  0.48953812787E+02  0.79762591460E+01  0.87019375715E+02  0.10016220967E+03  0.00000000000E+00 0.  1.
         11    1    1    2    0    0 -0.49805893159E+01  0.87245792118E+02  0.97765501206E+02  0.13112866864E+03  0.00000000000E+00 0. -1.
</event>
<event>
 7    1  0.2394257E-009  0.1763517E+03  0.7561462E-02  0.1171381E+00
         -2   -1    0    0    0  501 -0.00000000000E+00  0.00000000000E+00  0.29208966972E+02  0.29208966972E+02  0.00000000000E+00 0.  1.
          2   -1    0    0  501    0  0.00000000000E+00 -0.00000000000E+00 -0.13813459205E+04  0.13813459205E+04  0.00000000000E+00 0. -1.
         25    2    1    2    0    0 -0.18202695536E+02  0.15406845449E+03 -0.93441553230E+03  0.95543077566E+03  0.12508858179E+03 0.  0.
          5    1    3    3  502    0 -0.62700788554E+02  0.13425498432E+03 -0.63670416985E+03  0.65373194966E+03  0.41800000000E+01 0.  1.
         -5    1    3    3    0  502  0.44498093018E+02  0.19813470165E+02 -0.29771136244E+03  0.30169882600E+03  0.41800000000E+01 0.  1.
        -11    1    1    2    0    0  0.13816185817E+02 -0.67410642895E+02 -0.75845973745E+02  0.10240944048E+03  0.00000000000E+00 0.  1.
         11    1    1    2    0    0  0.43865097192E+01 -0.86657811591E+02 -0.34187544748E+03  0.35271467132E+03  0.00000000000E+00 0. -1.
</event>
<event>
 7    1  0.2394257E-009  0.7046437E+02  0.7561462E-02  0.1358521E+00
         -1   -1    0    0    0  501 -0.00000000000E+00  0.00000000000E+00  0.33163636278E+03  0.33163636278E+03  0.00000000000E+00 0.  1.
          1   -1    0    0  501    0  0.00000000000E+00 -0.00000000000E+00 -0.44884852238E+02  0.44884852238E+02  0.00000000000E+00 0. -1.
         25    2    1    2    0    0  0.14378648267E+01 -0.40293991185E+02  0.22109848071E+03  0.25721144778E+03  0.12509003764E+03 0.  0.
          5    1    3    3  502    0 -0.19288959003E+02 -0.82094605387E+01 -0.95298207439E+01  0.23404039505E+02  0.41800000000E+01 0. -1.
         -5    1    3    3    0  502  0.20726823830E+02 -0.32084530647E+02  0.23062830145E+03  0.23380740828E+03  0.41800000000E+01 0. -1.
        -11    1    1    2    0    0 -0.35872039369E+02  0.22797806124E+02 -0.72787395853E+00  0.42509680934E+02  0.00000000000E+00 0. -1.
         11    1    1    2    0    0  0.34434174543E+02  0.17496185061E+02  0.66380903789E+02  0.76800086302E+02  0.00000000000E+00 0.  1.
</event>
<event>
 7    1  0.2394257E-009  0.1112842E+03  0.7561462E-02  0.1258210E+00
         -1   -1    0    0    0  501 -0.00000000000E+00  0.00000000000E+00  0.48595901281E+03  0.48595901281E+03  0.00000000000E+00 0.  1.
          1   -1    0    0  501    0  0.00000000000E+00 -0.00000000000E+00 -0.52776216594E+02  0.52776216594E+02  0.00000000000E+00 0. -1.
         25    2    1    2    0    0 -0.20831323421E+02  0.48940583536E+02  0.56235735175E+02  0.14710129952E+03  0.12508880708E+03 0.  0.
          5    1    3    3  502    0 -0.26188404951E+02 -0.28314807736E+02 -0.15195118108E+02  0.41664432137E+02  0.41800000000E+01 0. -1.
         -5    1    3    3    0  502  0.53570815297E+01  0.77255391272E+02  0.71430853283E+02  0.10543686738E+03  0.41800000000E+01 0. -1.
        -11    1    1    2    0    0  0.54519733761E+02 -0.47808845721E+02  0.25333018848E+03  0.26350383582E+03  0.00000000000E+00 0.  1.
         11    1    1    2    0    0 -0.33688410340E+02 -0.11317378146E+01  0.12361687256E+03  0.12813009406E+03  0.00000000000E+00 0. -1.
</event>
<event>
 7    1  0.2394257E-009  0.9930091E+02  0.7561462E-02  0.1281773E+00
         -3   -1    0    0    0  501 -0.00000000000E+00  0.00000000000E+00  0.31465054256E+03  0.31465054256E+03  0.00000000000E+00 0.  1.
          3   -1    0    0  501    0  0.00000000000E+00 -0.00000000000E+00 -0.50797512147E+02  0.50797512147E+02  0.00000000000E+00 0. -1.
         25    2    1    2    0    0 -0.27228574060E+02 -0.52899016309E+01  0.58520781206E+02  0.14086063607E+03  0.12509060179E+03 0.  0.
          5    1    3    3  502    0 -0.62702980615E+02  0.29090808689E+02  0.73924951825E+01  0.69642374408E+02  0.41800000000E+01 0. -1.
         -5    1    3    3    0  502  0.35474406556E+02 -0.34380710320E+02  0.51128286023E+02  0.71218261663E+02  0.41800000000E+01 0. -1.
        -11    1    1    2    0    0  0.45349484556E+02  0.25986091724E+02  0.17912108797E+03  0.18659104177E+03  0.00000000000E+00 0.  1.
         11    1    1    2    0    0 -0.18120910497E+02 -0.20696190093E+02  0.26211161234E+02  0.37996376865E+02  0.00000000000E+00 0. -1.
</event>
<event>
 7    1  0.2394257E-009  0.1351959E+03  0.7561462E-02  0.1219943E+00
          2   -1    0    0  501    0  0.00000000000E+00  0.00000000000E+00  0.77491034120E+03  0.77491034120E+03  0.00000000000E+00 0.  1.
         -2   -1    0    0    0  501 -0.00000000000E+00 -0.00000000000E+00 -0.25290935890E+02  0.25290935890E+02  0.00000000000E+00 0. -1.
         25    2    1    2    0    0 -0.85656177632E+02 -0.11200492452E+02  0.47667930092E+03  0.50033377936E+03  0.12509317744E+03 0.  0.
          5    1    3    3  502    0 -0.31438576858E+02 -0.63451634204E+02  0.16391297295E+03  0.17860411277E+03  0.41800000000E+01 0.  1.
         -5    1    3    3    0  502 -0.54217600774E+02  0.52251141751E+02  0.31276632797E+03  0.32172966658E+03  0.41800000000E+01 0.  1.
        -11    1    1    2    0    0  0.82869651927E+02  0.42145928452E+02  0.19796944781E+03  0.21871342154E+03  0.00000000000E+00 0.  1.
         11    1    1    2    0    0  0.27865257054E+01 -0.30945436000E+02  0.74970656577E+02  0.81154076190E+02  0.00000000000E+00 0. -1.
</event>
<event>
 7    1  0.2394257E-009  0.8127680E+02  0.7561462E-02  0.1325467E+00
          1   -1    0    0  501    0  0.00000000000E+00  0.00000000000E+00  0.19844097998E+03  0.19844097998E+03  0.00000000000E+00 0. -1.
         -1   -1    0    0    0  501 -0.00000000000E+00 -0.00000000000E+00 -0.69748345953E+02  0.69748345953E+02  0.00000000000E+00 0.  1.
         25    2    1    2    0    0  0.16383263545E+02 -0.39601705894E+02  0.89501800190E+02  0.15967121584E+03  0.12509044126E+03 0.  0.
          5    1    3    3  502    0  0.80501322362E+00 -0.75660791710E+02  0.17853699661E+02  0.77855188909E+02  0.41800000000E+01 0. -1.
         -5    1    3    3    0  502  0.15578250322E+02  0.36059085816E+02  0.71648100529E+02  0.81816026929E+02  0.41800000000E+01 0. -1.
        -11    1    1    2    0    0 -0.25041330848E+01  0.30657541677E+02  0.68381490758E+02  0.74981223132E+02  0.00000000000E+00 0. -1.
         11    1    1    2    0    0 -0.13879130461E+02  0.89441642174E+01 -0.29190656919E+02  0.33536886964E+02  0.00000000000E+00 0.  1.
</event>
<event>
 7    1  0.2394257E-009  0.1212906E+03  0.7561462E-02  0.1240983E+00
          1   -1    0    0  501    0  0.00000000000E+00  0.00000000000E+00  0.34536630698E+03  0.34536630698E+03  0.00000000000E+00 0. -1.
         -1   -1    0    0    0  501 -0.00000000000E+00 -0.00000000000E+00 -0.50061026658E+02  0.50061026658E+02  0.00000000000E+00 0.  1.
         25    2    1    2    0    0 -0.67780480139E+02  0.66270394302E+01  0.11384268850E+03  0.18233223710E+03  0.12508707297E+03 0.  0.
          5    1    3    3  502    0 -0.43224168244E+02 -0.55147615199E+02  0.32939386056E+02  0.77537498904E+02  0.41800000000E+01 0. -1.
         -5    1    3    3    0  502 -0.24556311895E+02  0.61774654629E+02  0.80903302443E+02  0.10479473820E+03  0.41800000000E+01 0. -1.
        -11    1    1    2    0    0 -0.74723374773E+01 -0.26839649683E+02  0.82875026570E+02  0.87432674965E+02  0.00000000000E+00 0. -1.
         11    1    1    2    0    0  0.75252817616E+02  0.20212610253E+02  0.98587565257E+02  0.12566242157E+03  0.00000000000E+00 0.  1.
</event>
<event>
 7    1  0.2394257E-009  0.1195722E+03  0.7561462E-02  0.1243804E+00
          1   -1    0    0  501    0  0.00000000000E+00  0.00000000000E+00  0.77946002102E+03  0.77946002102E+03  0.00000000000E+00 0. -1.
         -1   -1    0    0    0  501 -0.00000000000E+00 -0.00000000000E+00 -0.28154779242E+02  0.28154779242E+02  0.00000000000E+00 0.  1.
         25    2    1    2    0    0 -0.19229780594E+02  0.80187114635E+02  0.55922557683E+03  0.57894845231E+03  0.12509319259E+03 0.  0.
          5    1    3    3  502    0 -0.25550943276E+02  0.95194114295E+02  0.55183514715E+03  0.56058386717E+03  0.41800000000E+01 0.  1.
         -5    1    3    3    0  502  0.63211626813E+01 -0.15006999660E+02  0.73904296787E+01  0.18364585138E+02  0.41800000000E+01 0.  1.
        -11    1    1    2    0    0  0.56304535017E+02 -0.40414095592E+02  0.11656739403E+03  0.13561510660E+03  0.00000000000E+00 0. -1.
         11    1    1    2    0    0 -0.37074754423E+02 -0.39773019043E+02  0.75512270918E+02  0.93051241360E+02  0.00000000000E+00 0.  1.
</event>
<event>
 7    1  0.2394257E-009  0.1106019E+03  0.7561462E-02  0.1259459E+00
          1   -1    0    0  501    0  0.00000000000E+00  0.00000000000E+00  0.15485650862E+03  0.15485650862E+03  0.00000000000E+00 0. -1.
         -1   -1    0    0    0  501 -0.00000000000E+00 -0.00000000000E+00 -0.11177364970E+03  0.11177364970E+03  0.00000000000E+00 0.  1.
         25    2    1    2    0    0  0.58680878875E+02 -0.10550705827E+02 -0.15753603433E+02  0.13946397362E+03  0.12508901221E+03 0.  0.
          5    1    3    3  502    0  0.12236419889E+02 -0.48279675807E+02  0.34894915851E+02  0.60957235994E+02  0.41800000000E+01 0.  1.
         -5    1    3    3    0  502  0.46444458986E+02  0.37728969980E+02 -0.50648519284E+02  0.78506737621E+02  0.41800000000E+01 0.  1.
        -11    1    1    2    0    0  0.10323439863E+02 -0.29638064104E+02  0.26263785497E+02  0.40924011082E+02  0.00000000000E+00 0.  1.
         11    1    1    2    0    0 -0.69004318738E+02  0.40188769931E+02  0.32572676856E+02  0.86242173619E+02  0.00000000000E+00 0. -1.
</event>
<event>
 7    1  0.2394257E-009  0.4362160E+03  0.7561462E-02  0.1031914E+00
          2   -1    0    0  501    0  0.00000000000E+00  0.00000000000E+00  0.58088358222E+03  0.58088358222E+03  0.00000000000E+00 0. -1.
         -2   -1    0    0    0  501 -0.00000000000E+00 -0.00000000000E+00 -0.34537933027E+03  0.34537933027E+03  0.00000000000E+00 0.  1.
         25    2    1    2    0    0  0.42925312456E+03 -0.79402522931E+01  0.18695239387E+03  0.48468526827E+03  0.12508924476E+03 0.  0.
          5    1    3    3  502    0  0.18171565032E+03 -0.33490701797E+02  0.22069537448E+02  0.18613635207E+03  0.41800000000E+01 0.  1.
         -5    1    3    3    0  502  0.24753747424E+03  0.25550449504E+02  0.16488285643E+03  0.29854891620E+03  0.41800000000E+01 0.  1.
        -11    1    1    2    0    0 -0.37549060469E+03  0.37516160324E+02  0.37365238619E+02  0.37920550834E+03  0.00000000000E+00 0.  1.
         11    1    1    2    0    0 -0.53762519866E+02 -0.29575908031E+02  0.11186619457E+02  0.62372135871E+02  0.00000000000E+00 0. -1.
</event>
<event>
 7    1  0.2394257E-009  0.1326436E+03  0.7561462E-02  0.1223585E+00
         -2   -1    0    0    0  501 -0.00000000000E+00  0.00000000000E+00  0.22226355527E+02  0.22226355527E+02  0.00000000000E+00 0.  1.
          2   -1    0    0  501    0  0.00000000000E+00 -0.00000000000E+00 -0.10497888833E+04  0.10497888833E+04  0.00000000000E+00 0. -1.
         25    2    1    2    0    0 -0.90725436224E+02 -0.53224840805E+02 -0.65431561652E+03  0.67441834401E+03  0.12508872152E+03 0.  0.
          5    1    3    3  502    0 -0.50580602919E+02 -0.69000748291E+02 -0.59402751945E+03  0.60017136463E+03  0.41800000000E+01 0. -1.
         -5    1    3    3    0  502 -0.40144833305E+02  0.15775907486E+02 -0.60288097067E+02  0.74246979373E+02  0.41800000000E+01 0. -1.
        -11    1    1    2    0    0  0.10770818518E+03  0.40485438529E+02 -0.29907499570E+03  0.32044652743E+03  0.00000000000E+00 0. -1.
         11    1    1    2    0    0 -0.16982748952E+02  0.12739402276E+02 -0.74171915528E+02  0.77150367370E+02  0.00000000000E+00 0.  1.
</event>
<event>
 7    1  0.2394257E-009  0.4941551E+02  0.7561462E-02  0.1448520E+00
         -1   -1    0    0    0  501 -0.00000000000E+00  0.00000000000E+00  0.45464711644E+02  0.45464711644E+02  0.00000000000E+00 0.  1.
          1   -1    0    0  501    0  0.00000000000E+00 -0.00000000000E+00 -0.27269613063E+03  0.27269613063E+03  0.00000000000E+00 0. -1.
         25    2    1    2    0    0 -0.26811227265E+02 -0.90518913300E+01 -0.13859534105E+03  0.18883244138E+03  0.12509294030E+03 0.  0.
          5    1    3    3  502    0 -0.14640516490E+02  0.85288711479E+01 -0.15841842361E+03  0.15937677279E+03  0.41800000000E+01 0. -1.
         -5    1    3    3    0  502 -0.12170710775E+02 -0.17580762478E+02  0.19823082559E+02  0.29455668592E+02  0.41800000000E+01 0. -1.
        -11    1    1    2    0    0  0.15864999019E+01  0.27999154683E+02  0.67631629200E+01  0.28848050499E+02  0.00000000000E+00 0.  1.
         11    1    1    2    0    0  0.25224727363E+02 -0.18947263353E+02 -0.95399240855E+02  0.10048035039E+03  0.00000000000E+00 0. -1.
</event>
<event>
 7    1  0.2394257E-009  0.1986117E+03  0.7561462E-02  0.1150916E+00
         -4   -1    0    0    0  501 -0.00000000000E+00  0.00000000000E+00  0.16943995064E+03  0.16943995064E+03  0.00000000000E+00 0.  1.
          4   -1    0    0  501    0  0.00000000000E+00 -0.00000000000E+00 -0.29029526012E+03  0.29029526012E+03  0.00000000000E+00 0. -1.
         25    2    1    2    0    0  0.16795698051E+03  0.60730789964E+02 -0.13551613625E+03  0.25672869242E+03  0.12508885713E+03 0.  0.
          5    1    3    3  502    0  0.13455380402E+03  0.98637391748E+02 -0.96707522844E+02  0.19288306976E+03  0.41800000000E+01 0.  1.
         -5    1    3    3    0  502  0.33403176491E+02 -0.37906601785E+02 -0.38808613407E+02  0.63845622662E+02  0.41800000000E+01 0.  1.
        -11    1    1    2    0    0 -0.29987468406E+02 -0.18985985290E+02 -0.35675927501E+02  0.50323828371E+02  0.00000000000E+00 0. -1.
         11    1    1    2    0    0 -0.13796951210E+03 -0.41744804673E+02  0.50336754268E+02  0.15268268997E+03  0.00000000000E+00 0.  1.
</event>
<event>
 7    1  0.2394257E-009  0.8670580E+02  0.7561462E-02  0.1311031E+00
          1   -1    0    0  501    0  0.00000000000E+00  0.00000000000E+00  0.16965307707E+03  0.16965307707E+03  0.00000000000E+00 0. -1.
         -1   -1    0    0    0  501 -0.00000000000E+00 -0.00000000000E+00 -0.79821968965E+02  0.79821968965E+02  0.00000000000E+00 0.  1.
         25    2    1    2    0    0  0.41662716817E+02 -0.66215522645E+01  0.54882383366E+02  0.14297473518E+03  0.12510024768E+03 0.  0.
          5    1    3    3  502    0 -0.37063332470E+02  0.29667808414E+01 -0.11844254123E+02  0.39246033661E+02  0.41800000000E+01 0. -1.
         -5    1    3    3    0  502  0.78726049287E+02 -0.95883331060E+01  0.66726637489E+02  0.10372870152E+03  0.41800000000E+01 0. -1.
        -11    1    1    2    0    0 -0.30521200965E+02  0.21973920938E+02  0.62563990815E+02  0.72997601717E+02  0.00000000000E+00 0. -1.
         11    1    1    2    0    0 -0.11141515852E+02 -0.15352368673E+02 -0.27615266075E+02  0.33502709140E+02  0.00000000000E+00 0.  1.
</event>
<event>
 7    1  0.2394257E-009  0.1254859E+03  0.7561462E-02  0.1234312E+00
          2   -1    0    0  501    0  0.00000000000E+00  0.00000000000E+00  0.85282141753E+03  0.85282141753E+03  0.00000000000E+00 0. -1.
         -2   -1    0    0    0  501 -0.00000000000E+00 -0.00000000000E+00 -0.21393142319E+02  0.21393142319E+02  0.00000000000E+00 0.  1.
         25    2    1    2    0    0  0.79948796066E+02  0.20966551532E+02  0.40302574435E+03  0.43001150150E+03  0.12509490213E+03 0.  0.
          5    1    3    3  502    0  0.10380524342E+03 -0.31327244530E+01  0.21379157276E+03  0.23771758771E+03  0.41800000000E+01 0. -1.
         -5    1    3    3    0  502 -0.23856447353E+02  0.24099275985E+02  0.18923417159E+03  0.19229391379E+03  0.41800000000E+01 0. -1.
        -11    1    1    2    0    0  0.14928601644E+02  0.24887446361E+01  0.25834990174E+02  0.29941671867E+02  0.00000000000E+00 0.  1.
         11    1    1    2    0    0 -0.94877397709E+02 -0.23455296168E+02  0.40256754069E+03  0.41426138649E+03  0.00000000000E+00 0. -1.
</event>
<event>
 7    1  0.2394257E-009  0.1021406E+03  0.7561462E-02  0.1275858E+00
         -1   -1    0    0    0  501 -0.00000000000E+00  0.00000000000E+00  0.26366729599E+02  0.26366729599E+02  0.00000000000E+00 0.  1.
          1   -1    0    0  501    0  0.00000000000E+00 -0.00000000000E+00 -0.60743680551E+03  0.60743680551E+03  0.00000000000E+00 0. -1.
         25    2    1    2    0    0 -0.51246752387E+02 -0.36306653919E+02 -0.28813795317E+03  0.32033620925E+03  0.12508958451E+03 0.  0.
          5    1    3    3  502    0  0.22366217805E+02 -0.70402627232E+01 -0.20136014187E+03  0.20276388271E+03  0.41800000000E+01 0. -1.
         -5    1    3    3    0  502 -0.73612970192E+02 -0.29266391196E+02 -0.86777811295E+02  0.11757232654E+03  0.41800000000E+01 0. -1.
        -11    1    1    2    0    0  0.48860733918E+02 -0.13957516355E+02 -0.21329136453E+03  0.21926100831E+03  0.00000000000E+00 0. -1.
         11    1    1    2    0    0  0.23860184697E+01  0.50264170273E+02 -0.79640758214E+02  0.94206317549E+02  0.00000000000E+00 0.  1.
</event>
<event>
 7    1  0.2394257E-009  0.7243811E+02  0.7561462E-02  0.1351993E+00
         -1   -1    0    0    0  501 -0.00000000000E+00  0.00000000000E+00  0.40628628211E+03  0.40628628211E+03  0.00000000000E+00 0.  1.
          1   -1    0    0  501    0  0.00000000000E+00 -0.00000000000E+00 -0.39683520835E+02  0.39683520835E+02  0.00000000000E+00 0. -1.
         25    2    1    2    0    0  0.19827743026E+02  0.18800015468E+01  0.31377175173E+03  0.33837828100E+03  0.12510185878E+03 0.  0.
          5    1    3    3  502    0 -0.46749412701E+02  0.87092219131E+01  0.20591088811E+03  0.21137200471E+03  0.41800000000E+01 0.  1.
         -5    1    3    3    0  502  0.66577155728E+02 -0.68292203663E+01  0.10786086362E+03  0.12700627629E+03  0.41800000000E+01 0.  1.
        -11    1    1    2    0    0 -0.60262384116E+01 -0.11688369497E+02  0.76981653836E+02  0.78096789679E+02  0.00000000000E+00 0.  1.
         11    1    1    2    0    0 -0.13801504615E+02  0.98083679500E+01 -0.24150644293E+02  0.29494732262E+02  0.00000000000E+00 0. -1.
</event>
<event>
 7    1  0.2394257E-009  0.7415290E+02  0.7561462E-02  0.1346514E+00
         -1   -1    0    0    0  501 -0.00000000000E+00  0.00000000000E+00  0.44679861060E+02  0.44679861060E+02  0.00000000000E+00 0.  1.
          1   -1    0    0  501    0  0.00000000000E+00 -0.00000000000E+00 -0.25754041869E+03  0.25754041869E+03  0.00000000000E+00 0. -1.
         25    2    1    2    0    0 -0.28393075879E+01 -0.39674284154E+01 -0.12075209687E+03  0.17393362785E+03  0.12509210944E+03 0.  0.
          5    1    3    3  502    0 -0.47667557559E+02  0.10353537673E+02 -0.53675760972E+01  0.49251142719E+02  0.41800000000E+01 0. -1.
         -5    1    3    3    0  502  0.44828249971E+02 -0.14320966088E+02 -0.11538452077E+03  0.12468248513E+03  0.41800000000E+01 0. -1.
        -11    1    1    2    0    0  0.20335548457E+02 -0.15764804657E+02  0.62294646651E+01  0.26473946191E+02  0.00000000000E+00 0.  1.
         11    1    1    2    0    0 -0.17496240869E+02  0.19732233072E+02 -0.98337925426E+02  0.10181270571E+03  0.00000000000E+00 0. -1.
</event>
<event>
 7    1  0.2394257E-009  0.8340013E+02  0.7561462E-02  0.1319670E+00
         -2   -1    0    0    0  501 -0.00000000000E+00  0.00000000000E+00  0.28875339934E+03  0.28875339934E+03  0.00000000000E+00 0.  1.
          2   -1    0    0  501    0  0.00000000000E+00 -0.00000000000E+00 -0.64364462528E+02  0.64364462528E+02  0.00000000000E+00 0. -1.
         25    2    1    2    0    0 -0.34152426203E+02 -0.72546850704E+02  0.13375743875E+03  0.19991926968E+03  0.12508888123E+03 0.  0.
          5    1    3    3  502    0 -0.23395095920E+02 -0.15701881916E+02  0.13880302003E+03  0.14169555525E+03  0.41800000000E+01 0.  1.
         -5    1    3    3    0  502 -0.10757330283E+02 -0.56844968788E+02 -0.50455812850E+01  0.58223714428E+02  0.41800000000E+01 0.  1.
        -11    1    1    2    0    0  0.23702170504E+02  0.45236657395E+02  0.10780311531E+03  0.11928813742E+03  0.00000000000E+00 0.  1.
         11    1    1    2    0    0  0.10450255699E+02  0.27310193309E+02 -0.17171617252E+02  0.33910454757E+02  0.00000000000E+00 0. -1.
</event>
<event>
 7    1  0.2394257E-009  0.1266307E+03  0.7561462E-02  0.1232543E+00
          1   -1    0    0  501    0  0.00000000000E+00  0.00000000000E+00  0.42942835202E+03  0.42942835202E+03  0.00000000000E+00 0. -1.
         -1   -1    0    0    0  501 -0.00000000000E+00 -0.00000000000E+00 -0.47528595952E+02  0.47528595952E+02  0.00000000000E+00 0.  1.
         25    2    1    2    0    0 -0.39269920998E+02 -0.73147895311E+02  0.13604253919E+03  0.20260263648E+03  0.12509002581E+03 0.  0.
          5    1    3    3  502    0 -0.69220688564E+02 -0.85820552633E+02  0.75322168557E+02  0.13359480699E+03  0.41800000000E+01 0.  1.
         -5    1    3    3    0  502  0.29950767565E+02  0.12672657322E+02  0.60720370632E+02  0.69007829491E+02  0.41800000000E+01 0.  1.
        -11    1    1    2    0    0  0.11655182110E+02 -0.14290328002E+02  0.10274193117E+03  0.10438372079E+03  0.00000000000E+00 0. -1.
         11    1    1    2    0    0  0.27614738889E+02  0.87438223313E+02  0.14311528571E+03  0.16997059070E+03  0.00000000000E+00 0.  1.
</event>
<event>
 7    1  0.2394257E-009  0.1144879E+03  0.7561462E-02  0.1252478E+00
         -2   -1    0    0    0  501 -0.00000000000E+00  0.00000000000E+00  0.73640703073E+02  0.73640703073E+02  0.00000000000E+00 0. -1.
          2   -1    0    0  501    0  0.00000000000E+00 -0.00000000000E+00 -0.22740031660E+03  0.22740031660E+03  0.00000000000E+00 0.  1.
         25    2    1    2    0    0 -0.50420845349E+02  0.15485616995E+02 -0.40128264570E+02  0.14156251662E+03  0.12509037739E+03 0.  0.
          5    1    3    3  502    0  0.29049880994E+01 -0.49302761428E+02 -0.27261089381E+02  0.56567133873E+02  0.41800000000E+01 0. -1.
         -5    1    3    3    0  502 -0.53325833448E+02  0.64788378423E+02 -0.12867175189E+02  0.84995382751E+02  0.41800000000E+01 0. -1.
        -11    1    1    2    0    0  0.46858481512E+02  0.26113680197E+02 -0.10340723378E+03  0.11649333707E+03  0.00000000000E+00 0.  1.
         11    1    1    2    0    0  0.35623638366E+01 -0.41599297192E+02 -0.10224115172E+02  0.42985165977E+02  0.00000000000E+00 0. -1.
</event>
<event>
 7    1  0.2394257E-009  0.1095894E+03  0.7561462E-02  0.1261332E+00
         -2   -1    0    0    0  501 -0.00000000000E+00  0.00000000000E+00  0.81896535872E+02  0.81896535872E+02  0.00000000000E+00 0.  1.
          2   -1    0    0  501    0  0.00000000000E+00 -0.00000000000E+00 -0.19208896109E+03  0.19208896109E+03  0.00000000000E+00 0. -1.
         25    2    1    2    0    0 -0.29884490119E+02  0.25599627452E+02 -0.11477644220E+03  0.17426491296E+03  0.12508478937E+03 0.  0.
          5    1    3    3  502    0  0.22736285361E+01  0.72903448510E+02 -0.73261995246E+02  0.10346436362E+03  0.41800000000E+01 0. -1.
         -5    1    3    3    0  502 -0.32158118655E+02 -0.47303821058E+02 -0.41514446950E+02  0.70800549346E+02  0.41800000000E+01 0. -1.
        -11    1    1    2    0    0  0.40938949926E+02 -0.48422261604E+02 -0.17838246738E+02  0.65870449267E+02  0.00000000000E+00 0. -1.
         11    1    1    2    0    0 -0.11054459808E+02  0.22822634153E+02  0.22422263715E+02  0.33850134733E+02  0.00000000000E+00 0.  1.
</event>
<event>
 7    1  0.2394257E-009  0.1409105E+03  0.7561462E-02  0.1212109E+00
          2   -1    0    0  501    0  0.00000000000E+00  0.00000000000E+00  0.12806724598E+04  0.12806724598E+04  0.00000000000E+00 0. -1.
         -2   -1    0    0    0  501 -0.00000000000E+00 -0.00000000000E+00 -0.23569048077E+02  0.23569048077E+02  0.00000000000E+00 0.  1.
         25    2    1    2    0    0 -0.22296963746E+02 -0.11149562989E+03  0.93831322385E+03  0.95341886945E+03  0.12508958590E+03 0.  0.
          5    1    3    3  502    0 -0.27638664121E+02  0.64094111143E+01  0.52985108185E+02  0.60248405743E+02  0.41800000000E+01 0. -1.
         -5    1    3    3    0  502  0.53417003747E+01 -0.11790504100E+03  0.88532811567E+03  0.89317046371E+03  0.41800000000E+01 0. -1.
        -11    1    1    2    0    0 -0.36177453161E+01 -0.10093684498E+02  0.25469779057E+01  0.11020782384E+02  0.00000000000E+00 0.  1.
         11    1    1    2    0    0  0.25914709062E+02  0.12158931439E+03  0.31624320998E+03  0.33980185605E+03  0.00000000000E+00 0. -1.
</event>
<event>
 7    1  0.2394257E-009  0.2847780E+03  0.7561462E-02  0.1093108E+00
         -2   -1    0    0    0  501 -0.00000000000E+00  0.00000000000E+00  0.52906120468E+02  0.52906120468E+02  0.00000000000E+00 0. -1.
          2   -1    0    0  501    0  0.00000000000E+00 -0.00000000000E+00 -0.16829218004E+04  0.16829218004E+04  0.00000000000E+00 0.  1.
         25    2    1    2    0    0 -0.16341687443E+03  0.21911152858E+03 -0.97261914454E+03  0.10180129450E+04  0.12508964437E+03 0.  0.
          5    1    3    3  502    0 -0.25287039856E+02  0.44212569955E+01 -0.23168529245E+02  0.34831523731E+02  0.41800000000E+01 0. -1.
         -5    1    3    3    0  502 -0.13812983457E+03  0.21469027159E+03 -0.94945061530E+03  0.98318142130E+03  0.41800000000E+01 0. -1.
        -11    1    1    2    0    0 -0.10504196035E+02 -0.27574513197E+02 -0.70196116763E+02  0.76145825369E+02  0.00000000000E+00 0.  1.
         11    1    1    2    0    0  0.17392107046E+03 -0.19153701539E+03 -0.58720041860E+03  0.64166915043E+03  0.00000000000E+00 0. -1.
</event>
<event>
 7    1  0.2394257E-009  0.1790721E+03  0.7561462E-02  0.1168704E+00
          2   -1    0    0  501    0  0.00000000000E+00  0.00000000000E+00  0.73599492358E+03  0.73599492358E+03  0.00000000000E+00 0. -1.
         -2   -1    0    0    0  501 -0.00000000000E+00 -0.00000000000E+00 -0.54004927853E+02  0.54004927853E+02  0.00000000000E+00 0.  1.
         25    2    1    2    0    0  0.14995226377E+03  0.53449846594E+02  0.45899713986E+03  0.50166521137E+03  0.12508813849E+03 0.  0.
          5    1    3    3  502    0  0.69769411440E+02 -0.14468017352E+02  0.31716993676E+03  0.32510203857E+03  0.41800000000E+01 0. -1.
         -5    1    3    3    0  502  0.80182852325E+02  0.67917863946E+02  0.14182720310E+03  0.17656317280E+03  0.41800000000E+01 0. -1.
        -11    1    1    2    0    0 -0.43056366890E+02 -0.60747265638E+02  0.10780354600E+03  0.13101788253E+03  0.00000000000E+00 0. -1.
         11    1    1    2    0    0 -0.10689589688E+03  0.72974190436E+01  0.11518930987E+03  0.15731675754E+03  0.00000000000E+00 0.  1.
</event>
<event>
 7    1  0.2394257E-009  0.1193609E+03  0.7561462E-02  0.1244155E+00
          1   -1    0    0  501    0  0.00000000000E+00  0.00000000000E+00  0.24107032871E+03  0.24107032871E+03  0.00000000000E+00 0. -1.
         -1   -1    0    0    0  501 -0.00000000000E+00 -0.00000000000E+00 -0.69496367673E+02  0.69496367673E+02  0.00000000000E+00 0.  1.
         25    2    1    2    0    0 -0.37867279558E+02  0.57069457959E+02  0.73277776095E+02  0.16033779574E+03  0.12509085650E+03 0.  0.
          5    1    3    3  502    0 -0.14536622562E+02  0.90157339038E+02  0.76920984551E+02  0.11947371863E+03  0.41800000000E+01 0.  1.
         -5    1    3    3    0  502 -0.23330656997E+02 -0.33087881079E+02 -0.36432084557E+01  0.40864077110E+02  0.41800000000E+01 0.  1.
        -11    1    1    2    0    0 -0.18457406102E+02 -0.45501903742E+02  0.71634420692E+02  0.86848081798E+02  0.00000000000E+00 0. -1.
         11    1    1    2    0    0  0.56324685660E+02 -0.11567554216E+02  0.26661764252E+02  0.63380818852E+02  0.00000000000E+00 0.  1.
</event>
<event>
 7    1  0.2394257E-009  0.9715105E+02  0.7561462E-02  0.1286404E+00
          1   -1    0    0  501    0  0.00000000000E+00  0.00000000000E+00  0.86785813450E+01  0.86785813450E+01  0.00000000000E+00 0. -1.
         -1   -1    0    0    0  501 -0.00000000000E+00 -0.00000000000E+00 -0.16664215530E+04  0.16664215530E+04  0.00000000000E+00 0.  1.
         25    2    1    2    0    0  0.38037848393E+02 -0.24088907481E+02 -0.11422512885E+04  0.11499615095E+04  0.12508522615E+03 0.  0.
          5    1    3    3  502    0  0.60376622587E+02 -0.33957785175E+02 -0.10892115332E+04  0.10914200402E+04  0.41800000000E+01 0.  1.
         -5    1    3    3    0  502 -0.22338774195E+02  0.98688776945E+01 -0.53039755277E+02  0.58541469227E+02  0.41800000000E+01 0.  1.
        -11    1    1    2    0    0  0.21520067598E+02  0.33514889739E+02 -0.19579758743E+03  0.19980754837E+03  0.00000000000E+00 0.  1.
         11    1    1    2    0    0 -0.59557915991E+02 -0.94259822583E+01 -0.31969409574E+03  0.32533107652E+03  0.00000000000E+00 0. -1.
</event>
<event>
 7    1  0.2394257E-009  0.2207880E+03  0.7561462E-02  0.1133297E+00
          2   -1    0    0  501    0  0.00000000000E+00  0.00000000000E+00  0.86544898166E+03  0.86544898166E+03  0.00000000000E+00 0. -1.
         -2   -1    0    0    0  501 -0.00000000000E+00 -0.00000000000E+00 -0.74650005096E+02  0.74650005096E+02  0.00000000000E+00 0.  1.
         25    2    1    2    0    0 -0.19983965073E+03  0.91262055429E+02  0.52826968006E+03  0.58564153700E+03  0.12507000528E+03 0.  0.
          5    1    3    3  502    0 -0.46461899069E+02  0.29861565875E+02  0.29262585618E+03  0.29782173407E+03  0.41800000000E+01 0.  1.
         -5    1    3    3    0  502 -0.15337775166E+03  0.61400489554E+02  0.23564382388E+03  0.28781980293E+03  0.41800000000E+01 0.  1.
        -11    1    1    2    0    0  0.57715683978E+02 -0.38223402664E+02  0.27002174743E+02  0.74305088178E+02  0.00000000000E+00 0.  1.
         11    1    1    2    0    0  0.14212396675E+03 -0.53038652764E+02  0.23552712176E+03  0.28015236158E+03  0.00000000000E+00 0. -1.
</event>
<event>
 7    1  0.2394257E-009  0.9287060E+02  0.7561462E-02  0.1296045E+00
         -2   -1    0    0    0  501 -0.00000000000E+00  0.00000000000E+00  0.15990497949E+02  0.15990497949E+02  0.00000000000E+00 0.  1.
          2   -1    0    0  501    0  0.00000000000E+00 -0.00000000000E+00 -0.79605825695E+03  0.79605825695E+03  0.00000000000E+00 0. -1.
         25    2    1    2    0    0  0.27267197405E+02  0.21045133240E+02 -0.50541445587E+03  0.52180252337E+03  0.12509078106E+03 0.  0.
          5    1    3    3  502    0 -0.34097615559E+02  0.11983957744E+02 -0.38086061354E+03  0.38259448765E+03  0.41800000000E+01 0. -1.
         -5    1    3    3    0  502  0.61364812964E+02  0.90611754960E+01 -0.12455384233E+03  0.13920803573E+03  0.41800000000E+01 0. -1.
        -11    1    1    2    0    0  0.26193975399E+02 -0.21243660572E+02 -0.16301589390E+03  0.16646801232E+03  0.00000000000E+00 0. -1.
         11    1    1    2    0    0 -0.53461172804E+02  0.19852733213E+00 -0.11163740923E+03  0.12377821921E+03  0.00000000000E+00 0.  1.
</event>
<event>
 7    1  0.2394257E-009  0.1148227E+03  0.7561462E-02  0.1251891E+00
          1   -1    0    0  501    0  0.00000000000E+00  0.00000000000E+00  0.80010524246E+02  0.80010524246E+02  0.00000000000E+00 0. -1.
         -1   -1    0    0    0  501 -0.00000000000E+00 -0.00000000000E+00 -0.41107895219E+03  0.41107895219E+03  0.00000000000E+00 0.  1.
         25    2    1    2    0    0  0.33365944008E+02  0.16810839210E+02 -0.36348045531E+03  0.38621494888E+03  0.12509218527E+03 0.  0.
          5    1    3    3  502    0  0.80894034038E+02  0.47647589804E+01 -0.23653086567E+03  0.25006173335E+03  0.41800000000E+01 0.  1.
         -5    1    3    3    0  502 -0.47528090030E+02  0.12046080230E+02 -0.12694958964E+03  0.13615321553E+03  0.41800000000E+01 0.  1.
        -11    1    1    2    0    0 -0.54770269693E+02  0.18663776124E+02  0.13980497006E+02  0.59527920155E+02  0.00000000000E+00 0.  1.
         11    1    1    2    0    0  0.21404325684E+02 -0.35474615334E+02  0.18431530358E+02  0.45346607397E+02  0.00000000000E+00 0. -1.
</event>
<event>
 7    1  0.2394257E-009  0.1993353E+03  0.7561462E-02  0.1150301E+00
         -1   -1    0    0    0  501 -0.00000000000E+00  0.00000000000E+00  0.34208990855E+03  0.34208990855E+03  0.00000000000E+00 0.  1.
          1   -1    0    0  501    0  0.00000000000E+00 -0.00000000000E+00 -0.12899870414E+03  0.12899870414E+03  0.00000000000E+00 0. -1.
         25    2    1    2    0    0  0.17169997676E+03  0.29924223644E+02  0.64024247697E+02  0.22388154617E+03  0.12508997260E+03 0.  0.
          5    1    3    3  502    0  0.25269628705E+02  0.48392696780E+02 -0.14512999697E+02  0.56643682761E+02  0.41800000000E+01 0.  1.
         -5    1    3    3    0  502  0.14643034805E+03 -0.18468473136E+02  0.78537247394E+02  0.16723786341E+03  0.41800000000E+01 0.  1.
        -11    1    1    2    0    0 -0.16328407302E+03 -0.53028202311E+02  0.12183887666E+03  0.21051933548E+03  0.00000000000E+00 0.  1.
         11    1    1    2    0    0 -0.84159037324E+01  0.23103978667E+02  0.27228080051E+02  0.36687731044E+02  0.00000000000E+00 0. -1.
</event>
<event>
 7    1  0.2394257E-009  0.8847965E+02  0.7561462E-02  0.1306576E+00
          2   -1    0    0  501    0  0.00000000000E+00  0.00000000000E+00  0.12605819104E+03  0.12605819104E+03  0.00000000000E+00 0. -1.
         -2   -1    0    0    0  501 -0.00000000000E+00 -0.00000000000E+00 -0.10879145001E+03  0.10879145001E+03  0.00000000000E+00 0.  1.
         25    2    1    2    0    0 -0.15123668687E+02  0.37349573712E+02  0.28265884148E+02  0.13442140288E+03  0.12508571994E+03 0.  0.
          5    1    3    3  502    0 -0.20729901270E+02 -0.32235025617E+02  0.48180408203E+02  0.61706157049E+02  0.41800000000E+01 0.  1.
         -5    1    3    3    0  502  0.56062325835E+01  0.69584599329E+02 -0.19914524055E+02  0.72715245828E+02  0.41800000000E+01 0.  1.
        -11    1    1    2    0    0  0.34300911476E+02 -0.11279552288E+02 -0.42154856027E+02  0.55505069269E+02  0.00000000000E+00 0.  1.
         11    1    1    2    0    0 -0.19177242789E+02 -0.26070021423E+02  0.31155712904E+02  0.44923168906E+02  0.00000000000E+00 0. -1.
</event>
<event>
 7    1  0.2394257E-009  0.5632857E+02  0.7561462E-02  0.1413918E+00
          1   -1    0    0  501    0  0.00000000000E+00  0.00000000000E+00  0.27291998834E+03  0.27291998834E+03  0.00000000000E+00 0. -1.
         -1   -1    0    0    0  501 -0.00000000000E+00 -0.00000000000E+00 -0.48343592324E+02  0.48343592324E+02  0.00000000000E+00 0.  1.
         25    2    1    2    0    0  0.27779002053E+01 -0.39057094565E+02  0.14928617565E+03  0.19866182820E+03  0.12508791460E+03 0.  0.
          5    1    3    3  502    0 -0.63338826897E+01 -0.29787313359E+02 -0.14724705124E+02  0.34083594999E+02  0.41800000000E+01 0. -1.
         -5    1    3    3    0  502  0.91117828950E+01 -0.92697812064E+01  0.16401088077E+03  0.16457823320E+03  0.41800000000E+01 0. -1.
        -11    1    1    2    0    0 -0.29382608449E+02  0.20560219951E+02  0.82011206142E+02  0.89509207664E+02  0.00000000000E+00 0. -1.
         11    1    1    2    0    0  0.26604708244E+02  0.18496874614E+02 -0.67209857801E+01  0.33092544796E+02  0.00000000000E+00 0.  1.
</event>
<event>
 7    1  0.2394257E-009  0.1186367E+03  0.7561462E-02  0.1245363E+00
         -1   -1    0    0    0  501 -0.00000000000E+00  0.00000000000E+00  0.47450922145E+02  0.47450922145E+02  0.00000000000E+00 0.  1.
          1   -1    0    0  501    0  0.00000000000E+00 -0.00000000000E+00 -0.40778752451E+03  0.40778752451E+03  0.00000000000E+00 0. -1.
         25    2    1    2    0    0 -0.77596430111E+01  0.63794776333E+02 -0.28830817217E+03  0.32077899384E+03  0.12509026822E+03 0.  0.
          5    1    3    3  502    0 -0.56496228041E+02  0.68349808180E+02 -0.15382851416E+03  0.17760688114E+03  0.41800000000E+01 0.  1.
         -5    1    3    3    0  502  0.48736585030E+02 -0.45550318471E+01 -0.13447965801E+03  0.14317211270E+03  0.41800000000E+01 0.  1.
        -11    1    1    2    0    0 -0.19961342753E+02 -0.68415389194E+02 -0.78076951701E+02  0.10571249250E+03  0.00000000000E+00 0. -1.
         11    1    1    2    0    0  0.27720985764E+02  0.46206128615E+01  0.60485215068E+01  0.28746960315E+02  0.00000000000E+00 0.  1.
</event>
<event>
 7    1  0.2394257E-009  0.8501550E+02  0.7561462E-02  0.1315392E+00
          1   -1    0    0  501    0  0.00000000000E+00  0.00000000000E+00  0.36072110938E+03  0.36072110938E+03  0.00000000000E+00 0. -1.
         -1   -1    0    0    0  501 -0.00000000000E+00 -0.00000000000E+00 -0.90336072844E+02  0.90336072844E+02  0.00000000000E+00 0.  1.
         25    2    1    2    0    0  0.28580628853E+02  0.46181868384E+02 -0.24577522945E+02  0.13856865431E+03  0.12509036738E+03 0.  0.
          5    1    3    3  502    0  0.36486104219E+02  0.12090180465E+02  0.45752577697E+02  0.59901410924E+02  0.41800000000E+01 0. -1.
         -5    1    3    3    0  502 -0.79054753663E+01  0.34091687919E+02 -0.70330100642E+02  0.78667243388E+02  0.41800000000E+01 0. -1.
        -11    1    1    2    0    0 -0.55230317823E+02 -0.19935605416E+02  0.12029321622E+03  0.13385915822E+03  0.00000000000E+00 0.  1.
         11    1    1    2    0    0  0.26649688970E+02 -0.26246262968E+02  0.17466934326E+03  0.17862936969E+03  0.00000000000E+00 0. -1.
</event>
<event>
 7    1  0.2394257E-009  0.1092840E+03  0.7561462E-02  0.1261902E+00
         -1   -1    0    0    0  501 -0.00000000000E+00  0.00000000000E+00  0.17001525565E+03  0.17001525565E+03  0.00000000000E+00 0.  1.
          1   -1    0    0  501    0  0.00000000000E+00 -0.00000000000E+00 -0.87411392556E+02  0.87411392556E+02  0.00000000000E+00 0. -1.
         25    2    1    2    0    0  0.50458716128E+02 -0.10504452149E+02  0.24157424105E+02  0.13743230385E+03  0.12509049306E+03 0.  0.
          5    1    3    3  502    0  0.34142271551E+02  0.49940644442E+02 -0.16274556139E+02  0.62786115117E+02  0.41800000000E+01 0. -1.
         -5    1    3    3    0  502  0.16316444577E+02 -0.60445096591E+02  0.40431980244E+02  0.74646188730E+02  0.41800000000E+01 0. -1.
        -11    1    1    2    0    0 -0.64249718700E+02  0.30314432830E+02  0.63555329155E+02  0.95321933755E+02  0.00000000000E+00 0.  1.
         11    1    1    2    0    0  0.13791002572E+02 -0.19809980681E+02 -0.51088901607E+01  0.24672410608E+02  0.00000000000E+00 0. -1.
</event>
<event>
 7    1  0.2394257E-009  0.2509478E+03  0.7561462E-02  0.1112707E+00
         -1   -1    0    0    0  501 -0.00000000000E+00  0.00000000000E+00  0.19770697449E+03  0.19770697449E+03  0.00000000000E+00 0.  1.
          1   -1    0    0  501    0  0.00000000000E+00 -0.00000000000E+00 -0.45142016957E+03  0.45142016957E+03  0.00000000000E+00 0. -1.
         25    2    1    2    0    0 -0.10653715807E+03  0.20275010303E+03 -0.30252993275E+03  0.39953458652E+03  0.12508299359E+03 0.  0.
          5    1    3    3  502    0 -0.25239143216E+02  0.17008452351E+03 -0.21839540989E+03  0.27799242247E+03  0.41800000000E+01 0. -1.
         -5    1    3    3    0  502 -0.81298014857E+02  0.32665579519E+02 -0.84134522859E+02  0.12154216405E+03  0.41800000000E+01 0. -1.
        -11    1    1    2    0    0  0.11943889082E+03 -0.17981526147E+03  0.54563968795E+02  0.22265759270E+03  0.00000000000E+00 0. -1.
         11    1    1    2    0    0 -0.12901732746E+02 -0.22934841562E+02 -0.57472311249E+01  0.26934964840E+02  0.00000000000E+00 0.  1.
</event>
<event>
 7    1  0.2394257E-009  0.1036899E+03  0.7561462E-02  0.1272723E+00
          1   -1    0    0  501    0  0.00000000000E+00  0.00000000000E+00  0.44365965873E+02  0.44365965873E+02  0.00000000000E+00 0. -1.
         -1   -1    0    0    0  501 -0.00000000000E+00 -0.00000000000E+00 -0.38832290430E+03  0.38832290430E+03  0.00000000000E+00 0.  1.
         25    2    1    2    0    0  0.49380687536E+02  0.14178574714E+02 -0.27608715825E+03  0.30742663908E+03  0.12509010827E+03 0.  0.
          5    1    3    3  502    0  0.66646184787E+02  0.52160886357E+02 -0.23003427141E+03  0.24514426453E+03  0.41800000000E+01 0.  1.
         -5    1    3    3    0  502 -0.17265497251E+02 -0.37982311643E+02 -0.46052886842E+02  0.62282374550E+02  0.41800000000E+01 0.  1.
        -11    1    1    2    0    0 -0.54697178959E+01 -0.32629002834E+02 -0.70168581211E+02  0.77577054784E+02  0.00000000000E+00 0.  1.
         11    1    1    2    0    0 -0.43910969640E+02  0.18450428120E+02  0.22988010382E+01  0.47685176300E+02  0.00000000000E+00 0. -1.
</event>
<event>
 7    1  0.2394257E-009  0.7182091E+02  0.7561462E-02  0.1354008E+00
         -2   -1    0    0    0  501 -0.00000000000E+00  0.00000000000E+00  0.40307614142E+03  0.40307614142E+03  0.00000000000E+00 0.  1.
          2   -1    0    0  501    0  0.00000000000E+00 -0.00000000000E+00 -0.40367583330E+02  0.40367583330E+02  0.00000000000E+00 0. -1.
         25    2    1    2    0    0 -0.65162798218E+02  0.16723178130E+02  0.21132401040E+03  0.25461784522E+03  0.12508618938E+03 0.  0.
          5    1    3    3  502    0 -0.27231675945E+02  0.13244262100E+02  0.21403138065E+03  0.21620332781E+03  0.41800000000E+01 0.  1.
         -5    1    3    3    0  502 -0.37931122273E+02  0.34789160296E+01 -0.27073702525E+01  0.38414517403E+02  0.41800000000E+01 0.  1.
        -11    1    1    2    0    0  0.47033887253E+02 -0.26676692714E+02  0.15809216636E+03  0.16708370821E+03  0.00000000000E+00 0.  1.
         11    1    1    2    0    0  0.18128910965E+02  0.99535145846E+01 -0.67076186769E+01  0.21742171319E+02  0.00000000000E+00 0. -1.
</event>
<event>
 7    1  0.2394257E-009  0.1002820E+03  0.7561462E-02  0.1279704E+00
         -2   -1    0    0    0  501 -0.00000000000E+00  0.00000000000E+00  0.46298464702E+02  0.46298464702E+02  0.00000000000E+00 0.  1.
          2   -1    0    0  501    0  0.00000000000E+00 -0.00000000000E+00 -0.29664460473E+03  0.29664460473E+03  0.00000000000E+00 0. -1.
         25    2    1    2    0    0 -0.80358818959E+00  0.35022935607E+02 -0.10519492230E+03  0.16715008390E+03  0.12508368038E+03 0.  0.
          5    1    3    3  502    0 -0.44616022170E+02 -0.24420687819E+02 -0.21281967700E+02  0.55293344781E+02  0.41800000000E+01 0. -1.
         -5    1    3    3    0  502  0.43812433980E+02  0.59443623427E+02 -0.83912954600E+02  0.11185673912E+03  0.41800000000E+01 0. -1.
        -11    1    1    2    0    0 -0.71906257947E+01  0.19332768971E+02 -0.37078273727E-01  0.20626740659E+02  0.00000000000E+00 0.  1.
         11    1    1    2    0    0  0.79942139843E+01 -0.54355704579E+02 -0.14511413946E+03  0.15516624487E+03  0.00000000000E+00 0. -1.
</event>
<event>
 7    1  0.2394257E-009  0.9746820E+02  0.7561462E-02  0.1285712E+00
         -3   -1    0    0    0  501 -0.00000000000E+00  0.00000000000E+00  0.30527116182E+03  0.30527116182E+03  0.00000000000E+00 0.  1.
          3   -1    0    0  501    0  0.00000000000E+00 -0.00000000000E+00 -0.59329843403E+02  0.59329843403E+02  0.00000000000E+00 0. -1.
         25    2    1    2    0    0  0.39142412821E+02 -0.92493928923E+01  0.42449543197E+02  0.13808135142E+03  0.12508723413E+03 0.  0.
          5    1    3    3  502    0  0.63802111663E+02  0.18194522283E+02  0.66349813546E+02  0.93922948481E+02  0.41800000000E+01 0. -1.
         -5    1    3    3    0  502 -0.24659698842E+02 -0.27443915175E+02 -0.23900270349E+02  0.44158402937E+02  0.41800000000E+01 0. -1.
        -11    1    1    2    0    0 -0.40022006538E+02  0.42318952074E+02  0.81846988440E+02  0.10045687746E+03  0.00000000000E+00 0. -1.
         11    1    1    2    0    0  0.87959371740E+00 -0.33069559182E+02  0.12164478678E+03  0.12606277635E+03  0.00000000000E+00 0.  1.
</event>
<event>
 7    1  0.2394257E-009  0.1422281E+03  0.7561462E-02  0.1210362E+00
         -2   -1    0    0    0  501 -0.00000000000E+00  0.00000000000E+00  0.93237602432E+03  0.93237602432E+03  0.00000000000E+00 0.  1.
          2   -1    0    0  501    0  0.00000000000E+00 -0.00000000000E+00 -0.27033900980E+02  0.27033900980E+02  0.00000000000E+00 0. -1.
         25    2    1    2    0    0 -0.38042342494E+02  0.10366489295E+03  0.60754685003E+03  0.63004334736E+03  0.12509122560E+03 0.  0.
          5    1    3    3  502    0 -0.48127742157E+02  0.12976013976E+03  0.49564398539E+03  0.51462064289E+03  0.41800000000E+01 0. -1.
         -5    1    3    3    0  502  0.10085399664E+02 -0.26095246815E+02  0.11190286464E+03  0.11542270447E+03  0.41800000000E+01 0. -1.
        -11    1    1    2    0    0  0.14088502556E+02 -0.87923397627E+02  0.28385347835E+03  0.29749253255E+03  0.00000000000E+00 0.  1.
         11    1    1    2    0    0  0.23953839938E+02 -0.15741495321E+02  0.13941794971E+02  0.31874045393E+02  0.00000000000E+00 0. -1.
</event>
<event>
 7    1  0.2394257E-009  0.9864724E+02  0.7561462E-02  0.1283167E+00
          2   -1    0    0  501    0  0.00000000000E+00  0.00000000000E+00  0.17460838269E+03  0.17460838269E+03  0.00000000000E+00 0. -1.
         -2   -1    0    0    0  501 -0.00000000000E+00 -0.00000000000E+00 -0.88298857634E+02  0.88298857634E+02  0.00000000000E+00 0.  1.
         25    2    1    2    0    0 -0.46448377486E+02  0.11785487814E+02  0.87153863534E+02  0.15980210411E+03  0.12507824373E+03 0.  0.
          5    1    3    3  502    0 -0.86313339057E+02 -0.65530426661E+01  0.40635101227E+02  0.95716345099E+02  0.41800000000E+01 0. -1.
         -5    1    3    3    0  502  0.39864961571E+02  0.18338530480E+02  0.46518762307E+02  0.64085759009E+02  0.41800000000E+01 0. -1.
        -11    1    1    2    0    0  0.43393907953E+02  0.10018689451E+02  0.37941363698E+02  0.58506003666E+02  0.00000000000E+00 0. -1.
         11    1    1    2    0    0  0.30544695330E+01 -0.21804177265E+02 -0.38785702180E+02  0.44599132547E+02  0.00000000000E+00 0.  1.
</event>
<event>
 7    1  0.2394257E-009  0.9434576E+02  0.7561462E-02  0.1292656E+00
          2   -1    0    0  501    0  0.00000000000E+00  0.00000000000E+00  0.70468202553E+02  0.70468202553E+02  0.00000000000E+00 0. -1.
         -2   -1    0    0    0  501 -0.00000000000E+00 -0.00000000000E+00 -0.19738153756E+03  0.19738153756E+03  0.00000000000E+00 0.  1.
         25    2    1    2    0    0  0.33590511931E+02  0.69789326099E+01 -0.33360571258E+02  0.13393071940E+03  0.12508989524E+03 0.  0.
          5    1    3    3  502    0  0.35733965092E+02 -0.46922862236E+02 -0.49881749515E+02  0.77358468162E+02  0.41800000000E+01 0. -1.
         -5    1    3    3    0  502 -0.21434531609E+01  0.53901794846E+02  0.16521178257E+02  0.56572251238E+02  0.41800000000E+01 0. -1.
        -11    1    1    2    0    0 -0.11375723255E+02 -0.36659473382E+02 -0.60123742456E+01  0.38851933186E+02  0.00000000000E+00 0. -1.
         11    1    1    2    0    0 -0.22214788676E+02  0.29680540772E+02 -0.87540389508E+02  0.95067087531E+02  0.00000000000E+00 0.  1.
</event>
<event>
 7    1  0.2394257E-009  0.8208812E+02  0.7561462E-02  0.1323228E+00
          2   -1    0    0  501    0  0.00000000000E+00  0.00000000000E+00  0.22889416450E+02  0.22889416450E+02  0.00000000000E+00 0. -1.
         -2   -1    0    0    0  501 -0.00000000000E+00 -0.00000000000E+00 -0.58906573450E+03  0.58906573450E+03  0.00000000000E+00 0.  1.
         25    2    1    2    0    0  0.14381107002E+02 -0.19941499439E+02 -0.41225741214E+03  0.43151589112E+03  0.12508121673E+03 0.  0.
          5    1    3    3  502    0  0.53153332794E+02 -0.13963116671E+02 -0.81336044531E+02  0.98251055741E+02  0.41800000000E+01 0. -1.
         -5    1    3    3    0  502 -0.38772225792E+02 -0.59783827677E+01 -0.33092136761E+03  0.33326483537E+03  0.41800000000E+01 0. -1.
        -11    1    1    2    0    0 -0.27653051397E+02 -0.15543791725E+02 -0.12604912465E+02  0.34134799414E+02  0.00000000000E+00 0. -1.
         11    1    1    2    0    0  0.13271944395E+02  0.35485291164E+02 -0.14131399344E+03  0.14630446042E+03  0.00000000000E+00 0.  1.
</event>
<event>
 7    1  0.2394257E-009  0.7183886E+02  0.7561462E-02  0.1353949E+00
          2   -1    0    0  501    0  0.00000000000E+00  0.00000000000E+00  0.35159145463E+03  0.35159145463E+03  0.00000000000E+00 0.  1.
         -2   -1    0    0    0  501 -0.00000000000E+00 -0.00000000000E+00 -0.42579247235E+02  0.42579247235E+02  0.00000000000E+00 0. -1.
         25    2    1    2    0    0 -0.19930126764E+02 -0.18496006066E+02  0.10055971155E+03  0.16278454056E+03  0.12508892383E+03 0.  0.
          5    1    3    3  502    0 -0.23687499093E+02  0.31770319597E+02  0.10470880474E+03  0.11203507045E+03  0.41800000000E+01 0.  1.
         -5    1    3    3    0  502  0.37573723290E+01 -0.50266325663E+02 -0.41490931835E+01  0.50749470113E+02  0.41800000000E+01 0.  1.
        -11    1    1    2    0    0  0.37590163446E+01 -0.15315338481E+02 -0.34931727195E+01  0.16152153179E+02  0.00000000000E+00 0. -1.
         11    1    1    2    0    0  0.16171110419E+02  0.33811344547E+02  0.21194566856E+03  0.21523400813E+03  0.00000000000E+00 0.  1.
</event>
<event>
 7    1  0.2394257E-009  0.1457058E+03  0.7561462E-02  0.1205851E+00
          1   -1    0    0  501    0  0.00000000000E+00  0.00000000000E+00  0.21296441378E+03  0.21296441378E+03  0.00000000000E+00 0. -1.
         -1   -1    0    0    0  501 -0.00000000000E+00 -0.00000000000E+00 -0.10825175506E+03  0.10825175506E+03  0.00000000000E+00 0.  1.
         25    2    1    2    0    0 -0.71342811296E+02 -0.76205776190E+02  0.70737317813E+02  0.17761223613E+03  0.12508085883E+03 0.  0.
          5    1    3    3  502    0 -0.86653383391E+02 -0.11676032426E+02  0.68447374238E+02  0.11111999832E+03  0.41800000000E+01 0. -1.
         -5    1    3    3    0  502  0.15310572095E+02 -0.64529743763E+02  0.22899435747E+01  0.66492237815E+02  0.41800000000E+01 0. -1.
        -11    1    1    2    0    0  0.45752947445E+02  0.95153210866E+02  0.15283608258E+02  0.10668202482E+03  0.00000000000E+00 0.  1.
         11    1    1    2    0    0  0.25589863852E+02 -0.18947434677E+02  0.18691732647E+02  0.36921907888E+02  0.00000000000E+00 0. -1.
</event>
<event>
 7    1  0.2394257E-009  0.1206604E+03  0.7561462E-02  0.1242011E+00
         -2   -1    0    0    0  501 -0.00000000000E+00  0.00000000000E+00  0.23411023941E+02  0.23411023941E+02  0.00000000000E+00 0. -1.
          2   -1    0    0  501    0  0.00000000000E+00 -0.00000000000E+00 -0.81833269488E+03  0.81833269488E+03  0.00000000000E+00 0.  1.
         25    2    1    2    0    0 -0.38240348630E+02 -0.76938554771E+02 -0.46665912442E+03  0.49071320979E+03  0.12508737098E+03 0.  0.
          5    1    3    3  502    0  0.13941397749E+02  0.10292591310E+02 -0.25758969475E+03  0.25820577695E+03  0.41800000000E+01 0.  1.
         -5    1    3    3    0  502 -0.52181746379E+02 -0.87231146081E+02 -0.20906942967E+03  0.23250743284E+03  0.41800000000E+01 0.  1.
        -11    1    1    2    0    0  0.57795412702E+02  0.83132460899E+02 -0.24129291805E+03  0.26167458433E+03  0.00000000000E+00 0. -1.
         11    1    1    2    0    0 -0.19555064073E+02 -0.61939061279E+01 -0.86969628471E+02  0.89355924707E+02  0.00000000000E+00 0.  1.
</event>
<event>
 7    1  0.2394257E-009  0.2119144E+03  0.7561462E-02  0.1140059E+00
          2   -1    0    0  501    0  0.00000000000E+00  0.00000000000E+00  0.16653712123E+03  0.16653712123E+03  0.00000000000E+00 0. -1.
         -2   -1    0    0    0  501 -0.00000000000E+00 -0.00000000000E+00 -0.29666048690E+03  0.29666048690E+03  0.00000000000E+00 0.  1.
         25    2    1    2    0    0  0.12357185196E+03  0.14777415628E+03 -0.43723935247E+02  0.23381015865E+03  0.12509278122E+03 0.  0.
          5    1    3    3  502    0  0.12756480404E+03  0.91986793701E+02 -0.69609581844E+02  0.17203870416E+03  0.41800000000E+01 0.  1.
         -5    1    3    3    0  502 -0.39929520830E+01  0.55787362578E+02  0.25885646597E+02  0.61771454488E+02  0.41800000000E+01 0.  1.
        -11    1    1    2    0    0 -0.79360076707E+02 -0.30387245561E+02 -0.50765166400E+02  0.98987416308E+02  0.00000000000E+00 0.  1.
         11    1    1    2    0    0 -0.44211775250E+02 -0.11738691072E+03 -0.35634264027E+02  0.13040003317E+03  0.00000000000E+00 0. -1.
</event>
<event>
 7    1  0.2394257E-009  0.1171484E+03  0.7561462E-02  0.1247877E+00
          2   -1    0    0  501    0  0.00000000000E+00  0.00000000000E+00  0.45506049809E+03  0.45506049809E+03  0.00000000000E+00 0. -1.
         -2   -1    0    0    0  501 -0.00000000000E+00 -0.00000000000E+00 -0.60710753820E+02  0.60710753820E+02  0.00000000000E+00 0.  1.
         25    2    1    2    0    0 -0.18112781936E+02  0.65086742411E+02  0.39379038632E+02  0.14752580705E+03  0.12509515640E+03 0.  0.
          5    1    3    3  502    0  0.50630072040E+02  0.37246237878E+02 -0.94942730661E+00  0.63000478118E+02  0.41800000000E+01 0.  1.
         -5    1    3    3    0  502 -0.68742853976E+02  0.27840504533E+02  0.40328465939E+02  0.84525328928E+02  0.41800000000E+01 0.  1.
        -11    1    1    2    0    0 -0.26333585999E+02 -0.16060433875E+02  0.90098966673E+02  0.95232447639E+02  0.00000000000E+00 0. -1.
         11    1    1    2    0    0  0.44446367935E+02 -0.49026308535E+02  0.26487173896E+03  0.27301299722E+03  0.00000000000E+00 0.  1.
</event>
<event>
 7    1  0.2394257E-009  0.1464585E+03  0.7561462E-02  0.1204894E+00
         -1   -1    0    0    0  501 -0.00000000000E+00  0.00000000000E+00  0.34540099841E+03  0.34540099841E+03  0.00000000000E+00 0.  1.
          1   -1    0    0  501    0  0.00000000000E+00 -0.00000000000E+00 -0.66602026373E+02  0.66602026373E+02  0.00000000000E+00 0. -1.
         25    2    1    2    0    0 -0.78137755699E+02  0.67801169544E+02  0.17924860401E+03  0.24182670123E+03  0.12509030310E+03 0.  0.
          5    1    3    3  502    0  0.21582779665E+02  0.51441939714E+02  0.94757713994E+02  0.11003902172E+03  0.41800000000E+01 0.  1.
         -5    1    3    3    0  502 -0.99720535364E+02  0.16359229830E+02  0.84490890016E+02  0.13178767951E+03  0.41800000000E+01 0.  1.
        -11    1    1    2    0    0  0.54777035797E+02  0.90426733435E+01  0.26135441179E+02  0.61362487544E+02  0.00000000000E+00 0. -1.
         11    1    1    2    0    0  0.23360719901E+02 -0.76843842887E+02  0.73414926850E+02  0.10881383602E+03  0.00000000000E+00 0.  1.
</event>
<event>
 7    1  0.2394257E-009  0.9382393E+02  0.7561462E-02  0.1293847E+00
         -2   -1    0    0    0  501 -0.00000000000E+00  0.00000000000E+00  0.78997967011E+03  0.78997967011E+03  0.00000000000E+00 0.  1.
          2   -1    0    0  501    0  0.00000000000E+00 -0.00000000000E+00 -0.21823325605E+02  0.21823325605E+02  0.00000000000E+00 0. -1.
         25    2    1    2    0    0 -0.72686315501E+02 -0.94377220306E+01  0.47832138424E+03  0.49981128451E+03  0.12509037710E+03 0.  0.
          5    1    3    3  502    0 -0.40457637799E+02  0.30649969606E+01  0.45734550687E+03  0.45916075585E+03  0.41800000000E+01 0.  1.
         -5    1    3    3    0  502 -0.32228677703E+02 -0.12502718991E+02  0.20975877373E+02  0.40650528659E+02  0.41800000000E+01 0.  1.
        -11    1    1    2    0    0  0.83109925383E+02  0.30507027953E+02  0.25530820736E+03  0.27022253643E+03  0.00000000000E+00 0.  1.
         11    1    1    2    0    0 -0.10423609882E+02 -0.21069305922E+02  0.34526752907E+02  0.41769174774E+02  0.00000000000E+00 0. -1.
</event>
<event>
 7    1  0.2394257E-009  0.1170950E+03  0.7561462E-02  0.1247968E+00
         -2   -1    0    0    0  501 -0.00000000000E+00  0.00000000000E+00  0.38640547245E+02  0.38640547245E+02  0.00000000000E+00 0. -1.
          2   -1    0    0  501    0  0.00000000000E+00 -0.00000000000E+00 -0.59289668443E+03  0.59289668443E+03  0.00000000000E+00 0.  1.
         25    2    1    2    0    0  0.25451469268E+02  0.97069158343E+02 -0.21981292679E+03  0.27209541734E+03  0.12509194444E+03 0.  0.
          5    1    3    3  502    0  0.27969291930E+02  0.46184312430E+02 -0.86599067541E+01  0.54842851774E+02  0.41800000000E+01 0. -1.
         -5    1    3    3    0  502 -0.25178226619E+01  0.50884845913E+02 -0.21115302003E+03  0.21725256556E+03  0.41800000000E+01 0. -1.
        -11    1    1    2    0    0 -0.16920011046E+02 -0.11116231695E+03 -0.26129932929E+03  0.28446561650E+03  0.00000000000E+00 0.  1.
         11    1    1    2    0    0 -0.85314582217E+01  0.14093158604E+02 -0.73143881107E+02  0.74976197838E+02  0.00000000000E+00 0. -1.
</event>
<event>
 7    1  0.2394257E-009  0.9874473E+02  0.7561462E-02  0.1282958E+00
          2   -1    0    0  501    0  0.00000000000E+00  0.00000000000E+00  0.30520433666E+03  0.30520433666E+03  0.00000000000E+00 0. -1.
         -2   -1    0    0    0  501 -0.00000000000E+00 -0.00000000000E+00 -0.70932150793E+02  0.70932150793E+02  0.00000000000E+00 0.  1.
         25    2    1    2    0    0 -0.67099990226E+01  0.88342251174E+02  0.10061581631E+03  0.18336091460E+03  0.12509318560E+03 0.  0.
          5    1    3    3  502    0 -0.24922966053E+02  0.29638461057E+02  0.11386820776E+03  0.12034547664E+03  0.41800000000E+01 0. -1.
         -5    1    3    3    0  502  0.18212967030E+02  0.58703790117E+02 -0.13252391449E+02  0.63015437960E+02  0.41800000000E+01 0. -1.
        -11    1    1    2    0    0  0.14432122272E+02 -0.85621967210E+01 -0.15885631358E+02  0.23107372192E+02  0.00000000000E+00 0.  1.
         11    1    1    2    0    0 -0.77221232496E+01 -0.79780054454E+02  0.14954200092E+03  0.16966820066E+03  0.00000000000E+00 0. -1.
</event>
<event>
 7    1  0.3635393E-009  0.1231146E+03  0.7561462E-02  0.1238046E+00
         -1   -1    0    0    0  501 -0.00000000000E+00  0.00000000000E+00  0.76393128404E+02  0.76393128404E+02  0.00000000000E+00 0.  1.
          1   -1    0    0  501    0  0.00000000000E+00 -0.00000000000E+00 -0.27135678422E+03  0.27135678422E+03  0.00000000000E+00 0. -1.
         25    2    1    2    0    0  0.36370532125E+02  0.78708002436E+02 -0.15129197891E+03  0.21460422557E+03  0.12509174832E+03 0.  0.
          5    1    3    3  502    0 -0.18230178742E+02  0.90064077303E+02 -0.11764367105E+03  0.14933647638E+03  0.41800000000E+01 0. -1.
         -5    1    3    3    0  502  0.54600710867E+02 -0.11356074867E+02 -0.33648307853E+02  0.65267749195E+02  0.41800000000E+01 0. -1.
        -11    1    1    2    0    0  0.10683747646E+02 -0.23253095586E+02  0.23055912278E+02  0.34444506225E+02  0.00000000000E+00 0.  1.
         11    1    1    2    0    0 -0.47054279771E+02 -0.55454906851E+02 -0.66727589191E+02  0.98701180833E+02  0.00000000000E+00 0. -1.
</event>
<event>
 7    1  0.2394257E-009  0.1014586E+03  0.7561462E-02  0.1277258E+00
          2   -1    0    0  501    0  0.00000000000E+00  0.00000000000E+00  0.48389865898E+03  0.48389865898E+03  0.00000000000E+00 0. -1.
         -2   -1    0    0    0  501 -0.00000000000E+00 -0.00000000000E+00 -0.31495579051E+02  0.31495579051E+02  0.00000000000E+00 0.  1.
         25    2    1    2    0    0  0.30295916521E+02 -0.41066687433E+02  0.32702959173E+03  0.35383739468E+03  0.12509289599E+03 0.  0.
          5    1    3    3  502    0  0.63319679342E+02 -0.63746196072E+02  0.26526205267E+03  0.28009710511E+03  0.41800000000E+01 0. -1.
         -5    1    3    3    0  502 -0.33023762822E+02  0.22679508639E+02  0.61767539067E+02  0.73740289567E+02  0.41800000000E+01 0. -1.
        -11    1    1    2    0    0  0.30840199964E+01  0.39134144088E+02  0.12175376401E+03  0.12792564818E+03  0.00000000000E+00 0. -1.
         11    1    1    2    0    0 -0.33379936517E+02  0.19325433443E+01  0.36197241891E+01  0.33631195175E+02  0.00000000000E+00 0.  1.
</event>
<event>
 7    1  0.2394257E-009  0.1113550E+03  0.7561462E-02  0.1258081E+00
          2   -1    0    0  501    0  0.00000000000E+00  0.00000000000E+00  0.10249742461E+03  0.10249742461E+03  0.00000000000E+00 0.  1.
         -2   -1    0    0    0  501 -0.00000000000E+00 -0.00000000000E+00 -0.15222086163E+03  0.15222086163E+03  0.00000000000E+00 0. -1.
         25    2    1    2    0    0  0.49931935237E+02 -0.16712494149E+02 -0.11200489667E+02  0.13617646705E+03  0.12508426597E+03 0.  0.
          5    1    3    3  502    0 -0.36223015285E+01  0.47782671243E+02  0.11023493997E+02  0.49348703726E+02  0.41800000000E+01 0. -1.
         -5    1    3    3    0  502  0.53554236765E+02 -0.64495165393E+02 -0.22223983664E+02  0.86827763327E+02  0.41800000000E+01 0. -1.
        -11    1    1    2    0    0 -0.19001565106E+02 -0.29484817372E+02 -0.50677539232E+02  0.61633001830E+02  0.00000000000E+00 0. -1.
         11    1    1    2    0    0 -0.30930370130E+02  0.46197311522E+02  0.12154591879E+02  0.56908817348E+02  0.00000000000E+00 0.  1.
</event>
<event>
 7    1  0.2394257E-009  0.1215169E+03  0.7561462E-02  0.1240615E+00
         -1   -1    0    0    0  501 -0.00000000000E+00  0.00000000000E+00  0.23815396133E+03  0.23815396133E+03  0.00000000000E+00 0.  1.
          1   -1    0    0  501    0  0.00000000000E+00 -0.00000000000E+00 -0.82469490396E+02  0.82469490396E+02  0.00000000000E+00 0. -1.
         25    2    1    2    0    0  0.15182851439E+02  0.37829552697E+02  0.51460363493E+01  0.13166355992E+03  0.12508883758E+03 0.  0.
          5    1    3    3  502    0  0.58518833618E+02 -0.16896848378E+02  0.85526269846E+01  0.61648821574E+02  0.41800000000E+01 0.  1.
         -5    1    3    3    0  502 -0.43335982179E+02  0.54726401076E+02 -0.34065906352E+01  0.70014738348E+02  0.41800000000E+01 0.  1.
        -11    1    1    2    0    0 -0.60233249682E+02 -0.18337006544E+02  0.10239838391E+03  0.12020698484E+03  0.00000000000E+00 0.  1.
         11    1    1    2    0    0  0.45050398243E+02 -0.19492546154E+02  0.48140050675E+02  0.68752906967E+02  0.00000000000E+00 0. -1.
</event>
<event>
 7    1  0.2394257E-009  0.1032364E+03  0.7561462E-02  0.1273634E+00
         -1   -1    0    0    0  501 -0.00000000000E+00  0.00000000000E+00  0.30803915561E+02  0.30803915561E+02  0.00000000000E+00 0.  1.
          1   -1    0    0  501    0  0.00000000000E+00 -0.00000000000E+00 -0.40703772625E+03  0.40703772625E+03  0.00000000000E+00 0. -1.
         25    2    1    2    0    0 -0.22097099665E+02  0.98360425898E+01 -0.26054388384E+03  0.29002860902E+03  0.12509376121E+03 0.  0.
          5    1    3    3  502    0  0.34835156122E+02  0.46265207497E+02 -0.97486246846E+02  0.11346804947E+03  0.41800000000E+01 0. -1.
         -5    1    3    3    0  502 -0.56932255787E+02 -0.36429164907E+02 -0.16305763699E+03  0.17656055955E+03  0.41800000000E+01 0. -1.
        -11    1    1    2    0    0  0.32897809178E+02  0.26839382007E+02 -0.24705577344E+02  0.49122131745E+02  0.00000000000E+00 0.  1.
         11    1    1    2    0    0 -0.10800709514E+02 -0.36675424596E+02 -0.90984349505E+02  0.98690901050E+02  0.00000000000E+00 0. -1.
</event>
<event>
 7    1  0.2394257E-009  0.7932935E+02  0.7561462E-02  0.1330965E+00
         -2   -1    0    0    0  501 -0.00000000000E+00  0.00000000000E+00  0.10284075550E+03  0.10284075550E+03  0.00000000000E+00 0.  1.
          2   -1    0    0  501    0  0.00000000000E+00 -0.00000000000E+00 -0.17510715077E+03  0.17510715077E+03  0.00000000000E+00 0. -1.
         25    2    1    2    0    0 -0.68222036735E+02  0.92961807428E+01 -0.64610768690E+02  0.15672350435E+03  0.12508812938E+03 0.  0.
          5    1    3    3  502    0 -0.60777132325E+01  0.19849510271E+02 -0.87123080347E+02  0.89659607323E+02  0.41800000000E+01 0. -1.
         -5    1    3    3    0  502 -0.62144323503E+02 -0.10553329529E+02  0.22512311657E+02  0.67063897023E+02  0.41800000000E+01 0. -1.
        -11    1    1    2    0    0  0.56696992840E+02  0.38500779065E+01 -0.49823384630E+02  0.75576066007E+02  0.00000000000E+00 0. -1.
         11    1    1    2    0    0  0.11525043895E+02 -0.13146258649E+02  0.42167758053E+02  0.45648335922E+02  0.00000000000E+00 0.  1.
</event>
<event>
 7    1  0.2394257E-009  0.2334671E+03  0.7561462E-02  0.1124223E+00
          1   -1    0    0  501    0  0.00000000000E+00  0.00000000000E+00  0.40704224747E+03  0.40704224747E+03  0.00000000000E+00 0. -1.
         -1   -1    0    0    0  501 -0.00000000000E+00 -0.00000000000E+00 -0.20986219165E+03  0.20986219165E+03  0.00000000000E+00 0.  1.
         25    2    1    2    0    0  0.20788016778E+03 -0.49828027559E+02  0.27693411420E+03  0.37153377377E+03  0.12509134645E+03 0.  0.
          5    1    3    3  502    0  0.13495857266E+03  0.20047868884E+02  0.10551204587E+03  0.17252825161E+03  0.41800000000E+01 0. -1.
         -5    1    3    3    0  502  0.72921595126E+02 -0.69875896443E+02  0.17142206833E+03  0.19900552216E+03  0.41800000000E+01 0. -1.
        -11    1    1    2    0    0 -0.88440159562E+02  0.63861122498E+02 -0.56615813858E+02  0.12290343839E+03  0.00000000000E+00 0.  1.
         11    1    1    2    0    0 -0.11944000822E+03 -0.14033094939E+02 -0.23138244520E+02  0.12246722695E+03  0.00000000000E+00 0. -1.
</event>
<event>
 7    1  0.2394257E-009  0.1461131E+03  0.7561462E-02  0.1205332E+00
          1   -1    0    0  501    0  0.00000000000E+00  0.00000000000E+00  0.19566991702E+04  0.19566991702E+04  0.00000000000E+00 0. -1.
         -1   -1    0    0    0  501 -0.00000000000E+00 -0.00000000000E+00 -0.17142476350E+02  0.17142476350E+02  0.00000000000E+00 0.  1.
         25    2    1    2    0    0 -0.12210081656E+03  0.73687648560E+02  0.12210152147E+04  0.12356636812E+04  0.12509236407E+03 0.  0.
          5    1    3    3  502    0 -0.51031246813E+02  0.34353225346E+02  0.15897552222E+03  0.17051399153E+03  0.41800000000E+01 0. -1.
         -5    1    3    3    0  502 -0.71069569750E+02  0.39334423214E+02  0.10620396925E+04  0.10651496897E+04  0.41800000000E+01 0. -1.
        -11    1    1    2    0    0  0.92287425404E+02 -0.75681951894E+02  0.67436573790E+03  0.68484587695E+03  0.00000000000E+00 0. -1.
         11    1    1    2    0    0  0.29813391159E+02  0.19943033332E+01  0.44175741276E+02  0.53332088422E+02  0.00000000000E+00 0.  1.
</event>
<event>
 7    1  0.2394257E-009  0.1104529E+03  0.7561462E-02  0.1259734E+00
          2   -1    0    0  501    0  0.00000000000E+00  0.00000000000E+00  0.25797640026E+03  0.25797640026E+03  0.00000000000E+00 0. -1.
         -2   -1    0    0    0  501 -0.00000000000E+00 -0.00000000000E+00 -0.57759647713E+02  0.57759647713E+02  0.00000000000E+00 0.  1.
         25    2    1    2    0    0  0.31810958648E+02 -0.12985924349E+02  0.16274281504E+03  0.20812014792E+03  0.12509276879E+03 0.  0.
          5    1    3    3  502    0  0.34507827012E+02 -0.62028167227E+02  0.55873376963E+02  0.90430029901E+02  0.41800000000E+01 0. -1.
         -5    1    3    3    0  502 -0.26968683644E+01  0.49042242878E+02  0.10686943808E+03  0.11769011802E+03  0.41800000000E+01 0. -1.
        -11    1    1    2    0    0 -0.28276946110E+02 -0.39127033797E+02  0.13388208203E+02  0.50097450772E+02  0.00000000000E+00 0.  1.
         11    1    1    2    0    0 -0.35340125378E+01  0.52112958145E+02  0.24085729310E+02  0.57518449281E+02  0.00000000000E+00 0. -1.
</event>
<event>
 7    1  0.2394257E-009  0.1179756E+03  0.7561462E-02  0.1246475E+00
         -2   -1    0    0    0  501 -0.00000000000E+00  0.00000000000E+00  0.16187559942E+02  0.16187559942E+02  0.00000000000E+00 0.  1.
          2   -1    0    0  501    0  0.00000000000E+00 -0.00000000000E+00 -0.11489380038E+04  0.11489380038E+04  0.00000000000E+00 0. -1.
         25    2    1    2    0    0 -0.68953029211E+02  0.20013821232E+02 -0.57182739105E+03  0.58973584911E+03  0.12508690294E+03 0.  0.
          5    1    3    3  502    0 -0.74858739487E+02 -0.11465984813E+02 -0.16465658192E+03  0.18128585729E+03  0.41800000000E+01 0. -1.
         -5    1    3    3    0  502  0.59057102752E+01  0.31479806045E+02 -0.40717080914E+03  0.40844999182E+03  0.41800000000E+01 0. -1.
        -11    1    1    2    0    0 -0.19816762952E+02  0.21986491202E+02 -0.11145420999E+03  0.11531760843E+03  0.00000000000E+00 0.  1.
         11    1    1    2    0    0  0.88769792163E+02 -0.42000312434E+02 -0.44946884277E+03  0.46007210616E+03  0.00000000000E+00 0. -1.
</event>
<event>
 7    1  0.2394257E-009  0.1047489E+03  0.7561462E-02  0.1270615E+00
         -2   -1    0    0    0  501 -0.00000000000E+00  0.00000000000E+00  0.26791789672E+02  0.26791789672E+02  0.00000000000E+00 0.  1.
          2   -1    0    0  501    0  0.00000000000E+00 -0.00000000000E+00 -0.48532862363E+03  0.48532862363E+03  0.00000000000E+00 0. -1.
         25    2    1    2    0    0 -0.26311235763E+02  0.93104701151E+00 -0.27636641663E+03  0.30449798553E+03  0.12508988359E+03 0.  0.
          5    1    3    3  502    0 -0.21375631940E+02 -0.52536278400E+02 -0.21705842629E+03  0.22438540731E+03  0.41800000000E+01 0. -1.
         -5    1    3    3    0  502 -0.49356038237E+01  0.53467325411E+02 -0.59307990336E+02  0.80112578223E+02  0.41800000000E+01 0. -1.
        -11    1    1    2    0    0  0.62524245617E+02  0.52004513919E+00 -0.10197533132E+03  0.11961822577E+03  0.00000000000E+00 0.  1.
         11    1    1    2    0    0 -0.36213009853E+02 -0.14510921507E+01 -0.80195086011E+02  0.88004202010E+02  0.00000000000E+00 0. -1.
</event>
<event>
 7    1  0.2394257E-009  0.6864943E+02  0.7561462E-02  0.1364747E+00
          1   -1    0    0  501    0  0.00000000000E+00  0.00000000000E+00  0.23354487525E+03  0.23354487525E+03  0.00000000000E+00 0. -1.
         -1   -1    0    0    0  501 -0.00000000000E+00 -0.00000000000E+00 -0.59722254430E+02  0.59722254430E+02  0.00000000000E+00 0.  1.
         25    2    1    2    0    0 -0.19207193364E+02 -0.40357840397E+02  0.80929623266E+02  0.15553697128E+03  0.12507787156E+03 0.  0.
          5    1    3    3  502    0 -0.55582899836E+01  0.36950134678E+01  0.10365478804E+03  0.10395352421E+03  0.41800000000E+01 0. -1.
         -5    1    3    3    0  502 -0.13648903380E+02 -0.44052853865E+02 -0.22725164777E+02  0.51583447067E+02  0.41800000000E+01 0. -1.
        -11    1    1    2    0    0 -0.23938075329E+02  0.30652603826E+02  0.48356101219E+01  0.39191793746E+02  0.00000000000E+00 0.  1.
         11    1    1    2    0    0  0.43145268693E+02  0.97052365716E+01  0.88057387437E+02  0.98538364659E+02  0.00000000000E+00 0. -1.
</event>
<event>
 7    1  0.2394257E-009  0.1669963E+03  0.7561462E-02  0.1181017E+00
          2   -1    0    0  501    0  0.00000000000E+00  0.00000000000E+00  0.15997233202E+03  0.15997233202E+03  0.00000000000E+00 0. -1.
         -2   -1    0    0    0  501 -0.00000000000E+00 -0.00000000000E+00 -0.19429691306E+03  0.19429691306E+03  0.00000000000E+00 0.  1.
         25    2    1    2    0    0 -0.11878929523E+03 -0.67147856449E+02  0.82863255882E+01  0.18530203215E+03  0.12509375940E+03 0.  0.
          5    1    3    3  502    0 -0.98281423397E+02  0.14932805103E+02  0.13630763539E+02  0.10042657501E+03  0.41800000000E+01 0.  1.
         -5    1    3    3    0  502 -0.20507871833E+02 -0.82080661552E+02 -0.53444379510E+01  0.84875457141E+02  0.41800000000E+01 0.  1.
        -11    1    1    2    0    0  0.96529833209E+02  0.21342946793E+02 -0.59412312074E+02  0.11534016171E+03  0.00000000000E+00 0.  1.
         11    1    1    2    0    0  0.22259462021E+02  0.45804909656E+02  0.16801405437E+02  0.53627051221E+02  0.00000000000E+00 0. -1.
</event>
<event>
 7    1  0.2394257E-009  0.1918432E+03  0.7561462E-02  0.1156809E+00
          2   -1    0    0  501    0  0.00000000000E+00  0.00000000000E+00  0.84894019224E+02  0.84894019224E+02  0.00000000000E+00 0. -1.
         -2   -1    0    0    0  501 -0.00000000000E+00 -0.00000000000E+00 -0.44830290075E+03  0.44830290075E+03  0.00000000000E+00 0.  1.
         25    2    1    2    0    0  0.49618430237E+02 -0.14960804047E+03 -0.23678972461E+03  0.31074429750E+03  0.12509232732E+03 0.  0.
          5    1    3    3  502    0  0.60896842591E+01  0.22342568040E+02 -0.22768565912E+02  0.32743771846E+02  0.41800000000E+01 0.  1.
         -5    1    3    3    0  502  0.43528745978E+02 -0.17195060851E+03 -0.21402115870E+03  0.27800052565E+03  0.41800000000E+01 0.  1.
        -11    1    1    2    0    0 -0.68383431737E+02  0.59362944305E+02 -0.57950627746E+02  0.10751059552E+03  0.00000000000E+00 0.  1.
         11    1    1    2    0    0  0.18765001500E+02  0.90245096163E+02 -0.68668529173E+02  0.11494202696E+03  0.00000000000E+00 0. -1.
</event>
<event>
 7    1  0.2394257E-009  0.4507706E+03  0.7561462E-02  0.1027492E+00
         -2   -1    0    0    0  501 -0.00000000000E+00  0.00000000000E+00  0.22232203772E+03  0.22232203772E+03  0.00000000000E+00 0.  1.
          2   -1    0    0  501    0  0.00000000000E+00 -0.00000000000E+00 -0.10786978465E+04  0.10786978465E+04  0.00000000000E+00 0. -1.
         25    2    1    2    0    0  0.43594033861E+03  0.85433586783E+02 -0.19973426563E+03  0.50287684454E+03  0.12509383412E+03 0.  0.
          5    1    3    3  502    0  0.41066102814E+03  0.56966042198E+02 -0.20774314047E+03  0.46374809413E+03  0.41800000000E+01 0.  1.
         -5    1    3    3    0  502  0.25279310469E+02  0.28467544585E+02  0.80088748452E+01  0.39128750412E+02  0.41800000000E+01 0.  1.
        -11    1    1    2    0    0 -0.13918862399E+03  0.21988192727E+01 -0.26175748185E+03  0.29647139349E+03  0.00000000000E+00 0. -1.
         11    1    1    2    0    0 -0.29675171462E+03 -0.87632406056E+02 -0.39488406132E+03  0.50167164621E+03  0.00000000000E+00 0.  1.
</event>
<event>
 7    1  0.2394257E-009  0.9271492E+02  0.7561462E-02  0.1296407E+00
         -1   -1    0    0    0  501 -0.00000000000E+00  0.00000000000E+00  0.35212036084E+03  0.35212036084E+03  0.00000000000E+00 0.  1.
          1   -1    0    0  501    0  0.00000000000E+00 -0.00000000000E+00 -0.40222035159E+02  0.40222035159E+02  0.00000000000E+00 0. -1.
         25    2    1    2    0    0 -0.45880291764E+02 -0.10150496417E+02  0.15532736873E+03  0.20489621466E+03  0.12509130089E+03 0.  0.
          5    1    3    3  502    0 -0.33307821978E+02 -0.40027628178E+02  0.16313338670E+03  0.17129388862E+03  0.41800000000E+01 0.  1.
         -5    1    3    3    0  502 -0.12572469786E+02  0.29877131761E+02 -0.78060179760E+01  0.33602326042E+02  0.41800000000E+01 0.  1.
        -11    1    1    2    0    0 -0.11270189990E+02  0.36042833911E+02  0.79904012520E+02  0.88378471788E+02  0.00000000000E+00 0.  1.
         11    1    1    2    0    0  0.57150481754E+02 -0.25892337495E+02  0.76666944433E+02  0.99067709544E+02  0.00000000000E+00 0. -1.
</event>
<event>
 7    1  0.2394257E-009  0.1064227E+03  0.7561462E-02  0.1267342E+00
         -2   -1    0    0    0  501 -0.00000000000E+00  0.00000000000E+00  0.12546592474E+02  0.12546592474E+02  0.00000000000E+00 0.  1.
          2   -1    0    0  501    0  0.00000000000E+00 -0.00000000000E+00 -0.11016195771E+04  0.11016195771E+04  0.00000000000E+00 0. -1.
         25    2    1    2    0    0 -0.21452628687E+02 -0.40587521691E+02 -0.62914105763E+03  0.64309764599E+03  0.12509416327E+03 0.  0.
          5    1    3    3  502    0 -0.34177823745E+02 -0.70434223998E+02 -0.57123061259E+03  0.57658562999E+03  0.41800000000E+01 0. -1.
         -5    1    3    3    0  502  0.12725195058E+02  0.29846702307E+02 -0.57910445035E+02  0.66512015997E+02  0.41800000000E+01 0. -1.
        -11    1    1    2    0    0 -0.27010449600E+02  0.45610496569E+02 -0.24970429988E+03  0.25526871952E+03  0.00000000000E+00 0. -1.
         11    1    1    2    0    0  0.48463078287E+02 -0.50229748783E+01 -0.21022762710E+03  0.21579980406E+03  0.00000000000E+00 0.  1.
</event>
<event>
 7    1  0.2394257E-009  0.1474866E+03  0.7561462E-02  0.1203596E+00
         -1   -1    0    0    0  501 -0.00000000000E+00  0.00000000000E+00  0.58122568152E+02  0.58122568152E+02  0.00000000000E+00 0.  1.
          1   -1    0    0  501    0  0.00000000000E+00 -0.00000000000E+00 -0.47200938457E+03  0.47200938457E+03  0.00000000000E+00 0. -1.
         25    2    1    2    0    0 -0.11178065764E+03  0.15741893099E+01 -0.30432768471E+03  0.34750587869E+03  0.12509037752E+03 0.  0.
          5    1    3    3  502    0 -0.90328220883E+02 -0.42549241187E+02 -0.26883111903E+03  0.28680527954E+03  0.41800000000E+01 0. -1.
         -5    1    3    3    0  502 -0.21452436754E+02  0.44123430497E+02 -0.35496565675E+02  0.60700599142E+02  0.41800000000E+01 0. -1.
        -11    1    1    2    0    0 -0.12324654993E+02 -0.16720337561E+02 -0.19978647858E+02  0.28820360496E+02  0.00000000000E+00 0.  1.
         11    1    1    2    0    0  0.12410531263E+03  0.15146148251E+02 -0.89580483848E+02  0.15380571354E+03  0.00000000000E+00 0. -1.
</event>
<event>
 7    1  0.2394257E-009  0.9715255E+02  0.7561462E-02  0.1286400E+00
         -1   -1    0    0    0  501 -0.00000000000E+00  0.00000000000E+00  0.93313822613E+02  0.93313822613E+02  0.00000000000E+00 0.  1.
          1   -1    0    0  501    0  0.00000000000E+00 -0.00000000000E+00 -0.15955760219E+03  0.15955760219E+03  0.00000000000E+00 0. -1.
         25    2    1    2    0    0 -0.55756467749E+02  0.50850977949E+01 -0.39285855048E+02  0.14256678896E+03  0.12508904425E+03 0.  0.
          5    1    3    3  502    0  0.38859132194E+02 -0.11759343821E+02 -0.10154381194E+02  0.42058271236E+02  0.41800000000E+01 0.  1.
         -5    1    3    3    0  502 -0.94615599943E+02  0.16844441616E+02 -0.29131473854E+02  0.10050851772E+03  0.41800000000E+01 0.  1.
        -11    1    1    2    0    0  0.31958347878E+02  0.31523251137E+01 -0.60420482533E+02  0.68424468301E+02  0.00000000000E+00 0. -1.
         11    1    1    2    0    0  0.23798119871E+02 -0.82374229086E+01  0.33462558002E+02  0.41880167545E+02  0.00000000000E+00 0.  1.
</event>
<event>
 7    1  0.2394257E-009  0.8308109E+02  0.7561462E-02  0.1320528E+00
         -2   -1    0    0    0  501 -0.00000000000E+00  0.00000000000E+00  0.45041940747E+02  0.45041940747E+02  0.00000000000E+00 0.  1.
          2   -1    0    0  501    0  0.00000000000E+00 -0.00000000000E+00 -0.29052430103E+03  0.29052430103E+03  0.00000000000E+00 0. -1.
         25    2    1    2    0    0  0.11499882864E+02  0.16893169032E+02 -0.11025859192E+03  0.16799413123E+03  0.12508974606E+03 0.  0.
          5    1    3    3  502    0 -0.26062515562E+02 -0.91285257122E+01 -0.11817461733E+03  0.12143021568E+03  0.41800000000E+01 0.  1.
         -5    1    3    3    0  502  0.37562398426E+02  0.26021694744E+02  0.79160254096E+01  0.46563915548E+02  0.41800000000E+01 0.  1.
        -11    1    1    2    0    0 -0.49792001882E+02  0.16106088107E+01 -0.42205584389E+02  0.65292793368E+02  0.00000000000E+00 0.  1.
         11    1    1    2    0    0  0.38292119018E+02 -0.18503777842E+02 -0.93018183972E+02  0.10227931718E+03  0.00000000000E+00 0. -1.
</event>
<event>
 7    1  0.2394257E-009  0.1362823E+03  0.7561462E-02  0.1218421E+00
         -3   -1    0    0    0  501 -0.00000000000E+00  0.00000000000E+00  0.36400692208E+03  0.36400692208E+03  0.00000000000E+00 0.  1.
          3   -1    0    0  501    0  0.00000000000E+00 -0.00000000000E+00 -0.63301944336E+02  0.63301944336E+02  0.00000000000E+00 0. -1.
         25    2    1    2    0    0  0.85862947925E+02 -0.43445328860E+01  0.24959888435E+03  0.29212727114E+03  0.12508964257E+03 0.  0.
          5    1    3    3  502    0  0.35817425876E+02 -0.64207051288E+02  0.11972076736E+03  0.14055592470E+03  0.41800000000E+01 0. -1.
         -5    1    3    3    0  502  0.50045522049E+02  0.59862518402E+02  0.12987811700E+03  0.15157134644E+03  0.41800000000E+01 0. -1.
        -11    1    1    2    0    0 -0.23320430764E+02 -0.38474386691E+02  0.36628785229E+02  0.58015418895E+02  0.00000000000E+00 0.  1.
         11    1    1    2    0    0 -0.62542517161E+02  0.42818919577E+02  0.14477308165E+02  0.77166176387E+02  0.00000000000E+00 0. -1.
</event>
<event>
 7    1  0.2394257E-009  0.2693139E+03  0.7561462E-02  0.1101673E+00
          1   -1    0    0  501    0  0.00000000000E+00  0.00000000000E+00  0.11763227478E+04  0.11763227478E+04  0.00000000000E+00 0. -1.
         -1   -1    0    0    0  501 -0.00000000000E+00 -0.00000000000E+00 -0.89339516073E+02  0.89339516073E+02  0.00000000000E+00 0.  1.
         25    2    1    2    0    0  0.24582318854E+03  0.79837399347E+02  0.86993705948E+03  0.91610020143E+03  0.12508413665E+03 0.  0.
          5    1    3    3  502    0  0.24549468537E+03  0.63301491036E+02  0.68577062062E+03  0.73114535888E+03  0.41800000000E+01 0. -1.
         -5    1    3    3    0  502  0.32850316960E+00  0.16535908311E+02  0.18416643886E+03  0.18495484254E+03  0.41800000000E+01 0. -1.
        -11    1    1    2    0    0 -0.13683097314E+03 -0.81004979139E+02  0.92113879543E+02  0.18376476447E+03  0.00000000000E+00 0.  1.
         11    1    1    2    0    0 -0.10899221540E+03  0.11675797925E+01  0.12493229275E+03  0.16579729802E+03  0.00000000000E+00 0. -1.
</event>
<event>
 7    1  0.2394257E-009  0.1327758E+03  0.7561462E-02  0.1223394E+00
         -2   -1    0    0    0  501 -0.00000000000E+00  0.00000000000E+00  0.57649066880E+02  0.57649066880E+02  0.00000000000E+00 0.  1.
          2   -1    0    0  501    0  0.00000000000E+00 -0.00000000000E+00 -0.57257573196E+03  0.57257573196E+03  0.00000000000E+00 0. -1.
         25    2    1    2    0    0  0.26573685152E+02 -0.12895254156E+03 -0.16657834512E+03  0.24643711284E+03  0.12509191342E+03 0.  0.
          5    1    3    3  502    0 -0.29523310267E+01 -0.18078733347E+02  0.19950002399E+02  0.27404960384E+02  0.41800000000E+01 0.  1.
         -5    1    3    3    0  502  0.29526016179E+02 -0.11087380821E+03 -0.18652834752E+03  0.21903215245E+03  0.41800000000E+01 0.  1.
        -11    1    1    2    0    0 -0.14031258850E+02  0.47266255555E+02 -0.36962495340E+02  0.61621434589E+02  0.00000000000E+00 0.  1.
         11    1    1    2    0    0 -0.12542426302E+02  0.81686286003E+02 -0.31138582462E+03  0.32216625142E+03  0.00000000000E+00 0. -1.
</event>
<event>
 7    1  0.2394257E-009  0.1087522E+03  0.7561462E-02  0.1262898E+00
          2   -1    0    0  501    0  0.00000000000E+00  0.00000000000E+00  0.74409556193E+03  0.74409556193E+03  0.00000000000E+00 0.  1.
         -2   -1    0    0    0  501 -0.00000000000E+00 -0.00000000000E+00 -0.18068750822E+02  0.18068750822E+02  0.00000000000E+00 0. -1.
         25    2    1    2    0    0  0.13402893834E+00  0.43013084285E+02  0.38758563061E+03  0.40953576625E+03  0.12508708725E+03 0.  0.
          5    1    3    3  502    0  0.39173107879E+02 -0.29571260571E+02  0.16235376958E+03  0.16966204859E+03  0.41800000000E+01 0.  1.
         -5    1    3    3    0  502 -0.39039078941E+02  0.72584344856E+02  0.22523186103E+03  0.23987371766E+03  0.41800000000E+01 0.  1.
        -11    1    1    2    0    0  0.31628502062E+01 -0.64201390543E+02  0.31215954370E+03  0.31870896268E+03  0.00000000000E+00 0.  1.
         11    1    1    2    0    0 -0.32968791445E+01  0.21188306258E+02  0.26281636797E+02  0.33919583826E+02  0.00000000000E+00 0. -1.
</event>
<event>
 7    1  0.2394257E-009  0.1417295E+03  0.7561462E-02  0.1211021E+00
         -2   -1    0    0    0  501 -0.00000000000E+00  0.00000000000E+00  0.25117336129E+02  0.25117336129E+02  0.00000000000E+00 0.  1.
          2   -1    0    0  501    0  0.00000000000E+00 -0.00000000000E+00 -0.11391878436E+04  0.11391878436E+04  0.00000000000E+00 0. -1.
         25    2    1    2    0    0  0.11839033704E+03  0.14086355967E+02 -0.75149787958E+03  0.77111067335E+03  0.12509160726E+03 0.  0.
          5    1    3    3  502    0  0.71550599602E+02  0.57782962889E+02 -0.59304157082E+03  0.60014509597E+03  0.41800000000E+01 0.  1.
         -5    1    3    3    0  502  0.46839737442E+02 -0.43696606921E+02 -0.15845630876E+03  0.17096557738E+03  0.41800000000E+01 0.  1.
        -11    1    1    2    0    0 -0.77880522122E+02 -0.30299893355E+02 -0.11702166581E+03  0.14379683422E+03  0.00000000000E+00 0.  1.
         11    1    1    2    0    0 -0.40509814923E+02  0.16213537388E+02 -0.24555096207E+03  0.24939767214E+03  0.00000000000E+00 0. -1.
</event>
<event>
 7    1  0.2394257E-009  0.1139384E+03  0.7561462E-02  0.1253446E+00
         -2   -1    0    0    0  501 -0.00000000000E+00  0.00000000000E+00  0.17172859683E+03  0.17172859683E+03  0.00000000000E+00 0.  1.
          2   -1    0    0  501    0  0.00000000000E+00 -0.00000000000E+00 -0.91310173934E+02  0.91310173934E+02  0.00000000000E+00 0. -1.
         25    2    1    2    0    0  0.23691204851E+02  0.45536369882E+02  0.45427411015E+01  0.13529132622E+03  0.12509305450E+03 0.  0.
          5    1    3    3  502    0 -0.42629959517E+02  0.42291017776E+02 -0.21393534114E+02  0.63882699809E+02  0.41800000000E+01 0. -1.
         -5    1    3    3    0  502  0.66321164368E+02  0.32453521060E+01  0.25936275216E+02  0.71408626408E+02  0.41800000000E+01 0. -1.
        -11    1    1    2    0    0 -0.37783416950E+02  0.13753809117E+02  0.19333622400E+02  0.44615499736E+02  0.00000000000E+00 0. -1.
         11    1    1    2    0    0  0.14092212098E+02 -0.59290178999E+02  0.56542059396E+02  0.83131944812E+02  0.00000000000E+00 0.  1.
</event>
<event>
 7    1  0.2394257E-009  0.7847910E+02  0.7561462E-02  0.1333424E+00
          2   -1    0    0  501    0  0.00000000000E+00  0.00000000000E+00  0.61772796382E+02  0.61772796382E+02  0.00000000000E+00 0.  1.
         -2   -1    0    0    0  501 -0.00000000000E+00 -0.00000000000E+00 -0.19098944908E+03  0.19098944908E+03  0.00000000000E+00 0. -1.
         25    2    1    2    0    0  0.22804039259E+02  0.46294833622E+00 -0.10386300165E+03  0.16418019102E+03  0.12508946192E+03 0.  0.
          5    1    3    3  502    0  0.36860238692E+01 -0.41802780268E+02  0.80750196773E+01  0.42938765153E+02  0.41800000000E+01 0.  1.
         -5    1    3    3    0  502  0.19118015390E+02  0.42265728604E+02 -0.11193802133E+03  0.12124142586E+03  0.41800000000E+01 0.  1.
        -11    1    1    2    0    0  0.88389078493E+01 -0.26054311237E+02 -0.37133352483E+02  0.46215141378E+02  0.00000000000E+00 0. -1.
         11    1    1    2    0    0 -0.31642947108E+02  0.25591362901E+02  0.11779701435E+02  0.42366913066E+02  0.00000000000E+00 0.  1.
</event>
<event>
 7    1  0.2394257E-009  0.1524082E+03  0.7561462E-02  0.1197545E+00
         -1   -1    0    0    0  501 -0.00000000000E+00  0.00000000000E+00  0.42954727778E+02  0.42954727778E+02  0.00000000000E+00 0.  1.
          1   -1    0    0  501    0  0.00000000000E+00 -0.00000000000E+00 -0.59432896636E+03  0.59432896636E+03  0.00000000000E+00 0. -1.
         25    2    1    2    0    0 -0.91187013070E+01  0.10713894318E+03 -0.20637526687E+03  0.26419708129E+03  0.12508974030E+03 0.  0.
          5    1    3    3  502    0 -0.13629872550E+02  0.13521729869E+03 -0.17559680934E+03  0.22208377505E+03  0.41800000000E+01 0. -1.
         -5    1    3    3    0  502  0.45111712433E+01 -0.28078355513E+02 -0.30778457533E+02  0.42113306239E+02  0.41800000000E+01 0. -1.
        -11    1    1    2    0    0 -0.26330102951E+02  0.95498275506E+00 -0.91810094745E+02  0.95515861565E+02  0.00000000000E+00 0.  1.
         11    1    1    2    0    0  0.35448804258E+02 -0.10809392594E+03 -0.25318887696E+03  0.27757075128E+03  0.00000000000E+00 0. -1.
</event>
<event>
 7    1  0.2394257E-009  0.9917464E+02  0.7561462E-02  0.1282041E+00
          1   -1    0    0  501    0  0.00000000000E+00  0.00000000000E+00  0.35154323144E+02  0.35154323144E+02  0.00000000000E+00 0. -1.
         -1   -1    0    0    0  501 -0.00000000000E+00 -0.00000000000E+00 -0.61013860318E+03  0.61013860318E+03  0.00000000000E+00 0.  1.
         25    2    1    2    0    0  0.44374439261E+02  0.41118116731E+02 -0.47567334644E+03  0.49555212608E+03  0.12508791613E+03 0.  0.
          5    1    3    3  502    0  0.35937697262E+02 -0.40844470359E+02 -0.15084244528E+03  0.16040793166E+03  0.41800000000E+01 0. -1.
         -5    1    3    3    0  502  0.84367419986E+01  0.81962587090E+02 -0.32483090117E+03  0.33514419442E+03  0.41800000000E+01 0. -1.
        -11    1    1    2    0    0 -0.32595821630E+02 -0.23887574448E+02 -0.11611429029E+03  0.12294564738E+03  0.00000000000E+00 0.  1.
         11    1    1    2    0    0 -0.11778617631E+02 -0.17230542283E+02  0.16803356697E+02  0.26795152863E+02  0.00000000000E+00 0. -1.
</event>
<event>
 7    1  0.2394257E-009  0.1239683E+03  0.7561462E-02  0.1236690E+00
          2   -1    0    0  501    0  0.00000000000E+00  0.00000000000E+00  0.81722026942E+03  0.81722026942E+03  0.00000000000E+00 0. -1.
         -2   -1    0    0    0  501 -0.00000000000E+00 -0.00000000000E+00 -0.20439713625E+02  0.20439713625E+02  0.00000000000E+00 0.  1.
         25    2    1    2    0    0 -0.53249179200E+02 -0.21588109021E+02  0.35012050907E+03  0.37620911511E+03  0.12508959143E+03 0.  0.
          5    1    3    3  502    0 -0.61323084490E+02  0.38314940138E+02  0.14138105710E+03  0.15885411873E+03  0.41800000000E+01 0. -1.
         -5    1    3    3    0  502  0.80739052897E+01 -0.59903049159E+02  0.20873945197E+03  0.21735499639E+03  0.41800000000E+01 0. -1.
        -11    1    1    2    0    0  0.76562697728E+02 -0.83016103849E+01  0.26990542652E+03  0.28067722153E+03  0.00000000000E+00 0.  1.
         11    1    1    2    0    0 -0.23313518528E+02  0.29889719406E+02  0.17675462020E+03  0.18077364641E+03  0.00000000000E+00 0. -1.
</event>
<event>
 7    1  0.2394257E-009  0.1538658E+03  0.7561462E-02  0.1195802E+00
          2   -1    0    0  501    0  0.00000000000E+00  0.00000000000E+00  0.38265411796E+03  0.38265411796E+03  0.00000000000E+00 0. -1.
         -2   -1    0    0    0  501 -0.00000000000E+00 -0.00000000000E+00 -0.77184289014E+02  0.77184289014E+02  0.00000000000E+00 0.  1.
         25    2    1    2    0    0  0.12589526048E+03  0.44602558597E+02  0.17044759844E+03  0.25007431258E+03  0.12508306501E+03 0.  0.
          5    1    3    3  502    0 -0.19348732949E+02  0.46281665266E+01 -0.27236060114E+01  0.20510578291E+02  0.41800000000E+01 0. -1.
         -5    1    3    3    0  502  0.14524399343E+03  0.39974392070E+02  0.17317120445E+03  0.22956373429E+03  0.41800000000E+01 0. -1.
        -11    1    1    2    0    0 -0.18174953628E+02  0.38600300104E+01 -0.11275526299E+02  0.21733988690E+02  0.00000000000E+00 0.  1.
         11    1    1    2    0    0 -0.10772030686E+03 -0.48462588607E+02  0.14629775680E+03  0.18803010570E+03  0.00000000000E+00 0. -1.
</event>
<event>
 7    1  0.2394257E-009  0.2482755E+03  0.7561462E-02  0.1114400E+00
          2   -1    0    0  501    0  0.00000000000E+00  0.00000000000E+00  0.56088918463E+03  0.56088918463E+03  0.00000000000E+00 0. -1.
         -2   -1    0    0    0  501 -0.00000000000E+00 -0.00000000000E+00 -0.12547682432E+03  0.12547682432E+03  0.00000000000E+00 0.  1.
         25    2    1    2    0    0 -0.98151664552E+02  0.21386064643E+03  0.15335472789E+03  0.30746623946E+03  0.12509072905E+03 0.  0.
          5    1    3    3  502    0 -0.22698180469E+02  0.16008232072E+03  0.51569675018E+02  0.16976000879E+03  0.41800000000E+01 0.  1.
         -5    1    3    3    0  502 -0.75453484084E+02  0.53778325716E+02  0.10178505287E+03  0.13770623067E+03  0.41800000000E+01 0.  1.
        -11    1    1    2    0    0  0.71103876515E+02 -0.87047879469E+02  0.76847765240E+02  0.13615679784E+03  0.00000000000E+00 0.  1.
         11    1    1    2    0    0  0.27047788037E+02 -0.12681276696E+03  0.20520986718E+03  0.24274297166E+03  0.00000000000E+00 0. -1.
</event>
<event>
 7    1  0.2394257E-009  0.1092335E+03  0.7561462E-02  0.1261996E+00
         -3   -1    0    0    0  501 -0.00000000000E+00  0.00000000000E+00  0.51179432794E+02  0.51179432794E+02  0.00000000000E+00 0.  1.
          3   -1    0    0  501    0  0.00000000000E+00 -0.00000000000E+00 -0.40518766185E+03  0.40518766185E+03  0.00000000000E+00 0. -1.
         25    2    1    2    0    0  0.85155250335E+02  0.10793966963E+02 -0.25550028754E+03  0.29714628764E+03  0.12509033913E+03 0.  0.
          5    1    3    3  502    0 -0.29543463863E+01  0.11205263630E+02 -0.18175226838E+03  0.18216927720E+03  0.41800000000E+01 0. -1.
         -5    1    3    3    0  502  0.88109596721E+02 -0.41129666750E+00 -0.73748019161E+02  0.11497701044E+03  0.41800000000E+01 0. -1.
        -11    1    1    2    0    0 -0.10101088419E+03 -0.13310788140E+02 -0.10041857724E+03  0.14305336927E+03  0.00000000000E+00 0. -1.
         11    1    1    2    0    0  0.15855633852E+02  0.25168211773E+01  0.19106357289E+01  0.16167437725E+02  0.00000000000E+00 0.  1.
</event>
<event>
 7    1  0.2394257E-009  0.1148995E+03  0.7561462E-02  0.1251757E+00
         -2   -1    0    0    0  501 -0.00000000000E+00  0.00000000000E+00  0.65646662963E+02  0.65646662963E+02  0.00000000000E+00 0.  1.
          2   -1    0    0  501    0  0.00000000000E+00 -0.00000000000E+00 -0.21272227101E+03  0.21272227101E+03  0.00000000000E+00 0. -1.
         25    2    1    2    0    0  0.39743301545E+02  0.12331981634E+02 -0.57742479256E+02  0.14392206800E+03  0.12509100671E+03 0.  0.
          5    1    3    3  502    0 -0.32495222539E+02  0.42154392581E+02 -0.27098458658E+02  0.59872624490E+02  0.41800000000E+01 0.  1.
         -5    1    3    3    0  502  0.72238524084E+02 -0.29822410947E+02 -0.30644020597E+02  0.84049443513E+02  0.41800000000E+01 0.  1.
        -11    1    1    2    0    0  0.20508001222E+02 -0.29104077822E+02 -0.19100839577E+02  0.40403805917E+02  0.00000000000E+00 0.  1.
         11    1    1    2    0    0 -0.60251302768E+02  0.16772096187E+02 -0.70232289213E+02  0.94043060051E+02  0.00000000000E+00 0. -1.
</event>
<event>
 7    1  0.2394257E-009  0.1480070E+03  0.7561462E-02  0.1202944E+00
         -2   -1    0    0    0  501 -0.00000000000E+00  0.00000000000E+00  0.24137900852E+03  0.24137900852E+03  0.00000000000E+00 0.  1.
          2   -1    0    0  501    0  0.00000000000E+00 -0.00000000000E+00 -0.10470548564E+03  0.10470548564E+03  0.00000000000E+00 0. -1.
         25    2    1    2    0    0  0.11305496126E+03 -0.14770776614E+02  0.95231366116E+02  0.19420892464E+03  0.12509393755E+03 0.  0.
          5    1    3    3  502    0  0.13391661033E+03  0.40442450415E+01  0.54830591786E+02  0.14482361905E+03  0.41800000000E+01 0.  1.
         -5    1    3    3    0  502 -0.20861649067E+02 -0.18815021656E+02  0.40400774330E+02  0.49385305589E+02  0.41800000000E+01 0.  1.
        -11    1    1    2    0    0 -0.90103421837E+02  0.40761764914E+02  0.56696655965E+02  0.11399411784E+03  0.00000000000E+00 0.  1.
         11    1    1    2    0    0 -0.22951539426E+02 -0.25990988300E+02 -0.15254499198E+02  0.37881451669E+02  0.00000000000E+00 0. -1.
</event>
<event>
 7    1  0.2394257E-009  0.8668379E+02  0.7561462E-02  0.1311087E+00
         -2   -1    0    0    0  501 -0.00000000000E+00  0.00000000000E+00  0.11437095267E+03  0.11437095267E+03  0.00000000000E+00 0.  1.
          2   -1    0    0  501    0  0.00000000000E+00 -0.00000000000E+00 -0.14023277070E+03  0.14023277070E+03  0.00000000000E+00 0. -1.
         25    2    1    2    0    0 -0.86468443863E+01 -0.29757804179E+02 -0.72316058225E+02  0.14777390275E+03  0.12508884534E+03 0.  0.
          5    1    3    3  502    0  0.34106548578E+02  0.34103887847E+02 -0.45023318055E+02  0.66112808069E+02  0.41800000000E+01 0.  1.
         -5    1    3    3    0  502 -0.42753392964E+02 -0.63861692026E+02 -0.27292740170E+02  0.81661094680E+02  0.41800000000E+01 0.  1.
        -11    1    1    2    0    0  0.22746972365E+02  0.13428238986E+02  0.70045622303E+02  0.74860747778E+02  0.00000000000E+00 0.  1.
         11    1    1    2    0    0 -0.14100127978E+02  0.16329565193E+02 -0.23591382111E+02  0.31969072841E+02  0.00000000000E+00 0. -1.
</event>
<event>
 7    1  0.2394257E-009  0.7933956E+02  0.7561462E-02  0.1330936E+00
         -2   -1    0    0    0  501 -0.00000000000E+00  0.00000000000E+00  0.61583691940E+02  0.61583691940E+02  0.00000000000E+00 0.  1.
          2   -1    0    0  501    0  0.00000000000E+00 -0.00000000000E+00 -0.21810310493E+03  0.21810310493E+03  0.00000000000E+00 0. -1.
         25    2    1    2    0    0 -0.18755291774E+02 -0.20626688544E+02 -0.60290256824E+02  0.14163234270E+03  0.12509030411E+03 0.  0.
          5    1    3    3  502    0  0.15618510965E+02 -0.19147261282E+02 -0.91575138584E+02  0.94942266173E+02  0.41800000000E+01 0.  1.
         -5    1    3    3    0  502 -0.34373802739E+02 -0.14794272628E+01  0.31284881760E+02  0.46690076531E+02  0.41800000000E+01 0.  1.
        -11    1    1    2    0    0  0.57721093579E+02  0.10108075530E+02 -0.58640978331E+02  0.82901520942E+02  0.00000000000E+00 0.  1.
         11    1    1    2    0    0 -0.38965801805E+02  0.10518613014E+02 -0.37588177831E+02  0.55152933219E+02  0.00000000000E+00 0. -1.
</event>
<event>
 7    1  0.2394257E-009  0.8972225E+02  0.7561462E-02  0.1303526E+00
          3   -1    0    0  501    0  0.00000000000E+00  0.00000000000E+00  0.59137103531E+03  0.59137103531E+03  0.00000000000E+00 0. -1.
         -3   -1    0    0    0  501 -0.00000000000E+00 -0.00000000000E+00 -0.21061509225E+02  0.21061509225E+02  0.00000000000E+00 0.  1.
         25    2    1    2    0    0 -0.25260861672E+02  0.12417807012E+02  0.37025932978E+03  0.39183068108E+03  0.12508796219E+03 0.  0.
          5    1    3    3  502    0  0.16425559960E+02  0.41717422473E+02  0.49075486706E+02  0.66603439500E+02  0.41800000000E+01 0.  1.
         -5    1    3    3    0  502 -0.41686421632E+02 -0.29299615461E+02  0.32118384308E+03  0.32522724158E+03  0.41800000000E+01 0.  1.
        -11    1    1    2    0    0  0.16062304631E+02  0.33132843709E+02  0.41968074173E+02  0.55831014787E+02  0.00000000000E+00 0.  1.
         11    1    1    2    0    0  0.91985570416E+01 -0.45550650721E+02  0.15808212212E+03  0.16477084866E+03  0.00000000000E+00 0. -1.
</event>
<event>
 7    1  0.2394257E-009  0.2100617E+03  0.7561462E-02  0.1141517E+00
          1   -1    0    0  501    0  0.00000000000E+00  0.00000000000E+00  0.77607195013E+02  0.77607195013E+02  0.00000000000E+00 0. -1.
         -1   -1    0    0    0  501 -0.00000000000E+00 -0.00000000000E+00 -0.59077389909E+03  0.59077389909E+03  0.00000000000E+00 0.  1.
         25    2    1    2    0    0  0.58418713757E+02 -0.17599647466E+03 -0.28762738848E+03  0.36436922123E+03  0.12509160470E+03 0.  0.
          5    1    3    3  502    0  0.69650144187E+02 -0.19100081913E+03 -0.25119119677E+03  0.32318252618E+03  0.41800000000E+01 0. -1.
         -5    1    3    3    0  502 -0.11231430430E+02  0.15004344473E+02 -0.36436191711E+02  0.41186695048E+02  0.41800000000E+01 0. -1.
        -11    1    1    2    0    0 -0.37008396229E+02  0.24072850832E+02 -0.22581252406E+02  0.49588673091E+02  0.00000000000E+00 0.  1.
         11    1    1    2    0    0 -0.21410317528E+02  0.15192362383E+03 -0.20295806318E+03  0.25442319978E+03  0.00000000000E+00 0. -1.
</event>
<event>
 7    1  0.2394257E-009  0.2192782E+03  0.7561462E-02  0.1134422E+00
         -1   -1    0    0    0  501 -0.00000000000E+00  0.00000000000E+00  0.14879509857E+03  0.14879509857E+03  0.00000000000E+00 0.  1.
          1   -1    0    0  501    0  0.00000000000E+00 -0.00000000000E+00 -0.61238090661E+03  0.61238090661E+03  0.00000000000E+00 0. -1.
         25    2    1    2    0    0 -0.12846307670E+03 -0.17248219832E+03 -0.83009307158E+01  0.24893518253E+03  0.12508776453E+03 0.  0.
          5    1    3    3  502    0 -0.47754217796E+02 -0.22566605251E+02 -0.50799109145E+02  0.73401218517E+02  0.41800000000E+01 0.  1.
         -5    1    3    3    0  502 -0.80708858906E+02 -0.14991559307E+03  0.42498178429E+02  0.17553396401E+03  0.41800000000E+01 0.  1.
        -11    1    1    2    0    0  0.29482698863E+02  0.33345979409E+02 -0.29248124216E+02  0.53260084915E+02  0.00000000000E+00 0. -1.
         11    1    1    2    0    0  0.98980377839E+02  0.13913621891E+03 -0.42603675311E+03  0.45898073773E+03  0.00000000000E+00 0.  1.
</event>
<event>
 7    1  0.2394257E-009  0.2624449E+03  0.7561462E-02  0.1105683E+00
          1   -1    0    0  501    0  0.00000000000E+00  0.00000000000E+00  0.43252944408E+03  0.43252944408E+03  0.00000000000E+00 0. -1.
         -1   -1    0    0    0  501 -0.00000000000E+00 -0.00000000000E+00 -0.19583425109E+03  0.19583425109E+03  0.00000000000E+00 0.  1.
         25    2    1    2    0    0 -0.22767723693E+03 -0.12707222735E+03  0.47469100859E+02  0.29306181988E+03  0.12509052546E+03 0.  0.
          5    1    3    3  502    0 -0.35759878267E+02 -0.31637587635E+02  0.61798572681E+02  0.78206405303E+02  0.41800000000E+01 0.  1.
         -5    1    3    3    0  502 -0.19191735866E+03 -0.95434639714E+02 -0.14329471822E+02  0.21485541458E+03  0.41800000000E+01 0.  1.
        -11    1    1    2    0    0  0.11776720656E+03  0.47940719341E+02  0.38906437069E+02  0.13297044167E+03  0.00000000000E+00 0.  1.
         11    1    1    2    0    0  0.10991003036E+03  0.79131508008E+02  0.15031965506E+03  0.20233143362E+03  0.00000000000E+00 0. -1.
</event>
<event>
 7    1  0.2394257E-009  0.7770239E+02  0.7561462E-02  0.1335701E+00
         -1   -1    0    0    0  501 -0.00000000000E+00  0.00000000000E+00  0.47301262405E+02  0.47301262405E+02  0.00000000000E+00 0.  1.
          1   -1    0    0  501    0  0.00000000000E+00 -0.00000000000E+00 -0.34991672163E+03  0.34991672163E+03  0.00000000000E+00 0. -1.
         25    2    1    2    0    0 -0.47013178844E+02  0.27059576947E+02 -0.15298794776E+03  0.20493482967E+03  0.12510200863E+03 0.  0.
          5    1    3    3  502    0 -0.18156377190E+02  0.30563660573E+02  0.11692668971E+02  0.37656105587E+02  0.41800000000E+01 0. -1.
         -5    1    3    3    0  502 -0.28856801653E+02 -0.35040836262E+01 -0.16468061673E+03  0.16727872408E+03  0.41800000000E+01 0. -1.
        -11    1    1    2    0    0  0.25631794828E+02  0.23858346487E+02 -0.12844881353E+03  0.13313642364E+03  0.00000000000E+00 0.  1.
         11    1    1    2    0    0  0.21381384016E+02 -0.50917923433E+02 -0.21178697938E+02  0.59146730726E+02  0.00000000000E+00 0. -1.
</event>
<event>
 7    1  0.2394257E-009  0.1466815E+03  0.7561462E-02  0.1204611E+00
          1   -1    0    0  501    0  0.00000000000E+00  0.00000000000E+00  0.67115211142E+03  0.67115211142E+03  0.00000000000E+00 0. -1.
         -1   -1    0    0    0  501 -0.00000000000E+00 -0.00000000000E+00 -0.37580692821E+02  0.37580692821E+02  0.00000000000E+00 0.  1.
         25    2    1    2    0    0  0.10522161751E+03  0.42377625925E+02  0.29711369667E+03  0.34174647009E+03  0.12508656643E+03 0.  0.
          5    1    3    3  502    0  0.10777412656E+03  0.34645213933E+01  0.12461025525E+03  0.16484069090E+03  0.41800000000E+01 0. -1.
         -5    1    3    3    0  502 -0.25525090569E+01  0.38913104532E+02  0.17250344142E+03  0.17690577919E+03  0.41800000000E+01 0. -1.
        -11    1    1    2    0    0 -0.25006332030E+02  0.29396612487E+02  0.78581850440E+02  0.87547613821E+02  0.00000000000E+00 0. -1.
         11    1    1    2    0    0 -0.80215285475E+02 -0.71774238413E+02  0.25787587149E+03  0.27943872033E+03  0.00000000000E+00 0.  1.
</event>
<event>
 7    1  0.2394257E-009  0.7089162E+02  0.7561462E-02  0.1357087E+00
          1   -1    0    0  501    0  0.00000000000E+00  0.00000000000E+00  0.10798768529E+03  0.10798768529E+03  0.00000000000E+00 0. -1.
         -1   -1    0    0    0  501 -0.00000000000E+00 -0.00000000000E+00 -0.13884180648E+03  0.13884180648E+03  0.00000000000E+00 0.  1.
         25    2    1    2    0    0 -0.46514294962E+02 -0.22945234094E+02  0.41301352513E+01  0.13547965589E+03  0.12509043025E+03 0.  0.
          5    1    3    3  502    0 -0.25913093754E+02 -0.13103642244E+02  0.64469141868E+02  0.70830336164E+02  0.41800000000E+01 0.  1.
         -5    1    3    3    0  502 -0.20601201208E+02 -0.98415918498E+01 -0.60339006616E+02  0.64649319724E+02  0.41800000000E+01 0.  1.
        -11    1    1    2    0    0  0.60557640977E+02 -0.20200631592E+01  0.64981843922E+01  0.60938780233E+02  0.00000000000E+00 0. -1.
         11    1    1    2    0    0 -0.14043346015E+02  0.24965297254E+02 -0.41482440830E+02  0.50411055647E+02  0.00000000000E+00 0.  1.
</event>
<event>
 7    1  0.2394257E-009  0.1213816E+03  0.7561462E-02  0.1240835E+00
          2   -1    0    0  501    0  0.00000000000E+00  0.00000000000E+00  0.94814908252E+02  0.94814908252E+02  0.00000000000E+00 0. -1.
         -2   -1    0    0    0  501 -0.00000000000E+00 -0.00000000000E+00 -0.29260750637E+03  0.29260750637E+03  0.00000000000E+00 0.  1.
         25    2    1    2    0    0 -0.68144926805E+02 -0.85456802227E+02 -0.17569626491E+03  0.24179494794E+03  0.12509605611E+03 0.  0.
          5    1    3    3  502    0 -0.83964211216E+01 -0.70846885568E+02 -0.16420498009E+03  0.17908246415E+03  0.41800000000E+01 0. -1.
         -5    1    3    3    0  502 -0.59748505684E+02 -0.14609916659E+02 -0.11491284819E+02  0.62712483789E+02  0.41800000000E+01 0. -1.
        -11    1    1    2    0    0  0.15026579152E+02  0.25017112004E+02 -0.52128361652E+02  0.59741276037E+02  0.00000000000E+00 0.  1.
         11    1    1    2    0    0  0.53118347654E+02  0.60439690223E+02  0.30032028436E+02  0.85886190646E+02  0.00000000000E+00 0. -1.
</event>
<event>
 7    1  0.2394257E-009  0.1002837E+03  0.7561462E-02  0.1279700E+00
         -1   -1    0    0    0  501 -0.00000000000E+00  0.00000000000E+00  0.84241566763E+02  0.84241566763E+02  0.00000000000E+00 0.  1.
          1   -1    0    0  501    0  0.00000000000E+00 -0.00000000000E+00 -0.15306481710E+03  0.15306481710E+03  0.00000000000E+00 0. -1.
         25    2    1    2    0    0 -0.23533206805E+02 -0.95446509802E+01 -0.11552057841E+02  0.12817134212E+03  0.12509808439E+03 0.  0.
          5    1    3    3  502    0 -0.27124982244E+02  0.45288824870E+02  0.28412083828E+02  0.60096266334E+02  0.41800000000E+01 0.  1.
         -5    1    3    3    0  502  0.35917754392E+01 -0.54833475850E+02 -0.39964141669E+02  0.68075075791E+02  0.41800000000E+01 0.  1.
        -11    1    1    2    0    0  0.67903162986E+00 -0.38916348269E+02 -0.19152259789E+02  0.43379168983E+02  0.00000000000E+00 0.  1.
         11    1    1    2    0    0  0.22854175175E+02  0.48460999250E+02 -0.38118932706E+02  0.65755872756E+02  0.00000000000E+00 0. -1.
</event>
<event>
 7    1  0.2394257E-009  0.1051304E+03  0.7561462E-02  0.1269863E+00
          1   -1    0    0  501    0  0.00000000000E+00  0.00000000000E+00  0.56179397677E+03  0.56179397677E+03  0.00000000000E+00 0.  1.
         -1   -1    0    0    0  501 -0.00000000000E+00 -0.00000000000E+00 -0.35656069420E+02  0.35656069420E+02  0.00000000000E+00 0. -1.
         25    2    1    2    0    0  0.29734874688E+02  0.40715476980E+02  0.45580432100E+03  0.47533414911E+03  0.12507222483E+03 0.  0.
          5    1    3    3  502    0  0.65799837100E+02  0.14497684676E+02  0.38960261195E+03  0.39540797800E+03  0.41800000000E+01 0.  1.
         -5    1    3    3    0  502 -0.36064962412E+02  0.26217792304E+02  0.66201709050E+02  0.79926171109E+02  0.41800000000E+01 0.  1.
        -11    1    1    2    0    0 -0.43991445359E+02  0.10147665383E+02  0.44200883383E+02  0.63181804891E+02  0.00000000000E+00 0.  1.
         11    1    1    2    0    0  0.14256570671E+02 -0.50863142363E+02  0.26132702965E+02  0.58934092193E+02  0.00000000000E+00 0. -1.
</event>
<event>
 7    1  0.2394257E-009  0.1212717E+03  0.7561462E-02  0.1241014E+00
         -2   -1    0    0    0  501 -0.00000000000E+00  0.00000000000E+00  0.24450024049E+02  0.24450024049E+02  0.00000000000E+00 0.  1.
          2   -1    0    0  501    0  0.00000000000E+00 -0.00000000000E+00 -0.62362774087E+03  0.62362774087E+03  0.00000000000E+00 0. -1.
         25    2    1    2    0    0  0.57015860859E+02  0.10769951725E+02 -0.34808785463E+03  0.37440488596E+03  0.12508822424E+03 0.  0.
          5    1    3    3  502    0  0.87121243083E+00  0.59721971830E+02 -0.19705276508E+03  0.20594838566E+03  0.41800000000E+01 0. -1.
         -5    1    3    3    0  502  0.56144648429E+02 -0.48952020104E+02 -0.15103508954E+03  0.16845650030E+03  0.41800000000E+01 0. -1.
        -11    1    1    2    0    0 -0.52233262526E+00  0.35215767281E+02 -0.66956636971E+02  0.75654572440E+02  0.00000000000E+00 0.  1.
         11    1    1    2    0    0 -0.56493528234E+02 -0.45985719007E+02 -0.18413322522E+03  0.19801830652E+03  0.00000000000E+00 0. -1.
</event>
<event>
 7    1  0.2394257E-009  0.1140695E+03  0.7561462E-02  0.1253214E+00
          3   -1    0    0  501    0  0.00000000000E+00  0.00000000000E+00  0.75934214688E+02  0.75934214688E+02  0.00000000000E+00 0. -1.
         -3   -1    0    0    0  501 -0.00000000000E+00 -0.00000000000E+00 -0.21167030882E+03  0.21167030882E+03  0.00000000000E+00 0.  1.
         25    2    1    2    0    0  0.16998698369E+02 -0.54671146693E+02 -0.42336349347E+02  0.14393682045E+03  0.12509017458E+03 0.  0.
          5    1    3    3  502    0 -0.50009203655E+02 -0.17599892450E+01 -0.27257142054E+02  0.57135297367E+02  0.41800000000E+01 0. -1.
         -5    1    3    3    0  502  0.67007902024E+02 -0.52911157448E+02 -0.15079207294E+02  0.86801523079E+02  0.41800000000E+01 0. -1.
        -11    1    1    2    0    0 -0.42577664206E+02  0.14808884064E+02 -0.76740226052E+01  0.45728012853E+02  0.00000000000E+00 0. -1.
         11    1    1    2    0    0  0.25578965837E+02  0.39862262629E+02 -0.85725722178E+02  0.97939690208E+02  0.00000000000E+00 0.  1.
</event>
<event>
 7    1  0.2394257E-009  0.1103384E+03  0.7561462E-02  0.1259945E+00
          1   -1    0    0  501    0  0.00000000000E+00  0.00000000000E+00  0.26876834663E+02  0.26876834663E+02  0.00000000000E+00 0. -1.
         -1   -1    0    0    0  501 -0.00000000000E+00 -0.00000000000E+00 -0.63441063542E+03  0.63441063542E+03  0.00000000000E+00 0.  1.
         25    2    1    2    0    0 -0.50009681321E+02 -0.48855954793E+02 -0.25700757361E+03  0.29425968108E+03  0.12509194407E+03 0.  0.
          5    1    3    3  502    0  0.24411405954E+02 -0.23275800174E+02 -0.18307309150E+03  0.18620125898E+03  0.41800000000E+01 0.  1.
         -5    1    3    3    0  502 -0.74421087275E+02 -0.25580154619E+02 -0.73934482111E+02  0.10805842210E+03  0.41800000000E+01 0.  1.
        -11    1    1    2    0    0 -0.54713873981E+01 -0.19265675610E+02 -0.85687071376E+02  0.87996457530E+02  0.00000000000E+00 0.  1.
         11    1    1    2    0    0  0.55481068719E+02  0.68121630403E+02 -0.26483915576E+03  0.27903133147E+03  0.00000000000E+00 0. -1.
</event>
<event>
 7    1  0.2394257E-009  0.1177565E+03  0.7561462E-02  0.1246845E+00
          2   -1    0    0  501    0  0.00000000000E+00  0.00000000000E+00  0.52561980601E+02  0.52561980601E+02  0.00000000000E+00 0. -1.
         -2   -1    0    0    0  501 -0.00000000000E+00 -0.00000000000E+00 -0.41194293131E+03  0.41194293131E+03  0.00000000000E+00 0.  1.
         25    2    1    2    0    0  0.86030775775E+02 -0.25421364480E+02 -0.13030426270E+03  0.20168478113E+03  0.12509999965E+03 0.  0.
          5    1    3    3  502    0  0.64546678712E+02  0.40226628023E+02 -0.10107986764E+03  0.12656645439E+03  0.41800000000E+01 0. -1.
         -5    1    3    3    0  502  0.21484097063E+02 -0.65647992502E+02 -0.29224395053E+02  0.75118326741E+02  0.41800000000E+01 0. -1.
        -11    1    1    2    0    0 -0.48047006772E+02  0.18755457672E+02 -0.21604052856E+03  0.22211211591E+03  0.00000000000E+00 0. -1.
         11    1    1    2    0    0 -0.37983769002E+02  0.66659068077E+01 -0.13036159449E+02  0.40708014866E+02  0.00000000000E+00 0.  1.
</event>
<event>
 7    1  0.2394257E-009  0.1616669E+03  0.7561462E-02  0.1186828E+00
          2   -1    0    0  501    0  0.00000000000E+00  0.00000000000E+00  0.57215849422E+03  0.57215849422E+03  0.00000000000E+00 0. -1.
         -2   -1    0    0    0  501 -0.00000000000E+00 -0.00000000000E+00 -0.45935514239E+02  0.45935514239E+02  0.00000000000E+00 0.  1.
         25    2    1    2    0    0  0.19258289467E+02  0.11863599841E+03  0.26654215611E+03  0.31801992121E+03  0.12508624014E+03 0.  0.
          5    1    3    3  502    0  0.71174185943E+02  0.87124968211E+02  0.17085347328E+03  0.20460915562E+03  0.41800000000E+01 0. -1.
         -5    1    3    3    0  502 -0.51915896477E+02  0.31511030198E+02  0.95688682824E+02  0.11341076559E+03  0.41800000000E+01 0. -1.
        -11    1    1    2    0    0  0.90332912417E+01 -0.12114197240E+03  0.21942327941E+03  0.25080580810E+03  0.00000000000E+00 0. -1.
         11    1    1    2    0    0 -0.28291580708E+02  0.25059739911E+01  0.40257544462E+02  0.49268279153E+02  0.00000000000E+00 0.  1.
</event>
<event>
 7    1  0.2394257E-009  0.1950049E+03  0.7561462E-02  0.1154023E+00
         -2   -1    0    0    0  501 -0.00000000000E+00  0.00000000000E+00  0.89582736608E+03  0.89582736608E+03  0.00000000000E+00 0.  1.
          2   -1    0    0  501    0  0.00000000000E+00 -0.00000000000E+00 -0.46519157183E+02  0.46519157183E+02  0.00000000000E+00 0. -1.
         25    2    1    2    0    0  0.16188733978E+03 -0.54092710159E+02  0.38025679086E+03  0.43517315685E+03  0.12508763880E+03 0.  0.
          5    1    3    3  502    0  0.12305134298E+03 -0.86001945205E+02  0.33613655232E+03  0.36816195050E+03  0.41800000000E+01 0. -1.
         -5    1    3    3    0  502  0.38835996798E+02  0.31909235047E+02  0.44120238534E+02  0.67011206352E+02  0.41800000000E+01 0. -1.
        -11    1    1    2    0    0 -0.14707191164E+03  0.15303851627E+02  0.40171009476E+03  0.42805999031E+03  0.00000000000E+00 0.  1.
         11    1    1    2    0    0 -0.14815428138E+02  0.38788858532E+02  0.67341323274E+02  0.79113376096E+02  0.00000000000E+00 0. -1.
</event>
<event>
 7    1  0.2394257E-009  0.1179024E+03  0.7561462E-02  0.1246598E+00
         -1   -1    0    0    0  501 -0.00000000000E+00  0.00000000000E+00  0.55661921708E+03  0.55661921708E+03  0.00000000000E+00 0.  1.
          1   -1    0    0  501    0  0.00000000000E+00 -0.00000000000E+00 -0.31220643571E+02  0.31220643571E+02  0.00000000000E+00 0. -1.
         25    2    1    2    0    0 -0.41617318910E+02  0.56458422846E+02  0.22143538247E+03  0.26381870242E+03  0.12508846628E+03 0.  0.
          5    1    3    3  502    0 -0.75855457608E+02  0.48974085636E+02  0.20664778073E+03  0.22555107890E+03  0.41800000000E+01 0. -1.
         -5    1    3    3    0  502  0.34238138699E+02  0.74843372100E+01  0.14787601743E+02  0.38267623526E+02  0.41800000000E+01 0. -1.
        -11    1    1    2    0    0  0.42729694178E+02  0.98122287190E+01  0.91528462639E+02  0.10148677781E+03  0.00000000000E+00 0.  1.
         11    1    1    2    0    0 -0.11123752680E+01 -0.66270651565E+02  0.21243472840E+03  0.22253438042E+03  0.00000000000E+00 0. -1.
</event>
<event>
 7    1  0.2394257E-009  0.1194478E+03  0.7561462E-02  0.1244011E+00
         -4   -1    0    0    0  501 -0.00000000000E+00  0.00000000000E+00  0.13205065249E+03  0.13205065249E+03  0.00000000000E+00 0.  1.
          4   -1    0    0  501    0  0.00000000000E+00 -0.00000000000E+00 -0.13574872474E+03  0.13574872474E+03  0.00000000000E+00 0. -1.
         25    2    1    2    0    0 -0.55933799705E+02  0.51962024959E+02 -0.19697512135E+02  0.14786912858E+03  0.12509454510E+03 0.  0.
          5    1    3    3  502    0  0.19725992931E+02 -0.10077237165E+02 -0.41784328960E+02  0.47477026577E+02  0.41800000000E+01 0. -1.
         -5    1    3    3    0  502 -0.75659792636E+02  0.62039262124E+02  0.22086816825E+02  0.10039210200E+03  0.41800000000E+01 0. -1.
        -11    1    1    2    0    0  0.18657978526E+02  0.26002591501E+02 -0.21573998990E+00  0.32004710140E+02  0.00000000000E+00 0. -1.
         11    1    1    2    0    0  0.37275821180E+02 -0.77964616460E+02  0.16215179873E+02  0.87925538512E+02  0.00000000000E+00 0.  1.
</event>
<event>
 7    1  0.2394257E-009  0.1081500E+03  0.7561462E-02  0.1264035E+00
         -1   -1    0    0    0  501 -0.00000000000E+00  0.00000000000E+00  0.35700251058E+03  0.35700251058E+03  0.00000000000E+00 0.  1.
          1   -1    0    0  501    0  0.00000000000E+00 -0.00000000000E+00 -0.44200026159E+02  0.44200026159E+02  0.00000000000E+00 0. -1.
         25    2    1    2    0    0 -0.23365392659E+02 -0.11220475906E+02  0.26109191211E+03  0.29066629780E+03  0.12508424943E+03 0.  0.
          5    1    3    3  502    0 -0.69098316450E+02  0.66718053610E+01  0.20245829467E+03  0.21406990402E+03  0.41800000000E+01 0.  1.
         -5    1    3    3    0  502  0.45732923790E+02 -0.17892281267E+02  0.58633617438E+02  0.76596393787E+02  0.41800000000E+01 0.  1.
        -11    1    1    2    0    0  0.59545165301E+02 -0.14637728209E+00  0.27899537261E+02  0.65757374616E+02  0.00000000000E+00 0. -1.
         11    1    1    2    0    0 -0.36179772641E+02  0.11366853188E+02  0.23811035047E+02  0.44778864320E+02  0.00000000000E+00 0.  1.
</event>
<event>
 7    1  0.2394257E-009  0.1279780E+03  0.7561462E-02  0.1230487E+00
          2   -1    0    0  501    0  0.00000000000E+00  0.00000000000E+00  0.12116692315E+03  0.12116692315E+03  0.00000000000E+00 0.  1.
         -2   -1    0    0    0  501 -0.00000000000E+00 -0.00000000000E+00 -0.15808159748E+03  0.15808159748E+03  0.00000000000E+00 0. -1.
         25    2    1    2    0    0 -0.45043522473E+02  0.67316213561E+02  0.75640048530E+01  0.14921535851E+03  0.12509043737E+03 0.  0.
          5    1    3    3  502    0  0.33668625244E+02 -0.54791926983E+01 -0.18174150438E+02  0.38876342711E+02  0.41800000000E+01 0. -1.
         -5    1    3    3    0  502 -0.78712147716E+02  0.72795406260E+02  0.25738155291E+02  0.11033901580E+03  0.41800000000E+01 0. -1.
        -11    1    1    2    0    0  0.34321910065E+02  0.10383562898E+02 -0.36541443498E+02  0.51196571974E+02  0.00000000000E+00 0. -1.
         11    1    1    2    0    0  0.10721612408E+02 -0.77699776460E+02 -0.79372356839E+01  0.78836590139E+02  0.00000000000E+00 0.  1.
</event>
<event>
 7    1  0.2394257E-009  0.2307215E+03  0.7561462E-02  0.1126133E+00
         -2   -1    0    0    0  501 -0.00000000000E+00  0.00000000000E+00  0.85606220566E+02  0.85606220566E+02  0.00000000000E+00 0.  1.
          2   -1    0    0  501    0  0.00000000000E+00 -0.00000000000E+00 -0.97632318682E+03  0.97632318682E+03  0.00000000000E+00 0. -1.
         25    2    1    2    0    0 -0.84279867980E+02  0.18694464605E+03 -0.13761460661E+03  0.27683419588E+03  0.12509194708E+03 0.  0.
          5    1    3    3  502    0  0.24865020855E+02  0.91705848031E+02 -0.49272925337E+02  0.10711454335E+03  0.41800000000E+01 0. -1.
         -5    1    3    3    0  502 -0.10914488884E+03  0.95238798016E+02 -0.88341681277E+02  0.16971965254E+03  0.41800000000E+01 0. -1.
        -11    1    1    2    0    0 -0.11537652569E+02 -0.66580281569E+02 -0.25256766460E+03  0.26145071528E+03  0.00000000000E+00 0.  1.
         11    1    1    2    0    0  0.95817520549E+02 -0.12036436448E+03 -0.50053469504E+03  0.52364449622E+03  0.00000000000E+00 0. -1.
</event>
<event>
 7    1  0.2394257E-009  0.1079454E+03  0.7561462E-02  0.1264423E+00
         -2   -1    0    0    0  501 -0.00000000000E+00  0.00000000000E+00  0.10822488551E+03  0.10822488551E+03  0.00000000000E+00 0.  1.
          2   -1    0    0  501    0  0.00000000000E+00 -0.00000000000E+00 -0.22104377400E+03  0.22104377400E+03  0.00000000000E+00 0. -1.
         25    2    1    2    0    0 -0.40745383628E+02  0.57182323933E+02  0.28169692707E+02  0.14619253296E+03  0.12509484661E+03 0.  0.
          5    1    3    3  502    0  0.78553847126E+01  0.82779515221E+02  0.35708100267E+02  0.90590816498E+02  0.41800000000E+01 0. -1.
         -5    1    3    3    0  502 -0.48600768341E+02 -0.25597191288E+02 -0.75384075594E+01  0.55601716463E+02  0.41800000000E+01 0. -1.
        -11    1    1    2    0    0  0.35291484657E+02 -0.21235324348E+02 -0.14081743885E+03  0.14671734380E+03  0.00000000000E+00 0. -1.
         11    1    1    2    0    0  0.54538989706E+01 -0.35946999584E+02 -0.17114234678E+00  0.36358782747E+02  0.00000000000E+00 0.  1.
</event>
<event>
 7    1  0.2394257E-009  0.1032684E+03  0.7561462E-02  0.1273569E+00
          1   -1    0    0  501    0  0.00000000000E+00  0.00000000000E+00  0.25217112443E+03  0.25217112443E+03  0.00000000000E+00 0. -1.
         -1   -1    0    0    0  501 -0.00000000000E+00 -0.00000000000E+00 -0.59392047403E+02  0.59392047403E+02  0.00000000000E+00 0.  1.
         25    2    1    2    0    0 -0.36614381390E+02 -0.16615198498E+02  0.14967900655E+03  0.19916835692E+03  0.12509017407E+03 0.  0.
          5    1    3    3  502    0 -0.43472481885E+02 -0.51796974786E+02  0.29872068312E+02  0.74044555124E+02  0.41800000000E+01 0.  1.
         -5    1    3    3    0  502  0.68581004951E+01  0.35181776288E+02  0.11980693824E+03  0.12512380179E+03  0.41800000000E+01 0.  1.
        -11    1    1    2    0    0 -0.13801442533E+02  0.43447509920E+02  0.27307261269E+02  0.53139932746E+02  0.00000000000E+00 0.  1.
         11    1    1    2    0    0  0.50415823923E+02 -0.26832311422E+02  0.15792809204E+02  0.59254882167E+02  0.00000000000E+00 0. -1.
</event>
<event>
 7    1  0.2394257E-009  0.1339137E+03  0.7561462E-02  0.1221761E+00
          1   -1    0    0  501    0  0.00000000000E+00  0.00000000000E+00  0.29712971774E+02  0.29712971774E+02  0.00000000000E+00 0. -1.
         -1   -1    0    0    0  501 -0.00000000000E+00 -0.00000000000E+00 -0.73391882816E+03  0.73391882816E+03  0.00000000000E+00 0.  1.
         25    2    1    2    0    0 -0.85185602405E+02  0.12649262714E+02 -0.25582326297E+03  0.29750637423E+03  0.12509160695E+03 0.  0.
          5    1    3    3  502    0 -0.75475505057E+02 -0.45436151492E+02 -0.11592827068E+03  0.14566342049E+03  0.41800000000E+01 0.  1.
         -5    1    3    3    0  502 -0.97100973485E+01  0.58085414206E+02 -0.13989499229E+03  0.15184295374E+03  0.41800000000E+01 0.  1.
        -11    1    1    2    0    0  0.66015617194E+02  0.30990337157E+02 -0.19270574479E+03  0.20604360408E+03  0.00000000000E+00 0.  1.
         11    1    1    2    0    0  0.19169985212E+02 -0.43639599871E+02 -0.25567684863E+03  0.26008182161E+03  0.00000000000E+00 0. -1.
</event>
<event>
 7    1  0.2394257E-009  0.1040225E+03  0.7561462E-02  0.1272058E+00
         -1   -1    0    0    0  501 -0.00000000000E+00  0.00000000000E+00  0.94370068624E+02  0.94370068624E+02  0.00000000000E+00 0.  1.
          1   -1    0    0  501    0  0.00000000000E+00 -0.00000000000E+00 -0.15158293263E+03  0.15158293263E+03  0.00000000000E+00 0. -1.
         25    2    1    2    0    0 -0.23997583303E+02  0.42763676438E+02 -0.19497112498E+02  0.13576533149E+03  0.12508985495E+03 0.  0.
          5    1    3    3  502    0  0.51124082029E+02  0.17557730754E+02 -0.15174101426E+02  0.56299835049E+02  0.41800000000E+01 0. -1.
         -5    1    3    3    0  502 -0.75121665332E+02  0.25205945684E+02 -0.43230110717E+01  0.79465496442E+02  0.41800000000E+01 0. -1.
        -11    1    1    2    0    0 -0.59669632848E+01 -0.44085190613E+02  0.17134068462E+02  0.47672685936E+02  0.00000000000E+00 0.  1.
         11    1    1    2    0    0  0.29964546588E+02  0.13215141753E+01 -0.54849819969E+02  0.62514983825E+02  0.00000000000E+00 0. -1.
</event>
<event>
 7    1  0.2420084E-009  0.1160896E+03  0.7561462E-02  0.1249691E+00
          3   -1    0    0  501    0  0.00000000000E+00  0.00000000000E+00  0.21452543758E+03  0.21452543758E+03  0.00000000000E+00 0. -1.
         -3   -1    0    0    0  501 -0.00000000000E+00 -0.00000000000E+00 -0.83441336443E+02  0.83441336443E+02  0.00000000000E+00 0.  1.
         25    2    1    2    0    0 -0.63075906948E+02  0.27424807708E+02  0.11440468444E+03  0.18294268304E+03  0.12509557681E+03 0.  0.
          5    1    3    3  502    0 -0.83739848734E+01  0.71491173797E+02  0.52086820677E+02  0.88947292493E+02  0.41800000000E+01 0. -1.
         -5    1    3    3    0  502 -0.54701922075E+02 -0.44066366089E+02  0.62317863767E+02  0.93995390543E+02  0.41800000000E+01 0. -1.
        -11    1    1    2    0    0  0.39934596641E+02  0.13952064433E+02 -0.27309470787E+02  0.50351159922E+02  0.00000000000E+00 0.  1.
         11    1    1    2    0    0  0.23141310307E+02 -0.41376872141E+02  0.43988887485E+02  0.64672931069E+02  0.00000000000E+00 0. -1.
</event>
<event>
 7    1  0.2394257E-009  0.2212844E+03  0.7561462E-02  0.1132929E+00
          2   -1    0    0  501    0  0.00000000000E+00  0.00000000000E+00  0.89280328927E+03  0.89280328927E+03  0.00000000000E+00 0. -1.
         -2   -1    0    0    0  501 -0.00000000000E+00 -0.00000000000E+00 -0.58004416695E+02  0.58004416695E+02  0.00000000000E+00 0.  1.
         25    2    1    2    0    0  0.15366672639E+03  0.12555456750E+03  0.39068843512E+03  0.45569869357E+03  0.12508570567E+03 0.  0.
          5    1    3    3  502    0  0.14718800231E+03  0.60317178056E+02  0.32956622808E+03  0.36596972700E+03  0.41800000000E+01 0.  1.
         -5    1    3    3    0  502  0.64787240820E+01  0.65237389448E+02  0.61122207044E+02  0.89728966570E+02  0.41800000000E+01 0.  1.
        -11    1    1    2    0    0 -0.31296785424E+02  0.12116373180E+02  0.51982852187E+02  0.61874972311E+02  0.00000000000E+00 0. -1.
         11    1    1    2    0    0 -0.12236994096E+03 -0.13767094068E+03  0.39212758527E+03  0.43323404009E+03  0.00000000000E+00 0.  1.
</event>
<event>
 7    1  0.2394257E-009  0.1754699E+03  0.7561462E-02  0.1172261E+00
         -1   -1    0    0    0  501 -0.00000000000E+00  0.00000000000E+00  0.41841360236E+03  0.41841360236E+03  0.00000000000E+00 0.  1.
          1   -1    0    0  501    0  0.00000000000E+00 -0.00000000000E+00 -0.88514793243E+02  0.88514793243E+02  0.00000000000E+00 0. -1.
         25    2    1    2    0    0  0.11611176947E+03 -0.93476093436E+02  0.24033835681E+03  0.30924223493E+03  0.12509400888E+03 0.  0.
          5    1    3    3  502    0  0.55191945808E+02 -0.11161718188E+03  0.19364182321E+03  0.23025892875E+03  0.41800000000E+01 0.  1.
         -5    1    3    3    0  502  0.60919823664E+02  0.18141088443E+02  0.46696533602E+02  0.78983306183E+02  0.41800000000E+01 0.  1.
        -11    1    1    2    0    0 -0.66657219590E+02  0.12576550144E+02  0.76056050694E+02  0.10191112493E+03  0.00000000000E+00 0.  1.
         11    1    1    2    0    0 -0.49454549882E+02  0.80899543293E+02  0.13504401614E+02  0.95775035745E+02  0.00000000000E+00 0. -1.
</event>
<event>
 7    1  0.2394257E-009  0.7894590E+02  0.7561462E-02  0.1332070E+00
          4   -1    0    0  501    0  0.00000000000E+00  0.00000000000E+00  0.92996811411E+02  0.92996811411E+02  0.00000000000E+00 0. -1.
         -4   -1    0    0    0  501 -0.00000000000E+00 -0.00000000000E+00 -0.17105764130E+03  0.17105764130E+03  0.00000000000E+00 0.  1.
         25    2    1    2    0    0  0.26532203985E+02  0.81580018417E+01 -0.10565241126E+03  0.16607241078E+03  0.12508837985E+03 0.  0.
          5    1    3    3  502    0  0.15656447459E+02 -0.48760134978E+02 -0.93542112150E+02  0.10672522783E+03  0.41800000000E+01 0. -1.
         -5    1    3    3    0  502  0.10875756526E+02  0.56918136820E+02 -0.12110299109E+02  0.59347182946E+02  0.41800000000E+01 0. -1.
        -11    1    1    2    0    0 -0.26224352333E+02  0.11582354719E+02  0.56277541803E+02  0.63158762713E+02  0.00000000000E+00 0. -1.
         11    1    1    2    0    0 -0.30785165183E+00 -0.19740356561E+02 -0.28685960432E+02  0.34823279221E+02  0.00000000000E+00 0.  1.
</event>
<event>
 7    1  0.2394257E-009  0.1414180E+03  0.7561462E-02  0.1211434E+00
          1   -1    0    0  501    0  0.00000000000E+00  0.00000000000E+00  0.79940666964E+03  0.79940666964E+03  0.00000000000E+00 0. -1.
         -1   -1    0    0    0  501 -0.00000000000E+00 -0.00000000000E+00 -0.37218514792E+02  0.37218514792E+02  0.00000000000E+00 0.  1.
         25    2    1    2    0    0 -0.10024134310E+03  0.24381377338E+02  0.60980642063E+03  0.63099481574E+03  0.12509120041E+03 0.  0.
          5    1    3    3  502    0 -0.11330416385E+03 -0.19566407172E+02  0.40143912263E+03  0.41760210657E+03  0.41800000000E+01 0.  1.
         -5    1    3    3    0  502  0.13062820754E+02  0.43947784510E+02  0.20836729800E+03  0.21339270917E+03  0.41800000000E+01 0.  1.
        -11    1    1    2    0    0  0.76867405069E+02  0.12697686977E+02  0.45767276079E+02  0.90357472166E+02  0.00000000000E+00 0.  1.
         11    1    1    2    0    0  0.23373938029E+02 -0.37079064315E+02  0.10661445814E+03  0.11527289653E+03  0.00000000000E+00 0. -1.
</event>
<event>
 7    1  0.2394257E-009  0.1822293E+03  0.7561462E-02  0.1165663E+00
          1   -1    0    0  501    0  0.00000000000E+00  0.00000000000E+00  0.28016669556E+03  0.28016669556E+03  0.00000000000E+00 0. -1.
         -1   -1    0    0    0  501 -0.00000000000E+00 -0.00000000000E+00 -0.13916322878E+03  0.13916322878E+03  0.00000000000E+00 0.  1.
         25    2    1    2    0    0 -0.11059324609E+03 -0.11377996274E+03  0.29087283030E+02  0.20413411351E+03  0.12509164745E+03 0.  0.
          5    1    3    3  502    0 -0.13514394650E+03 -0.10872853954E+03  0.12849639265E+02  0.17397806533E+03  0.41800000000E+01 0.  1.
         -5    1    3    3    0  502  0.24550700407E+02 -0.50514232046E+01  0.16237643764E+02  0.30156048181E+02  0.41800000000E+01 0.  1.
        -11    1    1    2    0    0  0.59808935672E+02  0.93218783148E+02  0.11583869102E+03  0.16026681708E+03  0.00000000000E+00 0. -1.
         11    1    1    2    0    0  0.50784310423E+02  0.20561179594E+02 -0.39225072787E+01  0.54928993753E+02  0.00000000000E+00 0.  1.
</event>
<event>
 7    1  0.2394257E-009  0.1437307E+03  0.7561462E-02  0.1208395E+00
          2   -1    0    0  501    0  0.00000000000E+00  0.00000000000E+00  0.59695921097E+03  0.59695921097E+03  0.00000000000E+00 0. -1.
         -2   -1    0    0    0  501 -0.00000000000E+00 -0.00000000000E+00 -0.54925721468E+02  0.54925721468E+02  0.00000000000E+00 0.  1.
         25    2    1    2    0    0  0.10105859411E+03 -0.52895328064E+02  0.44480912102E+03  0.47593184093E+03  0.12508080546E+03 0.  0.
          5    1    3    3  502    0 -0.33682754596E+01 -0.51759802677E+02  0.72575962344E+02  0.89303780227E+02  0.41800000000E+01 0.  1.
         -5    1    3    3    0  502  0.10442686957E+03 -0.11355253876E+01  0.37223315867E+03  0.38662806070E+03  0.41800000000E+01 0.  1.
        -11    1    1    2    0    0 -0.33903757289E+02  0.53979609787E+02  0.79533344392E+01  0.64237983778E+02  0.00000000000E+00 0.  1.
         11    1    1    2    0    0 -0.67154836825E+02 -0.10842817231E+01  0.89271034047E+02  0.11171510773E+03  0.00000000000E+00 0. -1.
</event>
<event>
 7    1  0.2394257E-009  0.1870588E+03  0.7561462E-02  0.1161141E+00
          1   -1    0    0  501    0  0.00000000000E+00  0.00000000000E+00  0.20241866279E+04  0.20241866279E+04  0.00000000000E+00 0. -1.
         -1   -1    0    0    0  501 -0.00000000000E+00 -0.00000000000E+00 -0.22443119178E+02  0.22443119178E+02  0.00000000000E+00 0.  1.
         25    2    1    2    0    0  0.13725502152E+03  0.56151553848E+02  0.14547921196E+04  0.14676717347E+04  0.12509305288E+03 0.  0.
          5    1    3    3  502    0 -0.15731121699E+02 -0.16722407441E+02  0.23550284561E+03  0.23665622703E+03  0.41800000000E+01 0. -1.
         -5    1    3    3    0  502  0.15298614322E+03  0.72873961289E+02  0.12192892740E+04  0.12310155077E+04  0.41800000000E+01 0. -1.
        -11    1    1    2    0    0 -0.15182112613E+03 -0.63963378039E+02  0.53106938428E+03  0.55603566342E+03  0.00000000000E+00 0. -1.
         11    1    1    2    0    0  0.14566104603E+02  0.78118241904E+01  0.15882004829E+02  0.22922348873E+02  0.00000000000E+00 0.  1.
</event>
<event>
 7    1  0.2394257E-009  0.1170913E+03  0.7561462E-02  0.1247974E+00
         -2   -1    0    0    0  501 -0.00000000000E+00  0.00000000000E+00  0.30061483119E+02  0.30061483119E+02  0.00000000000E+00 0.  1.
          2   -1    0    0  501    0  0.00000000000E+00 -0.00000000000E+00 -0.50434294167E+03  0.50434294167E+03  0.00000000000E+00 0. -1.
         25    2    1    2    0    0 -0.41614604849E+02  0.32008860927E+02 -0.34234541862E+03  0.36824480544E+03  0.12509000189E+03 0.  0.
          5    1    3    3  502    0  0.42297613761E+02 -0.30107605707E+01 -0.81370891908E+02  0.91852312214E+02  0.41800000000E+01 0. -1.
         -5    1    3    3    0  502 -0.83912218610E+02  0.35019621498E+02 -0.26097452671E+03  0.27639249323E+03  0.41800000000E+01 0. -1.
        -11    1    1    2    0    0  0.23469626892E+02  0.28765154164E+02 -0.41266044212E+02  0.55508052438E+02  0.00000000000E+00 0. -1.
         11    1    1    2    0    0  0.18144977957E+02 -0.60774015092E+02 -0.90669995722E+02  0.11065156691E+03  0.00000000000E+00 0.  1.
</event>
<event>
 7    1  0.2394257E-009  0.9501046E+02  0.7561462E-02  0.1291153E+00
         -3   -1    0    0    0  501 -0.00000000000E+00  0.00000000000E+00  0.91688581823E+02  0.91688581823E+02  0.00000000000E+00 0.  1.
          3   -1    0    0  501    0  0.00000000000E+00 -0.00000000000E+00 -0.21138770566E+03  0.21138770566E+03  0.00000000000E+00 0. -1.
         25    2    1    2    0    0 -0.46337875564E+02 -0.64438064269E+01  0.14095792894E+02  0.13429113419E+03  0.12508675386E+03 0.  0.
          5    1    3    3  502    0 -0.22782296639E+02  0.37462639738E+02 -0.40799168871E+02  0.60037713122E+02  0.41800000000E+01 0. -1.
         -5    1    3    3    0  502 -0.23555578925E+02 -0.43906446165E+02  0.54894961764E+02  0.74253421069E+02  0.41800000000E+01 0. -1.
        -11    1    1    2    0    0 -0.15265383339E+02  0.27013315858E+02 -0.17602834604E+02  0.35673673041E+02  0.00000000000E+00 0.  1.
         11    1    1    2    0    0  0.61603258903E+02 -0.20569509431E+02 -0.11619208213E+03  0.13311148025E+03  0.00000000000E+00 0. -1.
</event>
<event>
 7    1  0.2394257E-009  0.2167368E+03  0.7561462E-02  0.1136340E+00
         -2   -1    0    0    0  501 -0.00000000000E+00  0.00000000000E+00  0.51729882901E+03  0.51729882901E+03  0.00000000000E+00 0.  1.
          2   -1    0    0  501    0  0.00000000000E+00 -0.00000000000E+00 -0.10081179984E+03  0.10081179984E+03  0.00000000000E+00 0. -1.
         25    2    1    2    0    0  0.18272233102E+03  0.80090154656E+02  0.24815280185E+03  0.34209452090E+03  0.12508782929E+03 0.  0.
          5    1    3    3  502    0 -0.17918250808E+02  0.32641876203E+01  0.33528376655E+02  0.38384151338E+02  0.41800000000E+01 0. -1.
         -5    1    3    3    0  502  0.20064058183E+03  0.76825967036E+02  0.21462442520E+03  0.30371036956E+03  0.41800000000E+01 0. -1.
        -11    1    1    2    0    0 -0.17094384281E+03 -0.78158409950E+02  0.11279868548E+03  0.21921240358E+03  0.00000000000E+00 0. -1.
         11    1    1    2    0    0 -0.11778488218E+02 -0.19317447061E+01  0.55535541843E+02  0.56803704370E+02  0.00000000000E+00 0.  1.
</event>
<event>
 7    1  0.2394257E-009  0.2055304E+03  0.7561462E-02  0.1145155E+00
         -2   -1    0    0    0  501 -0.00000000000E+00  0.00000000000E+00  0.45994179580E+02  0.45994179580E+02  0.00000000000E+00 0. -1.
          2   -1    0    0  501    0  0.00000000000E+00 -0.00000000000E+00 -0.10305463296E+04  0.10305463296E+04  0.00000000000E+00 0.  1.
         25    2    1    2    0    0 -0.58939431833E+01 -0.18646087970E+03 -0.45497662666E+03  0.50739920980E+03  0.12509128300E+03 0.  0.
          5    1    3    3  502    0 -0.37540540942E+02 -0.50190434644E+02 -0.25943020499E+03  0.26692672329E+03  0.41800000000E+01 0.  1.
         -5    1    3    3    0  502  0.31646597759E+02 -0.13627044505E+03 -0.19554642166E+03  0.24047248651E+03  0.41800000000E+01 0.  1.
        -11    1    1    2    0    0  0.36950980221E+02  0.16829956174E+03 -0.42802252606E+03  0.46140372802E+03  0.00000000000E+00 0.  1.
         11    1    1    2    0    0 -0.31057037037E+02  0.18161317963E+02 -0.10155299736E+03  0.10773757141E+03  0.00000000000E+00 0. -1.
</event>
<event>
 7    1  0.2394257E-009  0.1839056E+03  0.7561462E-02  0.1164076E+00
         -2   -1    0    0    0  501 -0.00000000000E+00  0.00000000000E+00  0.87675048494E+02  0.87675048494E+02  0.00000000000E+00 0.  1.
          2   -1    0    0  501    0  0.00000000000E+00 -0.00000000000E+00 -0.52984399278E+03  0.52984399278E+03  0.00000000000E+00 0. -1.
         25    2    1    2    0    0  0.13264210003E+03 -0.10458298040E+03 -0.34021989270E+03  0.39991139978E+03  0.12509206925E+03 0.  0.
          5    1    3    3  502    0  0.10758714512E+03 -0.47799915744E+02 -0.10908348883E+03  0.16055063275E+03  0.41800000000E+01 0.  1.
         -5    1    3    3    0  502  0.25054954914E+02 -0.56783064654E+02 -0.23113640387E+03  0.23936076703E+03  0.41800000000E+01 0.  1.
        -11    1    1    2    0    0 -0.90148456721E+02  0.18822245265E+02 -0.26780005246E+02  0.95907193927E+02  0.00000000000E+00 0.  1.
         11    1    1    2    0    0 -0.42493643311E+02  0.85760735133E+02 -0.75169046342E+02  0.12170044758E+03  0.00000000000E+00 0. -1.
</event>
<event>
 7    1  0.2394257E-009  0.1661005E+03  0.7561462E-02  0.1181977E+00
         -2   -1    0    0    0  501 -0.00000000000E+00  0.00000000000E+00  0.44571307248E+03  0.44571307248E+03  0.00000000000E+00 0.  1.
          2   -1    0    0  501    0  0.00000000000E+00 -0.00000000000E+00 -0.74303481493E+02  0.74303481493E+02  0.00000000000E+00 0. -1.
         25    2    1    2    0    0 -0.60155146231E+02  0.13252037710E+03  0.22337948355E+03  0.29449402148E+03  0.12509213825E+03 0.  0.
          5    1    3    3  502    0  0.25746089402E+02 -0.28543449086E+01  0.60309135954E+02  0.65769846312E+02  0.41800000000E+01 0. -1.
         -5    1    3    3    0  502 -0.85901235634E+02  0.13537472201E+03  0.16307034760E+03  0.22872417517E+03  0.41800000000E+01 0. -1.
        -11    1    1    2    0    0  0.38215827967E+02 -0.79951299844E+02  0.28453942497E+02  0.93071406445E+02  0.00000000000E+00 0. -1.
         11    1    1    2    0    0  0.21939318264E+02 -0.52569077255E+02  0.11957616494E+03  0.13245112605E+03  0.00000000000E+00 0.  1.
</event>
<event>
 7    1  0.2394257E-009  0.8068118E+02  0.7561462E-02  0.1327129E+00
          3   -1    0    0  501    0  0.00000000000E+00  0.00000000000E+00  0.11604783147E+03  0.11604783147E+03  0.00000000000E+00 0. -1.
         -3   -1    0    0    0  501 -0.00000000000E+00 -0.00000000000E+00 -0.12055824007E+03  0.12055824007E+03  0.00000000000E+00 0.  1.
         25    2    1    2    0    0 -0.29251655225E+02 -0.13684599207E+02 -0.39302969961E+02  0.13503819156E+03  0.12509061573E+03 0.  0.
          5    1    3    3  502    0  0.19563805423E+02 -0.24140292947E+02 -0.69709364561E+02  0.76435359184E+02  0.41800000000E+01 0. -1.
         -5    1    3    3    0  502 -0.48815460648E+02  0.10455693740E+02  0.30406394599E+02  0.58602832375E+02  0.41800000000E+01 0. -1.
        -11    1    1    2    0    0  0.53804587150E+02  0.12987437969E+02 -0.41725539826E+01  0.55506912634E+02  0.00000000000E+00 0.  1.
         11    1    1    2    0    0 -0.24552931926E+02  0.69716123817E+00  0.38965115339E+02  0.46060967351E+02  0.00000000000E+00 0. -1.
</event>
<event>
 7    1  0.2394257E-009  0.7859911E+02  0.7561462E-02  0.1333075E+00
         -2   -1    0    0    0  501 -0.00000000000E+00  0.00000000000E+00  0.31078735547E+03  0.31078735547E+03  0.00000000000E+00 0.  1.
          2   -1    0    0  501    0  0.00000000000E+00 -0.00000000000E+00 -0.59191832372E+02  0.59191832372E+02  0.00000000000E+00 0. -1.
         25    2    1    2    0    0  0.44858034869E+02  0.29443993263E+02  0.21904703309E+03  0.25789146384E+03  0.12508881798E+03 0.  0.
          5    1    3    3  502    0  0.13156038505E+02 -0.12295220543E+02 -0.11268954752E+02  0.21649839227E+02  0.41800000000E+01 0.  1.
         -5    1    3    3    0  502  0.31701996365E+02  0.41739213807E+02  0.23031598784E+03  0.23624162461E+03  0.41800000000E+01 0.  1.
        -11    1    1    2    0    0  0.17539513681E+02 -0.10292754455E+01 -0.19321039914E+02  0.26115063306E+02  0.00000000000E+00 0. -1.
         11    1    1    2    0    0 -0.62397548550E+02 -0.28414717818E+02  0.51869529927E+02  0.85972660705E+02  0.00000000000E+00 0.  1.
</event>
<event>
 7    1  0.2394257E-009  0.1474615E+03  0.7561462E-02  0.1203627E+00
         -2   -1    0    0    0  501 -0.00000000000E+00  0.00000000000E+00  0.18095427677E+02  0.18095427677E+02  0.00000000000E+00 0. -1.
          2   -1    0    0  501    0  0.00000000000E+00 -0.00000000000E+00 -0.15689466562E+04  0.15689466562E+04  0.00000000000E+00 0.  1.
         25    2    1    2    0    0  0.10423495781E+03 -0.39539829666E+02 -0.11227786771E+04  0.11352126601E+04  0.12508997315E+03 0.  0.
          5    1    3    3  502    0  0.97201709880E+02  0.21300032882E+02 -0.83767540761E+03  0.84357538176E+03  0.41800000000E+01 0. -1.
         -5    1    3    3    0  502  0.70332479251E+01 -0.60839862549E+02 -0.28510326945E+03  0.29163727832E+03  0.41800000000E+01 0. -1.
        -11    1    1    2    0    0 -0.87302961738E+02  0.61074732431E+02 -0.39377403296E+03  0.40793371901E+03  0.00000000000E+00 0.  1.
         11    1    1    2    0    0 -0.16931996068E+02 -0.21534902765E+02 -0.34298518519E+02  0.43895704807E+02  0.00000000000E+00 0. -1.
</event>
<event>
 7    1  0.2394257E-009  0.9876956E+02  0.7561462E-02  0.1282905E+00
         -1   -1    0    0    0  501 -0.00000000000E+00  0.00000000000E+00  0.24611336877E+02  0.24611336877E+02  0.00000000000E+00 0.  1.
          1   -1    0    0  501    0  0.00000000000E+00 -0.00000000000E+00 -0.55569159737E+03  0.55569159737E+03  0.00000000000E+00 0. -1.
         25    2    1    2    0    0 -0.43909735456E+02 -0.41590445757E+01 -0.31777832594E+03  0.34434816001E+03  0.12508888178E+03 0.  0.
          5    1    3    3  502    0 -0.85962778042E+02 -0.95817499358E+01 -0.17349822092E+03  0.19390852020E+03  0.41800000000E+01 0.  1.
         -5    1    3    3    0  502  0.42053042586E+02  0.54227053601E+01 -0.14428010502E+03  0.15043963982E+03  0.41800000000E+01 0.  1.
        -11    1    1    2    0    0  0.19013018241E+01 -0.19856742189E+02 -0.30171723143E+01  0.20174451362E+02  0.00000000000E+00 0.  1.
         11    1    1    2    0    0  0.42008433632E+02  0.24015786765E+02 -0.21028476224E+03  0.21578032287E+03  0.00000000000E+00 0. -1.
</event>
<event>
 7    1  0.2394257E-009  0.1974935E+03  0.7561462E-02  0.1151871E+00
          1   -1    0    0  501    0  0.00000000000E+00  0.00000000000E+00  0.11686174435E+03  0.11686174435E+03  0.00000000000E+00 0. -1.
         -1   -1    0    0    0  501 -0.00000000000E+00 -0.00000000000E+00 -0.43640683847E+03  0.43640683847E+03  0.00000000000E+00 0.  1.
         25    2    1    2    0    0  0.12469177297E+03  0.11704482581E+03 -0.43886942108E+02  0.21638137598E+03  0.12508919492E+03 0.  0.
          5    1    3    3  502    0  0.94824919900E+02  0.94132984659E+01 -0.42935150937E+02  0.10460055071E+03  0.41800000000E+01 0.  1.
         -5    1    3    3    0  502  0.29866853071E+02  0.10763152735E+03 -0.95179117069E+00  0.11178082527E+03  0.41800000000E+01 0.  1.
        -11    1    1    2    0    0 -0.60109679705E+02 -0.10663780558E+03 -0.13794918747E+03  0.18443094506E+03  0.00000000000E+00 0.  1.
         11    1    1    2    0    0 -0.64582093266E+02 -0.10407020230E+02 -0.13770896455E+03  0.15245626178E+03  0.00000000000E+00 0. -1.
</event>
<event>
 7    1  0.2402355E-009  0.1655951E+03  0.7561462E-02  0.1182521E+00
         -2   -1    0    0    0  501 -0.00000000000E+00  0.00000000000E+00  0.14752168046E+02  0.14752168046E+02  0.00000000000E+00 0.  1.
          2   -1    0    0  501    0  0.00000000000E+00 -0.00000000000E+00 -0.28180553273E+04  0.28180553273E+04  0.00000000000E+00 0. -1.
         25    2    1    2    0    0 -0.14931807792E+03  0.38982974323E+01 -0.20597128391E+04  0.20689068255E+04  0.12508951987E+03 0.  0.
          5    1    3    3  502    0 -0.12869719731E+03  0.23421966649E+02 -0.96694558866E+03  0.97576267655E+03  0.41800000000E+01 0.  1.
         -5    1    3    3    0  502 -0.20620880604E+02 -0.19523669217E+02 -0.10927672504E+04  0.10931441489E+04  0.41800000000E+01 0.  1.
        -11    1    1    2    0    0  0.84871815517E+02 -0.44106681525E+02 -0.33869642200E+03  0.35194302195E+03  0.00000000000E+00 0.  1.
         11    1    1    2    0    0  0.64446262401E+02  0.40208384093E+02 -0.40489389823E+03  0.41195764796E+03  0.00000000000E+00 0. -1.
</event>
<event>
 7    1  0.2394257E-009  0.1185274E+03  0.7561462E-02  0.1245546E+00
          1   -1    0    0  501    0  0.00000000000E+00  0.00000000000E+00  0.44983167596E+03  0.44983167596E+03  0.00000000000E+00 0. -1.
         -1   -1    0    0    0  501 -0.00000000000E+00 -0.00000000000E+00 -0.44247366944E+02  0.44247366944E+02  0.00000000000E+00 0.  1.
         25    2    1    2    0    0 -0.45185400820E+02 -0.76589968759E+02  0.24828751001E+03  0.29189408026E+03  0.12509085779E+03 0.  0.
          5    1    3    3  502    0  0.31090205175E+02  0.15720406299E+01  0.11662637208E+03  0.12078184977E+03  0.41800000000E+01 0. -1.
         -5    1    3    3    0  502 -0.76275605995E+02 -0.78162009389E+02  0.13166113792E+03  0.17111223048E+03  0.41800000000E+01 0. -1.
        -11    1    1    2    0    0  0.20476888678E+02  0.56623508672E+01 -0.63091277387E+01  0.22162361790E+02  0.00000000000E+00 0.  1.
         11    1    1    2    0    0  0.24708512142E+02  0.70927617892E+02  0.16360592675E+03  0.18002260086E+03  0.00000000000E+00 0. -1.
</event>
<event>
 7    1  0.2394257E-009  0.1027796E+03  0.7561462E-02  0.1274557E+00
          2   -1    0    0  501    0  0.00000000000E+00  0.00000000000E+00  0.57696943819E+03  0.57696943819E+03  0.00000000000E+00 0.  1.
         -2   -1    0    0    0  501 -0.00000000000E+00 -0.00000000000E+00 -0.23198191909E+02  0.23198191909E+02  0.00000000000E+00 0. -1.
         25    2    1    2    0    0  0.25451333695E+02 -0.19534352094E+02  0.37206209474E+03  0.39383572399E+03  0.12508802441E+03 0.  0.
          5    1    3    3  502    0  0.62442845276E+02 -0.49394563721E+02  0.20079656577E+03  0.21604551621E+03  0.41800000000E+01 0.  1.
         -5    1    3    3    0  502 -0.36991511581E+02  0.29860211627E+02  0.17126552897E+03  0.17779020778E+03  0.41800000000E+01 0.  1.
        -11    1    1    2    0    0 -0.12981270936E+02 -0.26986276204E+02  0.16386126898E+02  0.34136163422E+02  0.00000000000E+00 0. -1.
         11    1    1    2    0    0 -0.12470062759E+02  0.46520628298E+02  0.16532302465E+03  0.17219574269E+03  0.00000000000E+00 0.  1.
</event>
<event>
 7    1  0.2394257E-009  0.1904080E+03  0.7561462E-02  0.1158094E+00
         -1   -1    0    0    0  501 -0.00000000000E+00  0.00000000000E+00  0.39774694316E+03  0.39774694316E+03  0.00000000000E+00 0.  1.
          1   -1    0    0  501    0  0.00000000000E+00 -0.00000000000E+00 -0.10484209360E+03  0.10484209360E+03  0.00000000000E+00 0. -1.
         25    2    1    2    0    0 -0.16447182662E+03 -0.33808354723E+02  0.10009536117E+03  0.23207837020E+03  0.12508917613E+03 0.  0.
          5    1    3    3  502    0 -0.16651081941E+03 -0.63631943927E+02  0.77725559679E+02  0.19450864325E+03  0.41800000000E+01 0.  1.
         -5    1    3    3    0  502  0.20389927921E+01  0.29823589204E+02  0.22369801493E+02  0.37569726955E+02  0.41800000000E+01 0.  1.
        -11    1    1    2    0    0  0.13551387489E+03  0.42621426433E+02  0.10226125176E+03  0.17503702434E+03  0.00000000000E+00 0.  1.
         11    1    1    2    0    0  0.28957951733E+02 -0.88130717099E+01  0.90548236630E+02  0.95473642218E+02  0.00000000000E+00 0. -1.
</event>
<event>
 7    1  0.2394257E-009  0.1283682E+03  0.7561462E-02  0.1229897E+00
          1   -1    0    0  501    0  0.00000000000E+00  0.00000000000E+00  0.56146316869E+02  0.56146316869E+02  0.00000000000E+00 0. -1.
         -1   -1    0    0    0  501 -0.00000000000E+00 -0.00000000000E+00 -0.53268477322E+03  0.53268477322E+03  0.00000000000E+00 0.  1.
         25    2    1    2    0    0 -0.34689007920E+02 -0.98719823020E+02 -0.10954492255E+03  0.19645952999E+03  0.12508927268E+03 0.  0.
          5    1    3    3  502    0  0.79677356128E+01 -0.63186392849E+02  0.99842936637E+01  0.64600027647E+02  0.41800000000E+01 0. -1.
         -5    1    3    3    0  502 -0.42656743533E+02 -0.35533430171E+02 -0.11952921622E+03  0.13185950234E+03  0.41800000000E+01 0. -1.
        -11    1    1    2    0    0 -0.30026103228E+02  0.38628331679E+02 -0.16035692468E+03  0.16765457994E+03  0.00000000000E+00 0.  1.
         11    1    1    2    0    0  0.64715111148E+02  0.60091491342E+02 -0.20663660912E+03  0.22471698015E+03  0.00000000000E+00 0. -1.
</event>
<event>
 7    1  0.2394257E-009  0.4303596E+03  0.7561462E-02  0.1033746E+00
         -2   -1    0    0    0  501 -0.00000000000E+00  0.00000000000E+00  0.15363076576E+03  0.15363076576E+03  0.00000000000E+00 0.  1.
          2   -1    0    0  501    0  0.00000000000E+00 -0.00000000000E+00 -0.12967730728E+04  0.12967730728E+04  0.00000000000E+00 0. -1.
         25    2    1    2    0    0 -0.33908085548E+03 -0.26110876860E+03 -0.46996299747E+03  0.64781683351E+03  0.12509122749E+03 0.  0.
          5    1    3    3  502    0 -0.33022730859E+03 -0.25159536048E+03 -0.39992718957E+03  0.57646294773E+03  0.41800000000E+01 0.  1.
         -5    1    3    3    0  502 -0.88535468863E+01 -0.95134081229E+01 -0.70035807907E+02  0.71353885779E+02  0.41800000000E+01 0.  1.
        -11    1    1    2    0    0  0.14373821598E+03  0.75170733153E+02 -0.31409355158E+03  0.35350540731E+03  0.00000000000E+00 0. -1.
         11    1    1    2    0    0  0.19534263950E+03  0.18593803545E+03 -0.35908575796E+03  0.44908159771E+03  0.00000000000E+00 0.  1.
</event>
<event>
 7    1  0.2394257E-009  0.8208472E+02  0.7561462E-02  0.1323237E+00
          2   -1    0    0  501    0  0.00000000000E+00  0.00000000000E+00  0.11679104398E+04  0.11679104398E+04  0.00000000000E+00 0. -1.
         -2   -1    0    0    0  501 -0.00000000000E+00 -0.00000000000E+00 -0.11062047719E+02  0.11062047719E+02  0.00000000000E+00 0.  1.
         25    2    1    2    0    0 -0.31390745848E+02 -0.57199986592E+01  0.72786832571E+03  0.73922736725E+03  0.12508678436E+03 0.  0.
          5    1    3    3  502    0 -0.36213512282E+02  0.21675318546E+02  0.78283496521E+02  0.89033792087E+02  0.41800000000E+01 0. -1.
         -5    1    3    3    0  502  0.48227664343E+01 -0.27395317206E+02  0.64958482919E+03  0.65019357517E+03  0.41800000000E+01 0. -1.
        -11    1    1    2    0    0 -0.30598613086E+02  0.78988579035E+01  0.96934153503E+02  0.10195536864E+03  0.00000000000E+00 0.  1.
         11    1    1    2    0    0  0.61989358934E+02 -0.21788592443E+01  0.33204591289E+03  0.33778975165E+03  0.00000000000E+00 0. -1.
</event>
<event>
 7    1  0.2394257E-009  0.1144356E+03  0.7561462E-02  0.1252569E+00
          4   -1    0    0  501    0  0.00000000000E+00  0.00000000000E+00  0.17659599150E+03  0.17659599150E+03  0.00000000000E+00 0. -1.
         -4   -1    0    0    0  501 -0.00000000000E+00 -0.00000000000E+00 -0.98297070775E+02  0.98297070775E+02  0.00000000000E+00 0.  1.
         25    2    1    2    0    0 -0.28947534334E+02  0.36390544607E+02 -0.13186607238E+02  0.13410573548E+03  0.12509288628E+03 0.  0.
          5    1    3    3  502    0 -0.76623945665E+02  0.37829912814E+02 -0.73675022095E+01  0.85872485940E+02  0.41800000000E+01 0.  1.
         -5    1    3    3    0  502  0.47676411331E+02 -0.14393682069E+01 -0.58191050280E+01  0.48233249544E+02  0.41800000000E+01 0.  1.
        -11    1    1    2    0    0 -0.42577750428E+01 -0.56469886402E+02  0.83939411942E+02  0.10125611881E+03  0.00000000000E+00 0. -1.
         11    1    1    2    0    0  0.33205309376E+02  0.20079341795E+02  0.75461160219E+01  0.39531207985E+02  0.00000000000E+00 0.  1.
</event>
<event>
 7    1  0.2394257E-009  0.8800656E+02  0.7561462E-02  0.1307752E+00
         -1   -1    0    0    0  501 -0.00000000000E+00  0.00000000000E+00  0.23927563311E+02  0.23927563311E+02  0.00000000000E+00 0.  1.
          1   -1    0    0  501    0  0.00000000000E+00 -0.00000000000E+00 -0.53686931028E+03  0.53686931028E+03  0.00000000000E+00 0. -1.
         25    2    1    2    0    0 -0.22323532402E+02 -0.23356737208E+00 -0.22984625042E+03  0.26263351764E+03  0.12509464859E+03 0.  0.
          5    1    3    3  502    0 -0.26363578309E+02  0.42641626012E+02 -0.20831748521E+03  0.21430584120E+03  0.41800000000E+01 0. -1.
         -5    1    3    3    0  502  0.40400459075E+01 -0.42875193384E+02 -0.21528765211E+02  0.48327676441E+02  0.41800000000E+01 0. -1.
        -11    1    1    2    0    0  0.16534563638E+02 -0.39219724732E+02 -0.21566356985E+03  0.21982346091E+03  0.00000000000E+00 0. -1.
         11    1    1    2    0    0  0.57889687643E+01  0.39453292104E+02 -0.67431926698E+02  0.78339895044E+02  0.00000000000E+00 0.  1.
</event>
<event>
 7    1  0.2394257E-009  0.1119624E+03  0.7561462E-02  0.1256978E+00
          2   -1    0    0  501    0  0.00000000000E+00  0.00000000000E+00  0.39523752347E+03  0.39523752347E+03  0.00000000000E+00 0. -1.
         -2   -1    0    0    0  501 -0.00000000000E+00 -0.00000000000E+00 -0.46385475649E+02  0.46385475649E+02  0.00000000000E+00 0.  1.
         25    2    1    2    0    0 -0.60634168810E+02 -0.31732507988E+02  0.12076123691E+03  0.18685222250E+03  0.12508805788E+03 0.  0.
          5    1    3    3  502    0  0.53797369229E+01 -0.57240486652E+02  0.95582960703E+02  0.11161984438E+03  0.41800000000E+01 0. -1.
         -5    1    3    3    0  502 -0.66013905733E+02  0.25507978664E+02  0.25178276202E+02  0.75232378123E+02  0.41800000000E+01 0. -1.
        -11    1    1    2    0    0  0.38719408791E+02 -0.16745300814E+02  0.36029359656E+02  0.55477134693E+02  0.00000000000E+00 0.  1.
         11    1    1    2    0    0  0.21914760018E+02  0.48477808802E+02  0.19206145126E+03  0.19929364193E+03  0.00000000000E+00 0. -1.
</event>
<event>
 7    1  0.2394257E-009  0.9706822E+02  0.7561462E-02  0.1286585E+00
          2   -1    0    0  501    0  0.00000000000E+00  0.00000000000E+00  0.70876856649E+02  0.70876856649E+02  0.00000000000E+00 0. -1.
         -2   -1    0    0    0  501 -0.00000000000E+00 -0.00000000000E+00 -0.22488814624E+03  0.22488814624E+03  0.00000000000E+00 0.  1.
         25    2    1    2    0    0 -0.87689002897E+00 -0.67357729741E+02 -0.87875284764E+02  0.16705443874E+03  0.12508911679E+03 0.  0.
          5    1    3    3  502    0  0.42192044682E+01 -0.83106212345E+02 -0.11070017055E+03  0.13855123376E+03  0.41800000000E+01 0. -1.
         -5    1    3    3    0  502 -0.50960944972E+01  0.15748482604E+02  0.22824885783E+02  0.28503204986E+02  0.41800000000E+01 0. -1.
        -11    1    1    2    0    0  0.14396532980E+02 -0.84829281715E+01  0.10751516053E+02  0.19869960484E+02  0.00000000000E+00 0. -1.
         11    1    1    2    0    0 -0.13519642951E+02  0.75840657913E+02 -0.76887520878E+02  0.10884060366E+03  0.00000000000E+00 0.  1.
</event>
<event>
 7    1  0.2394257E-009  0.9552507E+02  0.7561462E-02  0.1289998E+00
         -2   -1    0    0    0  501 -0.00000000000E+00  0.00000000000E+00  0.58390918783E+03  0.58390918783E+03  0.00000000000E+00 0.  1.
          2   -1    0    0  501    0  0.00000000000E+00 -0.00000000000E+00 -0.23705303526E+02  0.23705303526E+02  0.00000000000E+00 0. -1.
         25    2    1    2    0    0  0.22995754081E+02  0.38821633789E+02  0.33514189386E+03  0.36056049429E+03  0.12509139484E+03 0.  0.
          5    1    3    3  502    0 -0.41119238691E+02  0.30527202208E+02  0.24011577282E+03  0.24555194689E+03  0.41800000000E+01 0.  1.
         -5    1    3    3    0  502  0.64114992773E+02  0.82944315804E+01  0.95026121047E+02  0.11500854740E+03  0.41800000000E+01 0.  1.
        -11    1    1    2    0    0 -0.56919126344E+01  0.16217891986E+02  0.27859111907E+01  0.17412041554E+02  0.00000000000E+00 0. -1.
         11    1    1    2    0    0 -0.17303841447E+02 -0.55039525775E+02  0.22227607925E+03  0.22964195551E+03  0.00000000000E+00 0.  1.
</event>
<event>
 7    1  0.2394257E-009  0.1346098E+03  0.7561462E-02  0.1220772E+00
          2   -1    0    0  501    0  0.00000000000E+00  0.00000000000E+00  0.57355388138E+03  0.57355388138E+03  0.00000000000E+00 0. -1.
         -2   -1    0    0    0  501 -0.00000000000E+00 -0.00000000000E+00 -0.35980731748E+02  0.35980731748E+02  0.00000000000E+00 0.  1.
         25    2    1    2    0    0  0.15548223241E+02  0.85899126069E+02  0.35946901001E+03  0.39049528612E+03  0.12509273447E+03 0.  0.
          5    1    3    3  502    0  0.43023291040E+02  0.10446031717E+03  0.22331627631E+03  0.25030100499E+03  0.41800000000E+01 0. -1.
         -5    1    3    3    0  502 -0.27475067799E+02 -0.18561191105E+02  0.13615273370E+03  0.14019428113E+03  0.41800000000E+01 0. -1.
        -11    1    1    2    0    0  0.20916139241E+02 -0.83639466847E+02  0.14974257302E+03  0.17278855133E+03  0.00000000000E+00 0. -1.
         11    1    1    2    0    0 -0.36464362483E+02 -0.22596592212E+01  0.28361566598E+02  0.46250775679E+02  0.00000000000E+00 0.  1.
</event>
<event>
 7    1  0.2394257E-009  0.2061014E+03  0.7561462E-02  0.1144691E+00
          2   -1    0    0  501    0  0.00000000000E+00  0.00000000000E+00  0.10002117349E+04  0.10002117349E+04  0.00000000000E+00 0. -1.
         -2   -1    0    0    0  501 -0.00000000000E+00 -0.00000000000E+00 -0.51511696875E+02  0.51511696875E+02  0.00000000000E+00 0.  1.
         25    2    1    2    0    0 -0.16153160234E+03 -0.79272885591E+02  0.67790282741E+03  0.71244406982E+03  0.12509060821E+03 0.  0.
          5    1    3    3  502    0  0.16787536318E+02 -0.28441146634E+02  0.88797258507E+02  0.94832197675E+02  0.41800000000E+01 0.  1.
         -5    1    3    3    0  502 -0.17831913866E+03 -0.50831738956E+02  0.58910556890E+03  0.61761187214E+03  0.41800000000E+01 0.  1.
        -11    1    1    2    0    0  0.81817671863E+02  0.78994794695E+02  0.10269222787E+03  0.15323185923E+03  0.00000000000E+00 0.  1.
         11    1    1    2    0    0  0.79713930478E+02  0.27809089577E+00  0.16810498271E+03  0.18604750270E+03  0.00000000000E+00 0. -1.
</event>
<event>
 7    1  0.2394257E-009  0.8224311E+02  0.7561462E-02  0.1322804E+00
         -2   -1    0    0    0  501 -0.00000000000E+00  0.00000000000E+00  0.19258415847E+02  0.19258415847E+02  0.00000000000E+00 0.  1.
          2   -1    0    0  501    0  0.00000000000E+00 -0.00000000000E+00 -0.91130582333E+03  0.91130582333E+03  0.00000000000E+00 0. -1.
         25    2    1    2    0    0  0.19078404199E+02  0.39058340521E+02 -0.71444603004E+03  0.72661595164E+03  0.12509225338E+03 0.  0.
          5    1    3    3  502    0 -0.12929662031E+02 -0.30007688488E+02 -0.45526168317E+03  0.45645187051E+03  0.41800000000E+01 0.  1.
         -5    1    3    3    0  502  0.32008066230E+02  0.69066029009E+02 -0.25918434687E+03  0.27016408113E+03  0.41800000000E+01 0.  1.
        -11    1    1    2    0    0  0.81814227168E+01 -0.21188356030E+02  0.66868195402E+00  0.22722879318E+02  0.00000000000E+00 0.  1.
         11    1    1    2    0    0 -0.27259826916E+02 -0.17869984490E+02 -0.17827005939E+03  0.18122540822E+03  0.00000000000E+00 0. -1.
</event>
<event>
 7    1  0.2394257E-009  0.1251411E+03  0.7561462E-02  0.1234849E+00
         -2   -1    0    0    0  501 -0.00000000000E+00  0.00000000000E+00  0.43397295759E+02  0.43397295759E+02  0.00000000000E+00 0.  1.
          2   -1    0    0  501    0  0.00000000000E+00 -0.00000000000E+00 -0.47607065586E+03  0.47607065586E+03  0.00000000000E+00 0. -1.
         25    2    1    2    0    0 -0.25315215715E+02  0.84415191304E+02 -0.29669130983E+03  0.33382544210E+03  0.12508760047E+03 0.  0.
          5    1    3    3  502    0  0.48927717125E+02  0.43587118430E+02 -0.16001710648E+03  0.17296446213E+03  0.41800000000E+01 0. -1.
         -5    1    3    3    0  502 -0.74242932840E+02  0.40828072875E+02 -0.13667420336E+03  0.16086097996E+03  0.41800000000E+01 0. -1.
        -11    1    1    2    0    0 -0.12349932261E+02 -0.83411524316E+01  0.91646236129E+01  0.17495312992E+02  0.00000000000E+00 0.  1.
         11    1    1    2    0    0  0.37665147976E+02 -0.76074038873E+02 -0.14514667389E+03  0.16814719653E+03  0.00000000000E+00 0. -1.
</event>
<event>
 7    1  0.2394257E-009  0.1491010E+03  0.7561462E-02  0.1201582E+00
         -2   -1    0    0    0  501 -0.00000000000E+00  0.00000000000E+00  0.22301321980E+03  0.22301321980E+03  0.00000000000E+00 0.  1.
          2   -1    0    0  501    0  0.00000000000E+00 -0.00000000000E+00 -0.11869820245E+03  0.11869820245E+03  0.00000000000E+00 0. -1.
         25    2    1    2    0    0  0.91500455461E+02  0.78297621064E+02  0.87194444997E+02  0.19429980393E+03  0.12508673693E+03 0.  0.
          5    1    3    3  502    0  0.96421455519E+02  0.22296454907E+02  0.95172003048E+02  0.13736597668E+03  0.41800000000E+01 0. -1.
         -5    1    3    3    0  502 -0.49210000581E+01  0.56001166157E+02 -0.79775580510E+01  0.56933827247E+02  0.41800000000E+01 0. -1.
        -11    1    1    2    0    0 -0.87535535602E+02 -0.27399564410E+02 -0.48071661879E+01  0.91849414640E+02  0.00000000000E+00 0.  1.
         11    1    1    2    0    0 -0.39649198585E+01 -0.50898056654E+02  0.21927738541E+02  0.55562203684E+02  0.00000000000E+00 0. -1.
</event>
<event>
 7    1  0.2394257E-009  0.9534699E+02  0.7561462E-02  0.1290396E+00
          1   -1    0    0  501    0  0.00000000000E+00  0.00000000000E+00  0.67470575488E+02  0.67470575488E+02  0.00000000000E+00 0. -1.
         -1   -1    0    0    0  501 -0.00000000000E+00 -0.00000000000E+00 -0.20480860229E+03  0.20480860229E+03  0.00000000000E+00 0.  1.
         25    2    1    2    0    0 -0.24610282403E+02  0.36165291466E+02 -0.53832681320E+02  0.14303440322E+03  0.12508912271E+03 0.  0.
          5    1    3    3  502    0  0.69670266836E-01  0.72589326827E+02 -0.64913795477E+02  0.97470449196E+02  0.41800000000E+01 0. -1.
         -5    1    3    3    0  502 -0.24679952670E+02 -0.36424035361E+02  0.11081114157E+02  0.45563954028E+02  0.41800000000E+01 0. -1.
        -11    1    1    2    0    0  0.44414052392E+02 -0.26892320123E+02 -0.10417679121E+02  0.52955953110E+02  0.00000000000E+00 0. -1.
         11    1    1    2    0    0 -0.19803769990E+02 -0.92729713433E+01 -0.73087666362E+02  0.76288821446E+02  0.00000000000E+00 0.  1.
</event>
<event>
 7    1  0.2394257E-009  0.1877855E+03  0.7561462E-02  0.1160474E+00
         -2   -1    0    0    0  501 -0.00000000000E+00  0.00000000000E+00  0.33863758126E+02  0.33863758126E+02  0.00000000000E+00 0.  1.
          2   -1    0    0  501    0  0.00000000000E+00 -0.00000000000E+00 -0.11481566111E+04  0.11481566111E+04  0.00000000000E+00 0. -1.
         25    2    1    2    0    0  0.11098761205E+03 -0.12129491318E+03 -0.62652309553E+03  0.65970285273E+03  0.12508380661E+03 0.  0.
          5    1    3    3  502    0 -0.26407486557E+02 -0.92832985596E+01 -0.66308408334E+02  0.72095855596E+02  0.41800000000E+01 0. -1.
         -5    1    3    3    0  502  0.13739509861E+03 -0.11201161462E+03 -0.56021468720E+03  0.58760699713E+03  0.41800000000E+01 0. -1.
        -11    1    1    2    0    0 -0.62130505963E+02  0.97486540293E+02 -0.21422614189E+03  0.24342691958E+03  0.00000000000E+00 0.  1.
         11    1    1    2    0    0 -0.48857106087E+02  0.23808372885E+02 -0.27354361560E+03  0.27889059696E+03  0.00000000000E+00 0. -1.
</event>
<event>
 7    1  0.2394257E-009  0.1322593E+03  0.7561462E-02  0.1224141E+00
          2   -1    0    0  501    0  0.00000000000E+00  0.00000000000E+00  0.51329011194E+03  0.51329011194E+03  0.00000000000E+00 0. -1.
         -2   -1    0    0    0  501 -0.00000000000E+00 -0.00000000000E+00 -0.39076296266E+02  0.39076296266E+02  0.00000000000E+00 0.  1.
         25    2    1    2    0    0  0.70040278201E+01  0.88819876025E+02  0.27557703515E+03  0.31548615276E+03  0.12510309148E+03 0.  0.
          5    1    3    3  502    0 -0.66576065707E+01 -0.30118931932E+02  0.35733814479E+02  0.47390417630E+02  0.41800000000E+01 0. -1.
         -5    1    3    3    0  502  0.13661634391E+02  0.11893880796E+03  0.23984322067E+03  0.26809573513E+03  0.41800000000E+01 0. -1.
        -11    1    1    2    0    0  0.21984283955E+02 -0.80486046919E+02  0.18660192077E+03  0.20440545327E+03  0.00000000000E+00 0. -1.
         11    1    1    2    0    0 -0.28988311775E+02 -0.83338291057E+01  0.12034859747E+02  0.32474802174E+02  0.00000000000E+00 0.  1.
</event>
<event>
 7    1  0.2394257E-009  0.1749321E+03  0.7561462E-02  0.1172800E+00
         -1   -1    0    0    0  501 -0.00000000000E+00  0.00000000000E+00  0.21053950950E+03  0.21053950950E+03  0.00000000000E+00 0.  1.
          1   -1    0    0  501    0  0.00000000000E+00 -0.00000000000E+00 -0.16072971506E+03  0.16072971506E+03  0.00000000000E+00 0. -1.
         25    2    1    2    0    0 -0.13604582327E+03 -0.20906661573E+02  0.79151655339E+02  0.20213199997E+03  0.12508719496E+03 0.  0.
          5    1    3    3  502    0  0.90099735158E+01 -0.37392725409E+02  0.26442249189E+02  0.46862143340E+02  0.41800000000E+01 0.  1.
         -5    1    3    3    0  502 -0.14505579678E+03  0.16486063836E+02  0.52709406151E+02  0.15526985663E+03  0.41800000000E+01 0.  1.
        -11    1    1    2    0    0  0.14140305889E+03 -0.21854417275E+01 -0.32819154496E+02  0.14517815993E+03  0.00000000000E+00 0. -1.
         11    1    1    2    0    0 -0.53572356278E+01  0.23092103300E+02  0.34772935922E+01  0.23959064655E+02  0.00000000000E+00 0.  1.
</event>
<event>
 7    1  0.2394257E-009  0.1303412E+03  0.7561462E-02  0.1226950E+00
         -2   -1    0    0    0  501 -0.00000000000E+00  0.00000000000E+00  0.43062369666E+02  0.43062369666E+02  0.00000000000E+00 0.  1.
          2   -1    0    0  501    0  0.00000000000E+00 -0.00000000000E+00 -0.83286310495E+03  0.83286310495E+03  0.00000000000E+00 0. -1.
         25    2    1    2    0    0  0.51199938904E+02 -0.87485294035E+02 -0.68438294232E+03  0.70306644321E+03  0.12508917384E+03 0.  0.
          5    1    3    3  502    0  0.53166656993E+02 -0.11732495971E+03 -0.50650626667E+03  0.52264510920E+03  0.41800000000E+01 0. -1.
         -5    1    3    3    0  502 -0.19667180893E+01  0.29839665678E+02 -0.17787667565E+03  0.18042133401E+03  0.41800000000E+01 0. -1.
        -11    1    1    2    0    0 -0.31959419600E+02  0.61111661037E+02 -0.71775888171E+01  0.69336551667E+02  0.00000000000E+00 0.  1.
         11    1    1    2    0    0 -0.19240519304E+02  0.26373632999E+02 -0.98240204152E+02  0.10352247974E+03  0.00000000000E+00 0. -1.
</event>
<event>
 7    1  0.2394257E-009  0.1060515E+03  0.7561462E-02  0.1268062E+00
         -2   -1    0    0    0  501 -0.00000000000E+00  0.00000000000E+00  0.89690887184E+02  0.89690887184E+02  0.00000000000E+00 0.  1.
          2   -1    0    0  501    0  0.00000000000E+00 -0.00000000000E+00 -0.33936356747E+03  0.33936356747E+03  0.00000000000E+00 0. -1.
         25    2    1    2    0    0 -0.29050984366E+02  0.48087312689E+01 -0.15075892541E+03  0.19810704402E+03  0.12510421139E+03 0.  0.
          5    1    3    3  502    0  0.79290269979E+01  0.34435904603E+02  0.43682432350E+01  0.35850452493E+02  0.41800000000E+01 0. -1.
         -5    1    3    3    0  502 -0.36980011364E+02 -0.29627173334E+02 -0.15512716865E+03  0.16225659152E+03  0.41800000000E+01 0. -1.
        -11    1    1    2    0    0 -0.21828878699E+02  0.49762833071E+02  0.43874228843E+02  0.69841158761E+02  0.00000000000E+00 0.  1.
         11    1    1    2    0    0  0.50879863065E+02 -0.54571564340E+02 -0.14278798371E+03  0.16110625187E+03  0.00000000000E+00 0. -1.
</event>
<event>
 7    1  0.2406734E-009  0.1074109E+03  0.7561462E-02  0.1265441E+00
         -1   -1    0    0    0  501 -0.00000000000E+00  0.00000000000E+00  0.60393900738E+02  0.60393900738E+02  0.00000000000E+00 0.  1.
          1   -1    0    0  501    0  0.00000000000E+00 -0.00000000000E+00 -0.33945567080E+03  0.33945567080E+03  0.00000000000E+00 0. -1.
         25    2    1    2    0    0  0.70338801051E+02  0.60880515561E+02 -0.14931069944E+03  0.21586109065E+03  0.12509333068E+03 0.  0.
          5    1    3    3  502    0  0.44116528624E+02  0.58057384817E+02 -0.16805232061E+03  0.18323750405E+03  0.41800000000E+01 0.  1.
         -5    1    3    3    0  502  0.26222272427E+02  0.28231307437E+01  0.18741621167E+02  0.32623586596E+02  0.41800000000E+01 0.  1.
        -11    1    1    2    0    0 -0.68084694107E+02 -0.15733906892E+02 -0.11823595277E+03  0.13734198893E+03  0.00000000000E+00 0. -1.
         11    1    1    2    0    0 -0.22541069438E+01 -0.45146608669E+02 -0.11515117852E+02  0.46646491954E+02  0.00000000000E+00 0.  1.
</event>
<event>
 7    1  0.2394257E-009  0.2301931E+03  0.7561462E-02  0.1126504E+00
         -1   -1    0    0    0  501 -0.00000000000E+00  0.00000000000E+00  0.24043618550E+03  0.24043618550E+03  0.00000000000E+00 0.  1.
          1   -1    0    0  501    0  0.00000000000E+00 -0.00000000000E+00 -0.46308981036E+03  0.46308981036E+03  0.00000000000E+00 0. -1.
         25    2    1    2    0    0 -0.95419938983E+02  0.20586802145E+03  0.11752444772E+03  0.28451195537E+03  0.12509376454E+03 0.  0.
          5    1    3    3  502    0 -0.15140863279E+02  0.60591337978E+01  0.58961999244E+02  0.61318419729E+02  0.41800000000E+01 0.  1.
         -5    1    3    3    0  502 -0.80279075704E+02  0.19980888765E+03  0.58562448471E+02  0.22319353564E+03  0.41800000000E+01 0.  1.
        -11    1    1    2    0    0  0.60995727965E+02 -0.10304233890E+03 -0.25290875849E+03  0.27982323449E+03  0.00000000000E+00 0. -1.
         11    1    1    2    0    0  0.34424211018E+02 -0.10282568255E+03 -0.87269314089E+02  0.13919080601E+03  0.00000000000E+00 0.  1.
</event>
<event>
 7    1  0.2394257E-009  0.9307252E+02  0.7561462E-02  0.1295577E+00
         -1   -1    0    0    0  501 -0.00000000000E+00  0.00000000000E+00  0.82398127772E+02  0.82398127772E+02  0.00000000000E+00 0.  1.
          1   -1    0    0  501    0  0.00000000000E+00 -0.00000000000E+00 -0.12293588776E+03  0.12293588776E+03  0.00000000000E+00 0. -1.
         25    2    1    2    0    0  0.72797668407E+01 -0.91721451116E+00 -0.14944938421E+02  0.12619263851E+03  0.12508954610E+03 0.  0.
          5    1    3    3  502    0 -0.26631395438E+02  0.47107705903E+02  0.19800123216E+02  0.57774427368E+02  0.41800000000E+01 0. -1.
         -5    1    3    3    0  502  0.33911162278E+02 -0.48024920414E+02 -0.34745061638E+02  0.68418211143E+02  0.41800000000E+01 0. -1.
        -11    1    1    2    0    0  0.15383408424E+02  0.31388197710E+02 -0.21277746368E+02  0.40922007536E+02  0.00000000000E+00 0. -1.
         11    1    1    2    0    0 -0.22663175264E+02 -0.30470983199E+02 -0.43150752032E+01  0.38219369490E+02  0.00000000000E+00 0.  1.
</event>
<event>
 7    1  0.2394257E-009  0.1314907E+03  0.7561462E-02  0.1225260E+00
          2   -1    0    0  501    0  0.00000000000E+00  0.00000000000E+00  0.74452370618E+03  0.74452370618E+03  0.00000000000E+00 0. -1.
         -2   -1    0    0    0  501 -0.00000000000E+00 -0.00000000000E+00 -0.27200128603E+02  0.27200128603E+02  0.00000000000E+00 0.  1.
         25    2    1    2    0    0  0.87185413317E+02 -0.10254402054E+02  0.32891623849E+03  0.36268446373E+03  0.12509068404E+03 0.  0.
          5    1    3    3  502    0  0.55160794675E+02 -0.64957190235E+02  0.14663360142E+03  0.16964974300E+03  0.41800000000E+01 0. -1.
         -5    1    3    3    0  502  0.32024618641E+02  0.54702788181E+02  0.18228263706E+03  0.19303472073E+03  0.41800000000E+01 0. -1.
        -11    1    1    2    0    0 -0.41399345258E+02  0.41567106594E+02  0.29180859688E+03  0.29764742121E+03  0.00000000000E+00 0. -1.
         11    1    1    2    0    0 -0.45786068058E+02 -0.31312704541E+02  0.96598742206E+02  0.11139194984E+03  0.00000000000E+00 0.  1.
</event>
<event>
 7    1  0.2394257E-009  0.1020244E+03  0.7561462E-02  0.1276096E+00
          1   -1    0    0  501    0  0.00000000000E+00  0.00000000000E+00  0.24209276066E+03  0.24209276066E+03  0.00000000000E+00 0. -1.
         -1   -1    0    0    0  501 -0.00000000000E+00 -0.00000000000E+00 -0.51280427323E+02  0.51280427323E+02  0.00000000000E+00 0.  1.
         25    2    1    2    0    0 -0.58488392797E+01 -0.25874738288E+02  0.10704568355E+03  0.16677616834E+03  0.12510715789E+03 0.  0.
          5    1    3    3  502    0 -0.15609017663E+02 -0.75233142060E+02  0.71413089633E+02  0.10498080238E+03  0.41800000000E+01 0.  1.
         -5    1    3    3    0  502  0.97601783829E+01  0.49358403772E+02  0.35632593921E+02  0.61795365963E+02  0.41800000000E+01 0.  1.
        -11    1    1    2    0    0  0.38457286049E+02  0.20447636491E+02  0.84807053341E+01  0.44373314630E+02  0.00000000000E+00 0.  1.
         11    1    1    2    0    0 -0.32608446769E+02  0.54271017972E+01  0.75285944449E+02  0.82223705014E+02  0.00000000000E+00 0. -1.
</event>
<event>
 7    1  0.2394257E-009  0.1496211E+03  0.7561462E-02  0.1200939E+00
         -1   -1    0    0    0  501 -0.00000000000E+00  0.00000000000E+00  0.37306859744E+02  0.37306859744E+02  0.00000000000E+00 0.  1.
          1   -1    0    0  501    0  0.00000000000E+00 -0.00000000000E+00 -0.74320065948E+03  0.74320065948E+03  0.00000000000E+00 0. -1.
         25    2    1    2    0    0 -0.52146864624E+02 -0.10881249841E+03 -0.45963254353E+03  0.49139467643E+03  0.12508875909E+03 0.  0.
          5    1    3    3  502    0  0.23682844237E+02 -0.26638756913E+02 -0.26065208961E+03  0.26311116415E+03  0.41800000000E+01 0.  1.
         -5    1    3    3    0  502 -0.75829708861E+02 -0.82173741494E+02 -0.19898045392E+03  0.22828351228E+03  0.41800000000E+01 0.  1.
        -11    1    1    2    0    0 -0.20583846846E+02  0.61105678758E+02 -0.10373879253E+03  0.12214473301E+03  0.00000000000E+00 0.  1.
         11    1    1    2    0    0  0.72730711469E+02  0.47706819650E+02 -0.14252246368E+03  0.16696810978E+03  0.00000000000E+00 0. -1.
</event>
<event>
 7    1  0.2394257E-009  0.6630706E+02  0.7561462E-02  0.1373121E+00
          3   -1    0    0  501    0  0.00000000000E+00  0.00000000000E+00  0.11599527912E+03  0.11599527912E+03  0.00000000000E+00 0. -1.
         -3   -1    0    0    0  501 -0.00000000000E+00 -0.00000000000E+00 -0.10814408335E+03  0.10814408335E+03  0.00000000000E+00 0.  1.
         25    2    1    2    0    0 -0.11261839275E+02 -0.13527660249E+02 -0.19318503159E+02  0.12778961736E+03  0.12508858911E+03 0.  0.
          5    1    3    3  502    0 -0.19291062139E+02  0.44524004702E+01 -0.70206728054E+02  0.73064533205E+02  0.41800000000E+01 0.  1.
         -5    1    3    3    0  502  0.80292228635E+01 -0.17980060719E+02  0.50888224895E+02  0.54725084159E+02  0.41800000000E+01 0.  1.
        -11    1    1    2    0    0 -0.16644679282E+02  0.46302450557E+02  0.17570604629E+02  0.52246420193E+02  0.00000000000E+00 0.  1.
         11    1    1    2    0    0  0.27906518557E+02 -0.32774790308E+02  0.95990942970E+01  0.44103324920E+02  0.00000000000E+00 0. -1.
</event>
<event>
 7    1  0.2394257E-009  0.1420959E+03  0.7561462E-02  0.1210536E+00
          1   -1    0    0  501    0  0.00000000000E+00  0.00000000000E+00  0.10393131403E+03  0.10393131403E+03  0.00000000000E+00 0. -1.
         -1   -1    0    0    0  501 -0.00000000000E+00 -0.00000000000E+00 -0.26533483112E+03  0.26533483112E+03  0.00000000000E+00 0.  1.
         25    2    1    2    0    0  0.13152040963E+03 -0.15951242630E+01 -0.66839196804E+02  0.19344019728E+03  0.12510583168E+03 0.  0.
          5    1    3    3  502    0  0.37540239696E+02 -0.17349346850E+02  0.34685888419E+02  0.54137350212E+02  0.41800000000E+01 0.  1.
         -5    1    3    3    0  502  0.93980169937E+02  0.15754222587E+02 -0.10152508522E+03  0.13930284706E+03  0.41800000000E+01 0.  1.
        -11    1    1    2    0    0 -0.59160522552E+02 -0.32226521735E+02 -0.33221428982E+02  0.75114442522E+02  0.00000000000E+00 0.  1.
         11    1    1    2    0    0 -0.72359887080E+02  0.33821645998E+02 -0.61342891300E+02  0.10071150535E+03  0.00000000000E+00 0. -1.
</event>
<event>
 7    1  0.2394257E-009  0.1360073E+03  0.7561462E-02  0.1218805E+00
         -1   -1    0    0    0  501 -0.00000000000E+00  0.00000000000E+00  0.57235037602E+02  0.57235037602E+02  0.00000000000E+00 0.  1.
          1   -1    0    0  501    0  0.00000000000E+00 -0.00000000000E+00 -0.54696958861E+03  0.54696958861E+03  0.00000000000E+00 0. -1.
         25    2    1    2    0    0 -0.97430479580E+02 -0.11513640088E+02 -0.10146382123E+03  0.18859841264E+03  0.12509673046E+03 0.  0.
          5    1    3    3  502    0  0.23396443286E+02 -0.14212562964E+02 -0.50035851321E+02  0.57187842431E+02  0.41800000000E+01 0. -1.
         -5    1    3    3    0  502 -0.12082692287E+03  0.26989228766E+01 -0.51427969911E+02  0.13141057021E+03  0.41800000000E+01 0. -1.
        -11    1    1    2    0    0  0.40008091325E+02  0.42312665911E+02 -0.30161590485E+03  0.30718587716E+03  0.00000000000E+00 0. -1.
         11    1    1    2    0    0  0.57422388255E+02 -0.30799025823E+02 -0.86654824935E+02  0.10842033642E+03  0.00000000000E+00 0.  1.
</event>
<event>
 7    1  0.2394257E-009  0.9714470E+02  0.7561462E-02  0.1286417E+00
          2   -1    0    0  501    0  0.00000000000E+00  0.00000000000E+00  0.63038654301E+02  0.63038654301E+02  0.00000000000E+00 0. -1.
         -2   -1    0    0    0  501 -0.00000000000E+00 -0.00000000000E+00 -0.18733479213E+03  0.18733479213E+03  0.00000000000E+00 0.  1.
         25    2    1    2    0    0  0.86183910558E+01  0.83109651045E+01 -0.77630030569E+02  0.14771128477E+03  0.12509537640E+03 0.  0.
          5    1    3    3  502    0  0.20101612876E+02  0.61016952187E+02 -0.66338565849E+02  0.92441446404E+02  0.41800000000E+01 0.  1.
         -5    1    3    3    0  502 -0.11483221821E+02 -0.52705987083E+02 -0.11291464720E+02  0.55269838369E+02  0.41800000000E+01 0.  1.
        -11    1    1    2    0    0 -0.12765106920E+02  0.32431689439E+02  0.65997529377E+01  0.35472794834E+02  0.00000000000E+00 0. -1.
         11    1    1    2    0    0  0.41467158637E+01 -0.40742654543E+02 -0.53265860199E+02  0.67189366825E+02  0.00000000000E+00 0.  1.
</event>
<event>
 7    1  0.2394257E-009  0.1724480E+03  0.7561462E-02  0.1175319E+00
          2   -1    0    0  501    0  0.00000000000E+00  0.00000000000E+00  0.62813367610E+02  0.62813367610E+02  0.00000000000E+00 0. -1.
         -2   -1    0    0    0  501 -0.00000000000E+00 -0.00000000000E+00 -0.65578958436E+03  0.65578958436E+03  0.00000000000E+00 0.  1.
         25    2    1    2    0    0  0.16320356612E+03 -0.18883199606E+02 -0.22398626979E+03  0.30464588085E+03  0.12508910600E+03 0.  0.
          5    1    3    3  502    0 -0.62787633273E+00  0.12937859321E+02 -0.88778703345E+02  0.89815995235E+02  0.41800000000E+01 0.  1.
         -5    1    3    3    0  502  0.16383144245E+03 -0.31821058926E+02 -0.13520756645E+03  0.21482988561E+03  0.41800000000E+01 0.  1.
        -11    1    1    2    0    0 -0.84706490831E+02  0.78171305873E+01 -0.28932158454E+03  0.30156802947E+03  0.00000000000E+00 0.  1.
         11    1    1    2    0    0 -0.78497075290E+02  0.11066069018E+02 -0.79668362421E+02  0.11238904165E+03  0.00000000000E+00 0. -1.
</event>
<event>
 7    1  0.2394257E-009  0.1269477E+03  0.7561462E-02  0.1232056E+00
         -2   -1    0    0    0  501 -0.00000000000E+00  0.00000000000E+00  0.38181427178E+02  0.38181427178E+02  0.00000000000E+00 0.  1.
          2   -1    0    0  501    0  0.00000000000E+00 -0.00000000000E+00 -0.72006494167E+03  0.72006494167E+03  0.00000000000E+00 0. -1.
         25    2    1    2    0    0  0.35810988016E+01 -0.10170676268E+03 -0.19462755607E+03  0.25275438221E+03  0.12509117596E+03 0.  0.
          5    1    3    3  502    0  0.21955882737E+02 -0.69862418414E+01  0.10777578359E+02  0.25777838488E+02  0.41800000000E+01 0.  1.
         -5    1    3    3    0  502 -0.18374783935E+02 -0.94720520834E+02 -0.20540513443E+03  0.22697654372E+03  0.41800000000E+01 0.  1.
        -11    1    1    2    0    0 -0.37658698858E+02  0.90510365634E+02 -0.33366352043E+03  0.34776665849E+03  0.00000000000E+00 0. -1.
         11    1    1    2    0    0  0.34077600056E+02  0.11196397041E+02 -0.15359243799E+03  0.15772532815E+03  0.00000000000E+00 0.  1.
</event>
<event>
 7    1  0.2394257E-009  0.1031422E+03  0.7561462E-02  0.1273824E+00
          2   -1    0    0  501    0  0.00000000000E+00  0.00000000000E+00  0.22456477589E+03  0.22456477589E+03  0.00000000000E+00 0. -1.
         -2   -1    0    0    0  501 -0.00000000000E+00 -0.00000000000E+00 -0.54856741056E+02  0.54856741056E+02  0.00000000000E+00 0.  1.
         25    2    1    2    0    0  0.59793742837E+01 -0.18739333382E+02  0.87256435225E+02  0.15377833094E+03  0.12508866474E+03 0.  0.
          5    1    3    3  502    0 -0.77320073008E+01  0.51680736781E+02  0.51588593104E+02  0.73549560363E+02  0.41800000000E+01 0. -1.
         -5    1    3    3    0  502  0.13711381584E+02 -0.70420070163E+02  0.35667842121E+02  0.80228770577E+02  0.41800000000E+01 0. -1.
        -11    1    1    2    0    0 -0.42191939438E+02  0.17743543232E+02  0.13443743181E+02  0.47704583749E+02  0.00000000000E+00 0.  1.
         11    1    1    2    0    0  0.36212565154E+02  0.99579015068E+00  0.69007856432E+02  0.77938602261E+02  0.00000000000E+00 0. -1.
</event>
<event>
 7    1  0.2394257E-009  0.1108048E+03  0.7561462E-02  0.1259087E+00
         -1   -1    0    0    0  501 -0.00000000000E+00  0.00000000000E+00  0.47077259960E+03  0.47077259960E+03  0.00000000000E+00 0.  1.
          1   -1    0    0  501    0  0.00000000000E+00 -0.00000000000E+00 -0.35750162210E+02  0.35750162210E+02  0.00000000000E+00 0. -1.
         25    2    1    2    0    0  0.12326605318E+02  0.41308173027E+02  0.34199639590E+03  0.36669644492E+03  0.12508572080E+03 0.  0.
          5    1    3    3  502    0 -0.49501633229E+02  0.47579109855E+02  0.20426132089E+03  0.21553269590E+03  0.41800000000E+01 0. -1.
         -5    1    3    3    0  502  0.61828238547E+02 -0.62709368280E+01  0.13773507501E+03  0.15116374902E+03  0.41800000000E+01 0. -1.
        -11    1    1    2    0    0 -0.43697136264E+02 -0.73586963531E+01  0.10975975266E+02  0.45651529686E+02  0.00000000000E+00 0. -1.
         11    1    1    2    0    0  0.31370530946E+02 -0.33949476674E+02  0.82050066219E+02  0.94174787204E+02  0.00000000000E+00 0.  1.
</event>
<event>
 7    1  0.2394257E-009  0.1026308E+03  0.7561462E-02  0.1274859E+00
          1   -1    0    0  501    0  0.00000000000E+00  0.00000000000E+00  0.28980761151E+03  0.28980761151E+03  0.00000000000E+00 0. -1.
         -1   -1    0    0    0  501 -0.00000000000E+00 -0.00000000000E+00 -0.78839012384E+02  0.78839012384E+02  0.00000000000E+00 0.  1.
         25    2    1    2    0    0 -0.28465223200E+02 -0.70881253296E+02  0.26089140337E+02  0.14886868067E+03  0.12508724891E+03 0.  0.
          5    1    3    3  502    0 -0.33207693272E+02 -0.18175624501E+02 -0.45760547095E+02  0.59536579419E+02  0.41800000000E+01 0. -1.
         -5    1    3    3    0  502  0.47424700723E+01 -0.52705628795E+02  0.71849687432E+02  0.89332101247E+02  0.41800000000E+01 0. -1.
        -11    1    1    2    0    0  0.25082846279E+02  0.90639461537E+02  0.12365320664E+03  0.15535371472E+03  0.00000000000E+00 0.  1.
         11    1    1    2    0    0  0.33823769211E+01 -0.19758208241E+02  0.61226252145E+02  0.64424228504E+02  0.00000000000E+00 0. -1.
</event>
<event>
 7    1  0.2394257E-009  0.1017049E+03  0.7561462E-02  0.1276751E+00
          2   -1    0    0  501    0  0.00000000000E+00  0.00000000000E+00  0.13643681253E+03  0.13643681253E+03  0.00000000000E+00 0.  1.
         -2   -1    0    0    0  501 -0.00000000000E+00 -0.00000000000E+00 -0.12930734304E+03  0.12930734304E+03  0.00000000000E+00 0. -1.
         25    2    1    2    0    0 -0.31654206728E+02  0.68575424992E+02 -0.75325302571E+01  0.14631961790E+03  0.12509242125E+03 0.  0.
          5    1    3    3  502    0 -0.91456896841E+00  0.85147782459E+02 -0.43757722140E+02  0.95828972346E+02  0.41800000000E+01 0. -1.
         -5    1    3    3    0  502 -0.30739637759E+02 -0.16572357467E+02  0.36225191882E+02  0.50490645554E+02  0.41800000000E+01 0. -1.
        -11    1    1    2    0    0  0.21134470150E+02 -0.98398794990E+01 -0.34822108233E+02  0.41905468365E+02  0.00000000000E+00 0. -1.
         11    1    1    2    0    0  0.10519736578E+02 -0.58735545493E+02  0.49484107982E+02  0.77519069298E+02  0.00000000000E+00 0.  1.
</event>
<event>
 7    1  0.2394257E-009  0.1743611E+03  0.7561462E-02  0.1173375E+00
         -1   -1    0    0    0  501 -0.00000000000E+00  0.00000000000E+00  0.99469862347E+02  0.99469862347E+02  0.00000000000E+00 0.  1.
          1   -1    0    0  501    0  0.00000000000E+00 -0.00000000000E+00 -0.32566140202E+03  0.32566140202E+03  0.00000000000E+00 0. -1.
         25    2    1    2    0    0 -0.58686353160E+02 -0.12764582024E+03 -0.15048489006E+03  0.24089356195E+03  0.12508582086E+03 0.  0.
          5    1    3    3  502    0  0.37762094273E+02 -0.55415288194E+02 -0.46905252236E+02  0.81941473118E+02  0.41800000000E+01 0. -1.
         -5    1    3    3    0  502 -0.96448447433E+02 -0.72230532050E+02 -0.10357963782E+03  0.15895208883E+03  0.41800000000E+01 0. -1.
        -11    1    1    2    0    0  0.13975069064E+02  0.11307968947E+03 -0.28166830636E+02  0.11736988146E+03  0.00000000000E+00 0.  1.
         11    1    1    2    0    0  0.44711284096E+02  0.14566130777E+02 -0.47539818978E+02  0.66867820959E+02  0.00000000000E+00 0. -1.
</event>
<event>
 7    1  0.2394257E-009  0.1334506E+03  0.7561462E-02  0.1222424E+00
          1   -1    0    0  501    0  0.00000000000E+00  0.00000000000E+00  0.39609365128E+03  0.39609365128E+03  0.00000000000E+00 0. -1.
         -1   -1    0    0    0  501 -0.00000000000E+00 -0.00000000000E+00 -0.52439863258E+02  0.52439863258E+02  0.00000000000E+00 0.  1.
         25    2    1    2    0    0  0.49736313155E+02  0.67111476714E+02  0.25583012949E+03  0.29677376689E+03  0.12509181589E+03 0.  0.
          5    1    3    3  502    0  0.12144580132E+02  0.95343863497E+02  0.20998924910E+03  0.23097813808E+03  0.41800000000E+01 0. -1.
         -5    1    3    3    0  502  0.37591733023E+02 -0.28232386783E+02  0.45840880395E+02  0.65795628810E+02  0.41800000000E+01 0. -1.
        -11    1    1    2    0    0  0.11396920877E+01 -0.72344394755E+02  0.56339470228E+02  0.91701397242E+02  0.00000000000E+00 0.  1.
         11    1    1    2    0    0 -0.50876005242E+02  0.52329180410E+01  0.31484188297E+02  0.60058350405E+02  0.00000000000E+00 0. -1.
</event>
<event>
 7    1  0.2394257E-009  0.1135614E+03  0.7561462E-02  0.1254113E+00
         -2   -1    0    0    0  501 -0.00000000000E+00  0.00000000000E+00  0.30443521692E+02  0.30443521692E+02  0.00000000000E+00 0.  1.
          2   -1    0    0  501    0  0.00000000000E+00 -0.00000000000E+00 -0.64511812311E+03  0.64511812311E+03  0.00000000000E+00 0. -1.
         25    2    1    2    0    0 -0.38118045760E+02  0.49694006643E+02 -0.48457437706E+03  0.50436318484E+03  0.12508963033E+03 0.  0.
          5    1    3    3  502    0  0.35710095825E+02 -0.12920940833E+02 -0.20352216506E+03  0.20707705263E+03  0.41800000000E+01 0. -1.
         -5    1    3    3    0  502 -0.73828141584E+02  0.62614947475E+02 -0.28105221200E+03  0.29728613222E+03  0.41800000000E+01 0. -1.
        -11    1    1    2    0    0  0.35032570309E+02  0.65957223835E+01 -0.77434762145E+01  0.36479390896E+02  0.00000000000E+00 0.  1.
         11    1    1    2    0    0  0.30854754506E+01 -0.56289729026E+02 -0.12235674815E+03  0.13471906907E+03  0.00000000000E+00 0. -1.
</event>
<event>
 7    1  0.2394257E-009  0.1537158E+03  0.7561462E-02  0.1195980E+00
         -2   -1    0    0    0  501 -0.00000000000E+00  0.00000000000E+00  0.16696403538E+03  0.16696403538E+03  0.00000000000E+00 0.  1.
          2   -1    0    0  501    0  0.00000000000E+00 -0.00000000000E+00 -0.26496606697E+03  0.26496606697E+03  0.00000000000E+00 0. -1.
         25    2    1    2    0    0 -0.13141196136E+03  0.37131654987E+02 -0.17079066172E+03  0.25192264669E+03  0.12509079260E+03 0.  0.
          5    1    3    3  502    0  0.20456722570E+01  0.36412474976E+02 -0.86632296536E+02  0.94088683230E+02  0.41800000000E+01 0.  1.
         -5    1    3    3    0  502 -0.13345763362E+03  0.71918001044E+00 -0.84158365181E+02  0.15783396346E+03  0.41800000000E+01 0.  1.
        -11    1    1    2    0    0  0.20910732466E+02 -0.11090260386E+02 -0.21845036350E+02  0.32209598272E+02  0.00000000000E+00 0. -1.
         11    1    1    2    0    0  0.11050122889E+03 -0.26041394601E+02  0.94633666481E+02  0.14779785740E+03  0.00000000000E+00 0.  1.
</event>
<event>
 7    1  0.2394257E-009  0.2031982E+03  0.7561462E-02  0.1147068E+00
          2   -1    0    0  501    0  0.00000000000E+00  0.00000000000E+00  0.10339188210E+03  0.10339188210E+03  0.00000000000E+00 0. -1.
         -2   -1    0    0    0  501 -0.00000000000E+00 -0.00000000000E+00 -0.60782051657E+03  0.60782051657E+03  0.00000000000E+00 0.  1.
         25    2    1    2    0    0  0.12998118692E+03 -0.12865475790E+03 -0.72118531735E+02  0.23301359170E+03  0.12508835123E+03 0.  0.
          5    1    3    3  502    0  0.11741143859E+03 -0.14156184610E+03 -0.29183148789E+02  0.18626414243E+03  0.41800000000E+01 0. -1.
         -5    1    3    3    0  502  0.12569748332E+02  0.12907088193E+02 -0.42935382945E+02  0.46749449274E+02  0.41800000000E+01 0. -1.
        -11    1    1    2    0    0 -0.11320825995E+03  0.50425964170E+02 -0.24668890271E+03  0.27606938024E+03  0.00000000000E+00 0. -1.
         11    1    1    2    0    0 -0.16772926967E+02  0.78228793734E+02 -0.18562120003E+03  0.20212942672E+03  0.00000000000E+00 0.  1.
</event>
<event>
 7    1  0.2394257E-009  0.1129947E+03  0.7561462E-02  0.1255123E+00
          1   -1    0    0  501    0  0.00000000000E+00  0.00000000000E+00  0.23392599489E+03  0.23392599489E+03  0.00000000000E+00 0. -1.
         -1   -1    0    0    0  501 -0.00000000000E+00 -0.00000000000E+00 -0.11568567655E+03  0.11568567655E+03  0.00000000000E+00 0.  1.
         25    2    1    2    0    0 -0.87078389639E+02  0.13756633901E+02  0.15512968169E+03  0.21791055290E+03  0.12509156649E+03 0.  0.
          5    1    3    3  502    0 -0.57393022189E+02 -0.35334172256E+02  0.19033967917E+02  0.70158585075E+02  0.41800000000E+01 0. -1.
         -5    1    3    3    0  502 -0.29685367449E+02  0.49090806156E+02  0.13609571377E+03  0.14775196783E+03  0.41800000000E+01 0. -1.
        -11    1    1    2    0    0  0.39589191860E+02  0.18331994119E+02 -0.56267538507E+02  0.71199733217E+02  0.00000000000E+00 0.  1.
         11    1    1    2    0    0  0.47489197779E+02 -0.32088628019E+02  0.19378175155E+02  0.60501385324E+02  0.00000000000E+00 0. -1.
</event>
<event>
 7    1  0.2394257E-009  0.2706589E+03  0.7561462E-02  0.1100903E+00
          2   -1    0    0  501    0  0.00000000000E+00  0.00000000000E+00  0.65607450602E+03  0.65607450602E+03  0.00000000000E+00 0. -1.
         -2   -1    0    0    0  501 -0.00000000000E+00 -0.00000000000E+00 -0.14994324424E+03  0.14994324424E+03  0.00000000000E+00 0.  1.
         25    2    1    2    0    0  0.17647211166E+03 -0.18788760679E+03  0.76082618811E+02  0.29644617514E+03  0.12509041088E+03 0.  0.
          5    1    3    3  502    0  0.37399477802E+02 -0.10212287007E+03 -0.14143605142E+02  0.10975115260E+03  0.41800000000E+01 0.  1.
         -5    1    3    3    0  502  0.13907263386E+03 -0.85764736717E+02  0.90226223954E+02  0.18669502254E+03  0.41800000000E+01 0.  1.
        -11    1    1    2    0    0 -0.11047076480E+03  0.61456106072E+02  0.24749027919E+03  0.27790660507E+03  0.00000000000E+00 0.  1.
         11    1    1    2    0    0 -0.66001346864E+02  0.12643150072E+03  0.18255836378E+03  0.23166497005E+03  0.00000000000E+00 0. -1.
</event>
<event>
 7    1  0.2394257E-009  0.2063459E+03  0.7561462E-02  0.1144493E+00
          1   -1    0    0  501    0  0.00000000000E+00  0.00000000000E+00  0.10470782480E+04  0.10470782480E+04  0.00000000000E+00 0. -1.
         -1   -1    0    0    0  501 -0.00000000000E+00 -0.00000000000E+00 -0.46474462094E+02  0.46474462094E+02  0.00000000000E+00 0.  1.
         25    2    1    2    0    0  0.14420372145E+03 -0.11865895374E+03  0.64109798150E+03  0.67935861806E+03  0.12508736731E+03 0.  0.
          5    1    3    3  502    0 -0.12464450184E+02 -0.25323922665E+02  0.20009623072E+03  0.20212035407E+03  0.41800000000E+01 0.  1.
         -5    1    3    3    0  502  0.15666817164E+03 -0.93335031077E+02  0.44100175078E+03  0.47723826399E+03  0.41800000000E+01 0.  1.
        -11    1    1    2    0    0 -0.28593917800E+02  0.71288704077E+02  0.17778136057E+03  0.19366440982E+03  0.00000000000E+00 0. -1.
         11    1    1    2    0    0 -0.11560980365E+03  0.47370249665E+02  0.18172444386E+03  0.22052968224E+03  0.00000000000E+00 0.  1.
</event>
<event>
 7    1  0.2394257E-009  0.1239596E+03  0.7561462E-02  0.1236704E+00
         -2   -1    0    0    0  501 -0.00000000000E+00  0.00000000000E+00  0.23115140535E+03  0.23115140535E+03  0.00000000000E+00 0.  1.
          2   -1    0    0  501    0  0.00000000000E+00 -0.00000000000E+00 -0.93744858992E+02  0.93744858992E+02  0.00000000000E+00 0. -1.
         25    2    1    2    0    0  0.28031554039E+02 -0.63916910977E+02 -0.81585815559E+01  0.14347675665E+03  0.12509147739E+03 0.  0.
          5    1    3    3  502    0 -0.22427067878E+02 -0.83183705670E+02 -0.18769888971E+02  0.88273911177E+02  0.41800000000E+01 0. -1.
         -5    1    3    3    0  502  0.50458621918E+02  0.19266794692E+02  0.10611307415E+02  0.55202845476E+02  0.41800000000E+01 0. -1.
        -11    1    1    2    0    0  0.14089589307E+02  0.63832803892E+02  0.77639834600E+02  0.10149427223E+03  0.00000000000E+00 0. -1.
         11    1    1    2    0    0 -0.42121143347E+02  0.84107085483E-01  0.67925293319E+02  0.79925235459E+02  0.00000000000E+00 0.  1.
</event>
<event>
 7    1  0.2394257E-009  0.1647289E+03  0.7561462E-02  0.1183459E+00
         -3   -1    0    0    0  501 -0.00000000000E+00  0.00000000000E+00  0.76489871651E+03  0.76489871651E+03  0.00000000000E+00 0.  1.
          3   -1    0    0  501    0  0.00000000000E+00 -0.00000000000E+00 -0.42484718276E+02  0.42484718276E+02  0.00000000000E+00 0. -1.
         25    2    1    2    0    0  0.66017814455E+02  0.12750010028E+03  0.35260410515E+03  0.40073967247E+03  0.12509197706E+03 0.  0.
          5    1    3    3  502    0 -0.41033438911E+01 -0.18162602379E+02  0.92604333841E+02  0.94550264951E+02  0.41800000000E+01 0. -1.
         -5    1    3    3    0  502  0.70121158346E+02  0.14566270266E+03  0.25999977131E+03  0.30618940752E+03  0.41800000000E+01 0. -1.
        -11    1    1    2    0    0  0.50783053273E+01 -0.11996519047E+02  0.30270309109E+00  0.13030628665E+02  0.00000000000E+00 0. -1.
         11    1    1    2    0    0 -0.71096119782E+02 -0.11550358124E+03  0.36950718999E+03  0.39361313365E+03  0.00000000000E+00 0.  1.
</event>
<event>
 7    1  0.2394257E-009  0.1171136E+03  0.7561462E-02  0.1247936E+00
         -1   -1    0    0    0  501 -0.00000000000E+00  0.00000000000E+00  0.88710382425E+02  0.88710382425E+02  0.00000000000E+00 0.  1.
          1   -1    0    0  501    0  0.00000000000E+00 -0.00000000000E+00 -0.19450015245E+03  0.19450015245E+03  0.00000000000E+00 0. -1.
         25    2    1    2    0    0  0.56946550354E+02 -0.34500289072E+02 -0.22336394821E+02  0.14345860478E+03  0.12509307419E+03 0.  0.
          5    1    3    3  502    0  0.26028697050E+02 -0.74180426798E+02  0.15674293330E+02  0.80270696157E+02  0.41800000000E+01 0. -1.
         -5    1    3    3    0  502  0.30917853304E+02  0.39680137727E+02 -0.38010688151E+02  0.63187908627E+02  0.41800000000E+01 0. -1.
        -11    1    1    2    0    0 -0.54966601200E+02  0.58889096849E+02 -0.82438077484E+02  0.11526183061E+03  0.00000000000E+00 0. -1.
         11    1    1    2    0    0 -0.19799491540E+01 -0.24388807777E+02 -0.10152977214E+01  0.24490099488E+02  0.00000000000E+00 0.  1.
</event>
<event>
 7    1  0.2394257E-009  0.1038372E+03  0.7561462E-02  0.1272428E+00
         -2   -1    0    0    0  501 -0.00000000000E+00  0.00000000000E+00  0.10554629730E+03  0.10554629730E+03  0.00000000000E+00 0.  1.
          2   -1    0    0  501    0  0.00000000000E+00 -0.00000000000E+00 -0.20940588861E+03  0.20940588861E+03  0.00000000000E+00 0. -1.
         25    2    1    2    0    0  0.73639965306E+02  0.27213197232E+02  0.11340021462E+02  0.14812074709E+03  0.12509099503E+03 0.  0.
          5    1    3    3  502    0  0.23500839128E+02 -0.11552594941E+02  0.61638860185E+02  0.67101217385E+02  0.41800000000E+01 0. -1.
         -5    1    3    3    0  502  0.50139126178E+02  0.38765792173E+02 -0.50298838723E+02  0.81019529705E+02  0.41800000000E+01 0. -1.
        -11    1    1    2    0    0 -0.92832311440E+02 -0.31396386463E+02 -0.79930808261E+02  0.12646147729E+03  0.00000000000E+00 0.  1.
         11    1    1    2    0    0  0.19192346133E+02  0.41831892309E+01 -0.35268804504E+02  0.40369961523E+02  0.00000000000E+00 0. -1.
</event>
<event>
 7    1  0.2394257E-009  0.1830546E+03  0.7561462E-02  0.1164879E+00
          2   -1    0    0  501    0  0.00000000000E+00  0.00000000000E+00  0.66037171215E+03  0.66037171215E+03  0.00000000000E+00 0. -1.
         -2   -1    0    0    0  501 -0.00000000000E+00 -0.00000000000E+00 -0.67507436175E+02  0.67507436175E+02  0.00000000000E+00 0.  1.
         25    2    1    2    0    0  0.10876852120E+03  0.12775660737E+03  0.19247129968E+03  0.28433516884E+03  0.12509574377E+03 0.  0.
          5    1    3    3  502    0  0.36968971437E+02 -0.98310218606E+01  0.91166639940E+02  0.98955457039E+02  0.41800000000E+01 0.  1.
         -5    1    3    3    0  502  0.71799549763E+02  0.13758762923E+03  0.10130465974E+03  0.18537971180E+03  0.41800000000E+01 0.  1.
        -11    1    1    2    0    0 -0.80073492625E+02 -0.64165858222E+02  0.13759453413E+03  0.17164287752E+03  0.00000000000E+00 0.  1.
         11    1    1    2    0    0 -0.28695028574E+02 -0.63590749147E+02  0.26279844216E+03  0.27190110195E+03  0.00000000000E+00 0. -1.
</event>
<event>
 7    1  0.2394257E-009  0.1531057E+03  0.7561462E-02  0.1196708E+00
         -1   -1    0    0    0  501 -0.00000000000E+00  0.00000000000E+00  0.98664474095E+02  0.98664474095E+02  0.00000000000E+00 0.  1.
          1   -1    0    0  501    0  0.00000000000E+00 -0.00000000000E+00 -0.30998857914E+03  0.30998857914E+03  0.00000000000E+00 0. -1.
         25    2    1    2    0    0  0.10999664337E+03 -0.51255255066E+02 -0.38715946966E+02  0.17853169547E+03  0.12509308139E+03 0.  0.
          5    1    3    3  502    0  0.44084113742E+02 -0.75052230402E+02  0.17150799578E+02  0.88813674054E+02  0.41800000000E+01 0. -1.
         -5    1    3    3    0  502  0.65912529627E+02  0.23796975336E+02 -0.55866746544E+02  0.89718021414E+02  0.41800000000E+01 0. -1.
        -11    1    1    2    0    0 -0.49336380110E+02 -0.21777456524E+02 -0.40526589354E+02  0.67459176245E+02  0.00000000000E+00 0.  1.
         11    1    1    2    0    0 -0.60660263259E+02  0.73032711589E+02 -0.13208156872E+03  0.16266218152E+03  0.00000000000E+00 0. -1.
</event>
<event>
 7    1  0.2394257E-009  0.1398417E+03  0.7561462E-02  0.1213542E+00
          2   -1    0    0  501    0  0.00000000000E+00  0.00000000000E+00  0.32722456487E+03  0.32722456487E+03  0.00000000000E+00 0. -1.
         -2   -1    0    0    0  501 -0.00000000000E+00 -0.00000000000E+00 -0.97358631292E+02  0.97358631292E+02  0.00000000000E+00 0.  1.
         25    2    1    2    0    0 -0.99516831753E+01  0.10465445136E+03  0.23661335380E+03  0.28755057883E+03  0.12509143057E+03 0.  0.
          5    1    3    3  502    0  0.41091597317E+02  0.24621127778E+02  0.22070094034E+02  0.52908229547E+02  0.41800000000E+01 0.  1.
         -5    1    3    3    0  502 -0.51043280492E+02  0.80033323581E+02  0.21454325977E+03  0.23464234928E+03  0.41800000000E+01 0.  1.
        -11    1    1    2    0    0  0.42199624041E+02 -0.93288008343E+02 -0.12185981698E+01  0.10239602410E+03  0.00000000000E+00 0.  1.
         11    1    1    2    0    0 -0.32247940866E+02 -0.11366443016E+02 -0.55288220571E+01  0.34636593225E+02  0.00000000000E+00 0. -1.
</event>
<event>
 7    1  0.2394257E-009  0.6951639E+02  0.7561462E-02  0.1361745E+00
         -4   -1    0    0    0  501 -0.00000000000E+00  0.00000000000E+00  0.20142252511E+02  0.20142252511E+02  0.00000000000E+00 0. -1.
          4   -1    0    0  501    0  0.00000000000E+00 -0.00000000000E+00 -0.93483695487E+03  0.93483695487E+03  0.00000000000E+00 0.  1.
         25    2    1    2    0    0 -0.12596925137E+02  0.47487046213E+02 -0.73818021093E+03  0.75031457722E+03  0.12509292101E+03 0.  0.
          5    1    3    3  502    0 -0.16752419441E+02  0.48256393860E+01 -0.93618721954E+01  0.20224920361E+02  0.41800000000E+01 0.  1.
         -5    1    3    3    0  502  0.41554943034E+01  0.42661406827E+02 -0.72881833874E+03  0.73008965685E+03  0.41800000000E+01 0.  1.
        -11    1    1    2    0    0 -0.11894787030E+02 -0.51818896897E+02 -0.17115412923E+03  0.17922170624E+03  0.00000000000E+00 0.  1.
         11    1    1    2    0    0  0.24491712168E+02  0.43318506846E+01 -0.53603621979E+01  0.25442923931E+02  0.00000000000E+00 0. -1.
</event>
<event>
 7    1  0.2394257E-009  0.1098490E+03  0.7561462E-02  0.1260850E+00
          1   -1    0    0  501    0  0.00000000000E+00  0.00000000000E+00  0.12017590782E+03  0.12017590782E+03  0.00000000000E+00 0. -1.
         -1   -1    0    0    0  501 -0.00000000000E+00 -0.00000000000E+00 -0.18606057970E+03  0.18606057970E+03  0.00000000000E+00 0.  1.
         25    2    1    2    0    0  0.24200425549E+02  0.66473905022E+02 -0.11065068916E+03  0.18137244709E+03  0.12509176195E+03 0.  0.
          5    1    3    3  502    0 -0.13611431567E+02  0.94909819779E+02 -0.78909394547E+02  0.12424697142E+03  0.41800000000E+01 0.  1.
         -5    1    3    3    0  502  0.37811857117E+02 -0.28435914757E+02 -0.31741294614E+02  0.57125475669E+02  0.41800000000E+01 0.  1.
        -11    1    1    2    0    0 -0.27093927942E+02 -0.33295998456E+02  0.70660603641E+02  0.82677840752E+02  0.00000000000E+00 0. -1.
         11    1    1    2    0    0  0.28935023931E+01 -0.33177906566E+02 -0.25894586361E+02  0.42186199675E+02  0.00000000000E+00 0.  1.
</event>
<event>
 7    1  0.2394257E-009  0.1332470E+03  0.7561462E-02  0.1222716E+00
          1   -1    0    0  501    0  0.00000000000E+00  0.00000000000E+00  0.63850453392E+03  0.63850453392E+03  0.00000000000E+00 0. -1.
         -1   -1    0    0    0  501 -0.00000000000E+00 -0.00000000000E+00 -0.34834435358E+02  0.34834435358E+02  0.00000000000E+00 0.  1.
         25    2    1    2    0    0 -0.47757122418E+02  0.84023237101E+02  0.29008228936E+03  0.33035834993E+03  0.12509299604E+03 0.  0.
          5    1    3    3  502    0 -0.87578552103E+02  0.63461948853E+02  0.16413079872E+03  0.19660573041E+03  0.41800000000E+01 0. -1.
         -5    1    3    3    0  502  0.39821429684E+02  0.20561288248E+02  0.12595149064E+03  0.13375261953E+03  0.41800000000E+01 0. -1.
        -11    1    1    2    0    0  0.61804090122E+02 -0.66421894764E+02  0.30607824946E+03  0.31924208440E+03  0.00000000000E+00 0. -1.
         11    1    1    2    0    0 -0.14046967703E+02 -0.17601342336E+02  0.75095597462E+01  0.23738534944E+02  0.00000000000E+00 0.  1.
</event>
<event>
 7    1  0.2394257E-009  0.1301074E+03  0.7561462E-02  0.1227296E+00
          2   -1    0    0  501    0  0.00000000000E+00  0.00000000000E+00  0.80736887626E+03  0.80736887626E+03  0.00000000000E+00 0. -1.
         -2   -1    0    0    0  501 -0.00000000000E+00 -0.00000000000E+00 -0.29193939208E+02  0.29193939208E+02  0.00000000000E+00 0.  1.
         25    2    1    2    0    0 -0.10317034735E+03 -0.28862606982E+01  0.50361435569E+03  0.52908105053E+03  0.12508752014E+03 0.  0.
          5    1    3    3  502    0 -0.62302872773E+02  0.50045626417E+02  0.15886971873E+03  0.17788556043E+03  0.41800000000E+01 0. -1.
         -5    1    3    3    0  502 -0.40867474581E+02 -0.52931887115E+02  0.34474463696E+03  0.35119549010E+03  0.41800000000E+01 0. -1.
        -11    1    1    2    0    0  0.66652659230E+02  0.24195491393E+02  0.24708471907E+03  0.25705808135E+03  0.00000000000E+00 0. -1.
         11    1    1    2    0    0  0.36517688124E+02 -0.21309230694E+02  0.27475862283E+02  0.50423683591E+02  0.00000000000E+00 0.  1.
</event>
<event>
 7    1  0.2394257E-009  0.1030490E+03  0.7561462E-02  0.1274012E+00
         -4   -1    0    0    0  501 -0.00000000000E+00  0.00000000000E+00  0.81307018519E+03  0.81307018519E+03  0.00000000000E+00 0.  1.
          4   -1    0    0  501    0  0.00000000000E+00 -0.00000000000E+00 -0.24648983568E+02  0.24648983568E+02  0.00000000000E+00 0. -1.
         25    2    1    2    0    0  0.21661657770E+02 -0.16113388715E+02  0.67969933624E+03  0.69164126666E+03  0.12509030875E+03 0.  0.
          5    1    3    3  502    0  0.74148865216E+02 -0.89623954655E+01  0.39021074936E+03  0.39731634758E+03  0.41800000000E+01 0. -1.
         -5    1    3    3    0  502 -0.52487207445E+02 -0.71509932490E+01  0.28948858688E+03  0.29432491907E+03  0.41800000000E+01 0. -1.
        -11    1    1    2    0    0  0.27296203161E+02  0.86395749686E+01  0.87737126799E+02  0.92290456612E+02  0.00000000000E+00 0.  1.
         11    1    1    2    0    0 -0.48957860931E+02  0.74738137459E+01  0.20984738580E+02  0.53787445488E+02  0.00000000000E+00 0. -1.
</event>
<event>
 7    1  0.2394257E-009  0.1580829E+03  0.7561462E-02  0.1190878E+00
          1   -1    0    0  501    0  0.00000000000E+00  0.00000000000E+00  0.15926340812E+03  0.15926340812E+03  0.00000000000E+00 0. -1.
         -1   -1    0    0    0  501 -0.00000000000E+00 -0.00000000000E+00 -0.20157903461E+03  0.20157903461E+03  0.00000000000E+00 0.  1.
         25    2    1    2    0    0  0.96963939675E+02 -0.85567407125E+02 -0.83999566589E+02  0.19856493636E+03  0.12509324524E+03 0.  0.
          5    1    3    3  502    0  0.11686281497E+03 -0.97994281361E+02 -0.85122383317E+02  0.17470858377E+03  0.41800000000E+01 0.  1.
         -5    1    3    3    0  502 -0.19898875297E+02  0.12426874236E+02  0.11228167284E+01  0.23856352587E+02  0.41800000000E+01 0.  1.
        -11    1    1    2    0    0 -0.48821453008E+02  0.94880673759E+01 -0.19502429665E+02  0.53421928636E+02  0.00000000000E+00 0.  1.
         11    1    1    2    0    0 -0.48142486667E+02  0.76079339749E+02  0.61186369761E+02  0.10885557773E+03  0.00000000000E+00 0. -1.
</event>
<event>
 7    1  0.2395355E-009  0.1212853E+03  0.7561462E-02  0.1240992E+00
          2   -1    0    0  501    0  0.00000000000E+00  0.00000000000E+00  0.21970087413E+03  0.21970087413E+03  0.00000000000E+00 0. -1.
         -2   -1    0    0    0  501 -0.00000000000E+00 -0.00000000000E+00 -0.75947706905E+02  0.75947706905E+02  0.00000000000E+00 0.  1.
         25    2    1    2    0    0 -0.53747042197E+02  0.37843996248E+02  0.51181054810E+02  0.15029337220E+03  0.12509070612E+03 0.  0.
          5    1    3    3  502    0 -0.83520711052E+01 -0.44406617017E+02  0.28405869689E+02  0.53535694256E+02  0.41800000000E+01 0. -1.
         -5    1    3    3    0  502 -0.45394971092E+02  0.82250613266E+02  0.22775185122E+02  0.96757677940E+02  0.41800000000E+01 0. -1.
        -11    1    1    2    0    0 -0.20803526541E+02 -0.35939592174E+01 -0.71555318143E+00  0.21123808268E+02  0.00000000000E+00 0.  1.
         11    1    1    2    0    0  0.74550568738E+02 -0.34250037031E+02  0.93287665599E+02  0.12423140057E+03  0.00000000000E+00 0. -1.
</event>
<event>
 7    1  0.2394257E-009  0.9051216E+02  0.7561462E-02  0.1301616E+00
         -2   -1    0    0    0  501 -0.00000000000E+00  0.00000000000E+00  0.60127368079E+02  0.60127368079E+02  0.00000000000E+00 0.  1.
          2   -1    0    0  501    0  0.00000000000E+00 -0.00000000000E+00 -0.36931697243E+03  0.36931697243E+03  0.00000000000E+00 0. -1.
         25    2    1    2    0    0 -0.57337905345E+02 -0.12205242775E+01 -0.28828897572E+03  0.31944620672E+03  0.12508485279E+03 0.  0.
          5    1    3    3  502    0 -0.77678700271E+02  0.23688405843E+02 -0.10245453265E+03  0.13080338187E+03  0.41800000000E+01 0.  1.
         -5    1    3    3    0  502  0.20340794926E+02 -0.24908930120E+02 -0.18583444307E+03  0.18864282485E+03  0.41800000000E+01 0.  1.
        -11    1    1    2    0    0  0.11886350404E+01 -0.99555034621E+01 -0.46294901919E+02  0.47368162791E+02  0.00000000000E+00 0. -1.
         11    1    1    2    0    0  0.56149270304E+02  0.11176027740E+02  0.25394273287E+02  0.62629971000E+02  0.00000000000E+00 0.  1.
</event>
<event>
 7    1  0.2394257E-009  0.9522834E+02  0.7561462E-02  0.1290663E+00
         -1   -1    0    0    0  501 -0.00000000000E+00  0.00000000000E+00  0.36115605719E+03  0.36115605719E+03  0.00000000000E+00 0.  1.
          1   -1    0    0  501    0  0.00000000000E+00 -0.00000000000E+00 -0.46775717525E+02  0.46775717525E+02  0.00000000000E+00 0. -1.
         25    2    1    2    0    0 -0.10620548457E+02  0.38013787870E+01  0.61581866119E+02  0.13987579175E+03  0.12508263010E+03 0.  0.
          5    1    3    3  502    0  0.38270065850E+02  0.36655992084E+02  0.60876947146E+02  0.80819148657E+02  0.41800000000E+01 0. -1.
         -5    1    3    3    0  502 -0.48890614307E+02 -0.32854613297E+02  0.70491897285E+00  0.59056643089E+02  0.41800000000E+01 0. -1.
        -11    1    1    2    0    0  0.40482961280E+02 -0.19021702219E+02  0.76644563517E+02  0.88741672432E+02  0.00000000000E+00 0. -1.
         11    1    1    2    0    0 -0.29862412823E+02  0.15220323432E+02  0.17615391003E+03  0.17931431054E+03  0.00000000000E+00 0.  1.
</event>
<event>
 7    1  0.2394257E-009  0.1546655E+03  0.7561462E-02  0.1194855E+00
         -2   -1    0    0    0  501 -0.00000000000E+00  0.00000000000E+00  0.61622266408E+02  0.61622266408E+02  0.00000000000E+00 0.  1.
          2   -1    0    0  501    0  0.00000000000E+00 -0.00000000000E+00 -0.61243588449E+03  0.61243588449E+03  0.00000000000E+00 0. -1.
         25    2    1    2    0    0 -0.38843893252E+02  0.13080294176E+03 -0.43662606052E+03  0.47424432709E+03  0.12508839849E+03 0.  0.
          5    1    3    3  502    0  0.21381269332E+02  0.67508044312E+02 -0.79429539109E+02  0.10649421960E+03  0.41800000000E+01 0.  1.
         -5    1    3    3    0  502 -0.60225162585E+02  0.63294897445E+02 -0.35719652141E+03  0.36775010749E+03  0.41800000000E+01 0.  1.
        -11    1    1    2    0    0 -0.13067377264E+02 -0.68942642664E+02 -0.14730003296E+02  0.71699493186E+02  0.00000000000E+00 0.  1.
         11    1    1    2    0    0  0.51911270516E+02 -0.61860299093E+02 -0.99457554272E+02  0.12811433063E+03  0.00000000000E+00 0. -1.
</event>
<event>
 7    1  0.2394257E-009  0.4958693E+02  0.7561462E-02  0.1447582E+00
          2   -1    0    0  501    0  0.00000000000E+00  0.00000000000E+00  0.12566439564E+02  0.12566439564E+02  0.00000000000E+00 0.  1.
         -2   -1    0    0    0  501 -0.00000000000E+00 -0.00000000000E+00 -0.12165447026E+04  0.12165447026E+04  0.00000000000E+00 0. -1.
         25    2    1    2    0    0  0.12277676787E+02 -0.40458434307E+01 -0.95999080225E+03  0.96819255081E+03  0.12508942736E+03 0.  0.
          5    1    3    3  502    0  0.14298189615E+02  0.96841586526E+00 -0.96114609104E+03  0.96126201255E+03  0.41800000000E+01 0. -1.
         -5    1    3    3    0  502 -0.20205128279E+01 -0.50142592960E+01  0.11552887862E+01  0.69305382586E+01  0.41800000000E+01 0. -1.
        -11    1    1    2    0    0  0.81641916252E+01 -0.33598213329E+02 -0.18391868649E+03  0.18714052795E+03  0.00000000000E+00 0. -1.
         11    1    1    2    0    0 -0.20441868413E+02  0.37644056760E+02 -0.60068774295E+02  0.73778063398E+02  0.00000000000E+00 0.  1.
</event>
<event>
 7    1  0.2394257E-009  0.1413605E+03  0.7561462E-02  0.1211510E+00
          3   -1    0    0  501    0  0.00000000000E+00  0.00000000000E+00  0.20668684682E+03  0.20668684682E+03  0.00000000000E+00 0. -1.
         -3   -1    0    0    0  501 -0.00000000000E+00 -0.00000000000E+00 -0.10278950433E+03  0.10278950433E+03  0.00000000000E+00 0.  1.
         25    2    1    2    0    0 -0.90910004700E+02 -0.22052026090E+02  0.86443299838E+02  0.17852397384E+03  0.12508974515E+03 0.  0.
          5    1    3    3  502    0 -0.38525820923E+02  0.50648181720E+02  0.19808067039E+02  0.66778058591E+02  0.41800000000E+01 0.  1.
         -5    1    3    3    0  502 -0.52384183776E+02 -0.72700207811E+02  0.66635232799E+02  0.11174591525E+03  0.41800000000E+01 0.  1.
        -11    1    1    2    0    0  0.75160203860E+02 -0.25329248130E+02  0.16507105653E+02  0.81013033470E+02  0.00000000000E+00 0.  1.
         11    1    1    2    0    0  0.15749800840E+02  0.47381274220E+02  0.94693699384E+00  0.49939343837E+02  0.00000000000E+00 0. -1.
</event>
<event>
 7    1  0.2394257E-009  0.1003904E+03  0.7561462E-02  0.1279477E+00
          2   -1    0    0  501    0  0.00000000000E+00  0.00000000000E+00  0.31787230735E+03  0.31787230735E+03  0.00000000000E+00 0. -1.
         -2   -1    0    0    0  501 -0.00000000000E+00 -0.00000000000E+00 -0.43627499969E+02  0.43627499969E+02  0.00000000000E+00 0.  1.
         25    2    1    2    0    0  0.12597330437E+01 -0.34257850624E+02  0.11048838237E+03  0.17038524972E+03  0.12509301909E+03 0.  0.
          5    1    3    3  502    0 -0.49868307106E+02  0.20396795343E+02  0.55150997173E+02  0.77213873126E+02  0.41800000000E+01 0.  1.
         -5    1    3    3    0  502  0.51128040150E+02 -0.54654645966E+02  0.55337385198E+02  0.93171376591E+02  0.41800000000E+01 0.  1.
        -11    1    1    2    0    0 -0.58055303305E+01 -0.18212742110E+02  0.19463118451E-01  0.19115662070E+02  0.00000000000E+00 0. -1.
         11    1    1    2    0    0  0.45457972868E+01  0.52470592734E+02  0.16373696189E+03  0.17199889553E+03  0.00000000000E+00 0.  1.
</event>
<event>
 7    1  0.2394257E-009  0.1105477E+03  0.7561462E-02  0.1259559E+00
          1   -1    0    0  501    0  0.00000000000E+00  0.00000000000E+00  0.18084836161E+03  0.18084836161E+03  0.00000000000E+00 0. -1.
         -1   -1    0    0    0  501 -0.00000000000E+00 -0.00000000000E+00 -0.76365239175E+02  0.76365239175E+02  0.00000000000E+00 0.  1.
         25    2    1    2    0    0 -0.32952030680E+02 -0.26851546668E+02  0.38382582877E+02  0.13757722656E+03  0.12508968269E+03 0.  0.
          5    1    3    3  502    0 -0.65963337630E+02 -0.55960663554E+02  0.34407244999E+02  0.93188457897E+02  0.41800000000E+01 0. -1.
         -5    1    3    3    0  502  0.33011306950E+02  0.29109116887E+02  0.39753378773E+01  0.44388768666E+02  0.41800000000E+01 0. -1.
        -11    1    1    2    0    0  0.57720832366E+02  0.30437083775E+02  0.21879708727E+02  0.68824648286E+02  0.00000000000E+00 0.  1.
         11    1    1    2    0    0 -0.24768801685E+02 -0.35855371073E+01  0.44220830828E+02  0.50811725934E+02  0.00000000000E+00 0. -1.
</event>
<event>
 7    1  0.2394257E-009  0.1793327E+03  0.7561462E-02  0.1168450E+00
          2   -1    0    0  501    0  0.00000000000E+00  0.00000000000E+00  0.17605365928E+03  0.17605365928E+03  0.00000000000E+00 0. -1.
         -2   -1    0    0    0  501 -0.00000000000E+00 -0.00000000000E+00 -0.38349703517E+03  0.38349703517E+03  0.00000000000E+00 0.  1.
         25    2    1    2    0    0  0.15525640537E+03  0.18788101052E+02 -0.29496381984E+03  0.35652268868E+03  0.12508888192E+03 0.  0.
          5    1    3    3  502    0  0.22349123247E+02 -0.38209757890E+02 -0.27056850906E+02  0.52048193906E+02  0.41800000000E+01 0. -1.
         -5    1    3    3    0  502  0.13290728212E+03  0.56997858942E+02 -0.26790696893E+03  0.30447449477E+03  0.41800000000E+01 0. -1.
        -11    1    1    2    0    0 -0.16777887884E+02 -0.25908998205E+02 -0.11176164686E+02  0.32828042387E+02  0.00000000000E+00 0.  1.
         11    1    1    2    0    0 -0.13847851749E+03  0.71208971529E+01  0.98696608627E+02  0.17019996338E+03  0.00000000000E+00 0. -1.
</event>
<event>
 7    1  0.2394257E-009  0.1244387E+03  0.7561462E-02  0.1235949E+00
          2   -1    0    0  501    0  0.00000000000E+00  0.00000000000E+00  0.28482313653E+03  0.28482313653E+03  0.00000000000E+00 0. -1.
         -2   -1    0    0    0  501 -0.00000000000E+00 -0.00000000000E+00 -0.59277506397E+02  0.59277506397E+02  0.00000000000E+00 0.  1.
         25    2    1    2    0    0  0.19848077263E+02  0.55297835174E+02  0.75381858238E+02  0.15741966122E+03  0.12508688357E+03 0.  0.
          5    1    3    3  502    0  0.22963247863E+02 -0.37969088998E+02  0.28500639089E+02  0.52902942265E+02  0.41800000000E+01 0.  1.
         -5    1    3    3    0  502 -0.31151705999E+01  0.93266924172E+02  0.46881219148E+02  0.10451671896E+03  0.41800000000E+01 0.  1.
        -11    1    1    2    0    0  0.36133581153E+02 -0.37683307730E+02  0.69278847594E+02  0.86748061029E+02  0.00000000000E+00 0. -1.
         11    1    1    2    0    0 -0.55981658415E+02 -0.17614527443E+02  0.80884924306E+02  0.99932920682E+02  0.00000000000E+00 0.  1.
</event>
<event>
 7    1  0.2394257E-009  0.9021428E+02  0.7561462E-02  0.1302334E+00
         -1   -1    0    0    0  501 -0.00000000000E+00  0.00000000000E+00  0.49760622907E+03  0.49760622907E+03  0.00000000000E+00 0.  1.
          1   -1    0    0  501    0  0.00000000000E+00 -0.00000000000E+00 -0.32593810522E+02  0.32593810522E+02  0.00000000000E+00 0. -1.
         25    2    1    2    0    0  0.16258210051E+02 -0.49146265917E+02  0.34988214452E+03  0.37515788553E+03  0.12508492785E+03 0.  0.
          5    1    3    3  502    0  0.27288658345E+02 -0.85466703559E+02  0.29446184463E+03  0.30785463880E+03  0.41800000000E+01 0. -1.
         -5    1    3    3    0  502 -0.11030448294E+02  0.36320437642E+02  0.55420299888E+02  0.67303246725E+02  0.41800000000E+01 0. -1.
        -11    1    1    2    0    0 -0.78851837020E+01  0.12080974617E+02 -0.14201418524E+02  0.20243674513E+02  0.00000000000E+00 0. -1.
         11    1    1    2    0    0 -0.83730263495E+01  0.37065291300E+02  0.12933169256E+03  0.13479847955E+03  0.00000000000E+00 0.  1.
</event>
<event>
 7    1  0.2394257E-009  0.1154248E+03  0.7561462E-02  0.1250841E+00
         -1   -1    0    0    0  501 -0.00000000000E+00  0.00000000000E+00  0.26057748640E+02  0.26057748640E+02  0.00000000000E+00 0.  1.
          1   -1    0    0  501    0  0.00000000000E+00 -0.00000000000E+00 -0.65309914150E+03  0.65309914150E+03  0.00000000000E+00 0. -1.
         25    2    1    2    0    0 -0.71370725787E+02  0.14898827453E+01 -0.35338005775E+03  0.38160310618E+03  0.12508982846E+03 0.  0.
          5    1    3    3  502    0 -0.27159494133E+02 -0.44361862503E+02 -0.52484821700E+02  0.74011768491E+02  0.41800000000E+01 0.  1.
         -5    1    3    3    0  502 -0.44211231654E+02  0.45851745248E+02 -0.30089523605E+03  0.30759133769E+03  0.41800000000E+01 0.  1.
        -11    1    1    2    0    0 -0.61523043163E+00  0.34394811496E+02 -0.10895435146E+03  0.11425599446E+03  0.00000000000E+00 0.  1.
         11    1    1    2    0    0  0.71985956219E+02 -0.35884694241E+02 -0.16470698365E+03  0.18329778950E+03  0.00000000000E+00 0. -1.
</event>
<event>
 7    1  0.2394257E-009  0.1012093E+03  0.7561462E-02  0.1277773E+00
         -3   -1    0    0    0  501 -0.00000000000E+00  0.00000000000E+00  0.12024837390E+04  0.12024837390E+04  0.00000000000E+00 0.  1.
          3   -1    0    0  501    0  0.00000000000E+00 -0.00000000000E+00 -0.12670753643E+02  0.12670753643E+02  0.00000000000E+00 0. -1.
         25    2    1    2    0    0  0.23628296046E+02 -0.25341708161E+02  0.89564340457E+03  0.90499999608E+03  0.12508951280E+03 0.  0.
          5    1    3    3  502    0 -0.45445393839E+02 -0.32836227707E+02  0.29256996530E+03  0.29792307508E+03  0.41800000000E+01 0. -1.
         -5    1    3    3    0  502  0.69073689885E+02  0.74945195466E+01  0.60307343926E+03  0.60707692099E+03  0.41800000000E+01 0. -1.
        -11    1    1    2    0    0 -0.44198405551E+02  0.31975806984E+00  0.25733551006E+03  0.26110374573E+03  0.00000000000E+00 0.  1.
         11    1    1    2    0    0  0.20570109504E+02  0.25021950091E+02  0.36834070769E+02  0.49050750869E+02  0.00000000000E+00 0. -1.
</event>
<event>
 7    1  0.2394257E-009  0.8357368E+02  0.7561462E-02  0.1319205E+00
         -2   -1    0    0    0  501 -0.00000000000E+00  0.00000000000E+00  0.73835322622E+02  0.73835322622E+02  0.00000000000E+00 0.  1.
          2   -1    0    0  501    0  0.00000000000E+00 -0.00000000000E+00 -0.18284622020E+03  0.18284622020E+03  0.00000000000E+00 0. -1.
         25    2    1    2    0    0  0.12211998946E+01 -0.15269307911E+02 -0.19860328492E+02  0.12757911287E+03  0.12508938524E+03 0.  0.
          5    1    3    3  502    0  0.36491094183E+02 -0.89096028131E+01 -0.61684180992E+02  0.72342183832E+02  0.41800000000E+01 0. -1.
         -5    1    3    3    0  502 -0.35269894288E+02 -0.63597050981E+01  0.41823852500E+02  0.55236929042E+02  0.41800000000E+01 0. -1.
        -11    1    1    2    0    0  0.33545245773E+02 -0.23680643518E+02 -0.42341764383E+02  0.58982043051E+02  0.00000000000E+00 0.  1.
         11    1    1    2    0    0 -0.34766445667E+02  0.38949951429E+02 -0.46808804699E+02  0.70120386893E+02  0.00000000000E+00 0. -1.
</event>
<event>
 7    1  0.2394257E-009  0.1070839E+03  0.7561462E-02  0.1266067E+00
          2   -1    0    0  501    0  0.00000000000E+00  0.00000000000E+00  0.39946106018E+03  0.39946106018E+03  0.00000000000E+00 0. -1.
         -2   -1    0    0    0  501 -0.00000000000E+00 -0.00000000000E+00 -0.44297824652E+02  0.44297824652E+02  0.00000000000E+00 0.  1.
         25    2    1    2    0    0 -0.72995630855E+02  0.11694979105E+02  0.14491735719E+03  0.20521656770E+03  0.12509062549E+03 0.  0.
          5    1    3    3  502    0 -0.12096822148E+02  0.60043755752E+02  0.93670411295E+02  0.11199644665E+03  0.41800000000E+01 0. -1.
         -5    1    3    3    0  502 -0.60898808707E+02 -0.48348776648E+02  0.51246945891E+02  0.93220121049E+02  0.41800000000E+01 0. -1.
        -11    1    1    2    0    0  0.17297140696E+02 -0.80746011657E+01 -0.18937163232E+01  0.19182711533E+02  0.00000000000E+00 0.  1.
         11    1    1    2    0    0  0.55698490160E+02 -0.36203779392E+01  0.21213959466E+03  0.21935960559E+03  0.00000000000E+00 0. -1.
</event>
<event>
 7    1  0.2394257E-009  0.1037725E+03  0.7561462E-02  0.1272557E+00
          2   -1    0    0  501    0  0.00000000000E+00  0.00000000000E+00  0.68930960473E+03  0.68930960473E+03  0.00000000000E+00 0.  1.
         -2   -1    0    0    0  501 -0.00000000000E+00 -0.00000000000E+00 -0.22535452980E+02  0.22535452980E+02  0.00000000000E+00 0. -1.
         25    2    1    2    0    0 -0.52529361238E+01 -0.41206520086E+02  0.51715965572E+03  0.53369186493E+03  0.12508927434E+03 0.  0.
          5    1    3    3  502    0  0.46825033818E+02  0.85134385472E+01  0.32406154952E+03  0.32756437948E+03  0.41800000000E+01 0. -1.
         -5    1    3    3    0  502 -0.52077969942E+02 -0.49719958633E+02  0.19309810620E+03  0.20612748545E+03  0.41800000000E+01 0. -1.
        -11    1    1    2    0    0  0.16898203036E+02 -0.19517371764E+02  0.84516650729E+02  0.88371609224E+02  0.00000000000E+00 0.  1.
         11    1    1    2    0    0 -0.11645266913E+02  0.60723891850E+02  0.65097845306E+02  0.89781583558E+02  0.00000000000E+00 0. -1.
</event>
<event>
 7    1  0.2394257E-009  0.1074533E+03  0.7561462E-02  0.1265360E+00
          1   -1    0    0  501    0  0.00000000000E+00  0.00000000000E+00  0.83377660745E+03  0.83377660745E+03  0.00000000000E+00 0. -1.
         -1   -1    0    0    0  501 -0.00000000000E+00 -0.00000000000E+00 -0.17979230265E+02  0.17979230265E+02  0.00000000000E+00 0.  1.
         25    2    1    2    0    0  0.52844917746E+02 -0.20086127017E+01  0.51103288985E+03  0.52877478153E+03  0.12510609588E+03 0.  0.
          5    1    3    3  502    0 -0.29596752221E+02 -0.33623049458E+02  0.22261169822E+03  0.22711212601E+03  0.41800000000E+01 0.  1.
         -5    1    3    3    0  502  0.82441669967E+02  0.31614436756E+02  0.28842119163E+03  0.30166265553E+03  0.41800000000E+01 0.  1.
        -11    1    1    2    0    0  0.87563237321E+01 -0.15219630108E+02  0.78131765828E+01  0.19218638720E+02  0.00000000000E+00 0.  1.
         11    1    1    2    0    0 -0.61601241478E+02  0.17228242810E+02  0.29695131076E+03  0.30376241746E+03  0.00000000000E+00 0. -1.
</event>
<event>
 7    1  0.2394257E-009  0.1035148E+03  0.7561462E-02  0.1273074E+00
         -1   -1    0    0    0  501 -0.00000000000E+00  0.00000000000E+00  0.95034951947E+03  0.95034951947E+03  0.00000000000E+00 0.  1.
          1   -1    0    0  501    0  0.00000000000E+00 -0.00000000000E+00 -0.18831956181E+02  0.18831956181E+02  0.00000000000E+00 0. -1.
         25    2    1    2    0    0 -0.52693906396E+02  0.32727413953E+02  0.68340698788E+03  0.69752486543E+03  0.12509234755E+03 0.  0.
          5    1    3    3  502    0  0.14982491518E+01  0.41169823224E+02  0.56979857490E+03  0.57130122305E+03  0.41800000000E+01 0. -1.
         -5    1    3    3    0  502 -0.54192155548E+02 -0.84424092713E+01  0.11360841297E+03  0.12622364238E+03  0.41800000000E+01 0. -1.
        -11    1    1    2    0    0  0.66155206682E+02  0.90060960443E+01  0.14784600493E+03  0.16222226207E+03  0.00000000000E+00 0.  1.
         11    1    1    2    0    0 -0.13461300286E+02 -0.41733509997E+02  0.10026457048E+03  0.10943434815E+03  0.00000000000E+00 0. -1.
</event>
<event>
 7    1  0.2394257E-009  0.1078082E+03  0.7561462E-02  0.1264683E+00
          2   -1    0    0  501    0  0.00000000000E+00  0.00000000000E+00  0.55621395220E+03  0.55621395220E+03  0.00000000000E+00 0. -1.
         -2   -1    0    0    0  501 -0.00000000000E+00 -0.00000000000E+00 -0.21563182567E+02  0.21563182567E+02  0.00000000000E+00 0.  1.
         25    2    1    2    0    0 -0.25675792622E+02  0.12515791160E+02  0.32324683430E+03  0.34778044527E+03  0.12508729302E+03 0.  0.
          5    1    3    3  502    0 -0.33648201808E+01  0.66575821385E+02  0.20825263507E+03  0.21870138185E+03  0.41800000000E+01 0. -1.
         -5    1    3    3    0  502 -0.22310972442E+02 -0.54060030224E+02  0.11499419922E+03  0.12907906342E+03  0.41800000000E+01 0. -1.
        -11    1    1    2    0    0  0.47350079266E+02 -0.35061533610E+02  0.12754422754E+03  0.14049509288E+03  0.00000000000E+00 0.  1.
         11    1    1    2    0    0 -0.21674286644E+02  0.22545742450E+02  0.83859707795E+02  0.89501596609E+02  0.00000000000E+00 0. -1.
</event>
<event>
 7    1  0.2394257E-009  0.8108174E+02  0.7561462E-02  0.1326009E+00
          1   -1    0    0  501    0  0.00000000000E+00  0.00000000000E+00  0.44329212313E+03  0.44329212313E+03  0.00000000000E+00 0. -1.
         -1   -1    0    0    0  501 -0.00000000000E+00 -0.00000000000E+00 -0.43460269017E+02  0.43460269017E+02  0.00000000000E+00 0.  1.
         25    2    1    2    0    0  0.56515951947E+02  0.32750012091E+02  0.10423133811E+03  0.17543782649E+03  0.12509053922E+03 0.  0.
          5    1    3    3  502    0  0.32632109363E+02  0.76209991936E+01 -0.24714425514E+02  0.41847454148E+02  0.41800000000E+01 0. -1.
         -5    1    3    3    0  502  0.23883842585E+02  0.25129012897E+02  0.12894576363E+03  0.13359037235E+03  0.41800000000E+01 0. -1.
        -11    1    1    2    0    0 -0.65360091593E+02 -0.63921688369E+01  0.24420585280E+03  0.25288198816E+03  0.00000000000E+00 0. -1.
         11    1    1    2    0    0  0.88441396456E+01 -0.26357843254E+02  0.51394663201E+02  0.58432577494E+02  0.00000000000E+00 0.  1.
</event>
<event>
 7    1  0.2394257E-009  0.1311867E+03  0.7561462E-02  0.1225705E+00
          1   -1    0    0  501    0  0.00000000000E+00  0.00000000000E+00  0.10646515415E+03  0.10646515415E+03  0.00000000000E+00 0. -1.
         -1   -1    0    0    0  501 -0.00000000000E+00 -0.00000000000E+00 -0.17905345444E+03  0.17905345444E+03  0.00000000000E+00 0.  1.
         25    2    1    2    0    0  0.21067358799E+02  0.78092489489E+02 -0.61989183196E+02  0.16134510592E+03  0.12508922355E+03 0.  0.
          5    1    3    3  502    0 -0.52091126957E+02  0.42265323672E+02 -0.24027584043E+02  0.71376748929E+02  0.41800000000E+01 0. -1.
         -5    1    3    3    0  502  0.73158485756E+02  0.35827165817E+02 -0.37961599152E+02  0.89968356986E+02  0.41800000000E+01 0. -1.
        -11    1    1    2    0    0 -0.40198316020E+02 -0.84373057956E+02 -0.27996811819E+02  0.97563000116E+02  0.00000000000E+00 0.  1.
         11    1    1    2    0    0  0.19130957221E+02  0.62805684664E+01  0.17397694723E+02  0.26610502553E+02  0.00000000000E+00 0. -1.
</event>
<event>
 7    1  0.2394257E-009  0.1651718E+03  0.7561462E-02  0.1182979E+00
          2   -1    0    0  501    0  0.00000000000E+00  0.00000000000E+00  0.57657784752E+03  0.57657784752E+03  0.00000000000E+00 0. -1.
         -2   -1    0    0    0  501 -0.00000000000E+00 -0.00000000000E+00 -0.87875765158E+02  0.87875765158E+02  0.00000000000E+00 0.  1.
         25    2    1    2    0    0  0.70104151705E+02 -0.12548218219E+03  0.55376869098E+02  0.19843041398E+03  0.12509061287E+03 0.  0.
          5    1    3    3  502    0  0.68086405994E+02 -0.34955507231E+02  0.73269755592E+02  0.10603572818E+03  0.41800000000E+01 0. -1.
         -5    1    3    3    0  502  0.20177457113E+01 -0.90526674959E+02 -0.17892886495E+02  0.92394685799E+02  0.41800000000E+01 0. -1.
        -11    1    1    2    0    0 -0.35199763788E+02  0.12313286074E+03  0.26785882899E+03  0.29689910244E+03  0.00000000000E+00 0.  1.
         11    1    1    2    0    0 -0.34904387918E+02  0.23493214484E+01  0.16546638428E+03  0.16912409625E+03  0.00000000000E+00 0. -1.
</event>
<event>
 7    1  0.2394257E-009  0.1717803E+03  0.7561462E-02  0.1176004E+00
         -1   -1    0    0    0  501 -0.00000000000E+00  0.00000000000E+00  0.43279954707E+02  0.43279954707E+02  0.00000000000E+00 0.  1.
          1   -1    0    0  501    0  0.00000000000E+00 -0.00000000000E+00 -0.79135266745E+03  0.79135266745E+03  0.00000000000E+00 0. -1.
         25    2    1    2    0    0  0.10397697844E+03  0.10217967883E+03 -0.32367433694E+03  0.37638360894E+03  0.12509055069E+03 0.  0.
          5    1    3    3  502    0 -0.10525970018E+02  0.56028588093E+02 -0.49296972955E+02  0.75482863426E+02  0.41800000000E+01 0. -1.
         -5    1    3    3    0  502  0.11450294846E+03  0.46151090740E+02 -0.27437736399E+03  0.30090074551E+03  0.41800000000E+01 0. -1.
        -11    1    1    2    0    0 -0.40206725352E+02 -0.89134914781E+02 -0.17467842046E+03  0.20018532507E+03  0.00000000000E+00 0.  1.
         11    1    1    2    0    0 -0.63770253085E+02 -0.13044764051E+02 -0.24971995534E+03  0.25806368815E+03  0.00000000000E+00 0. -1.
</event>
<event>
 7    1  0.2394257E-009  0.1813917E+03  0.7561462E-02  0.1166463E+00
         -3   -1    0    0    0  501 -0.00000000000E+00  0.00000000000E+00  0.11728370202E+04  0.11728370202E+04  0.00000000000E+00 0.  1.
          3   -1    0    0  501    0  0.00000000000E+00 -0.00000000000E+00 -0.34159772656E+02  0.34159772656E+02  0.00000000000E+00 0. -1.
         25    2    1    2    0    0  0.71611756061E+02 -0.13386212078E+03  0.38006054552E+03  0.42794932754E+03  0.12508915898E+03 0.  0.
          5    1    3    3  502    0  0.83066464719E+02 -0.14633101964E+03  0.28249166743E+03  0.32883403023E+03  0.41800000000E+01 0.  1.
         -5    1    3    3    0  502 -0.11454708658E+02  0.12468898858E+02  0.97568878086E+02  0.99115297306E+02  0.41800000000E+01 0.  1.
        -11    1    1    2    0    0  0.21715348865E+02  0.34006701270E+02  0.15722517543E+03  0.16231995532E+03  0.00000000000E+00 0. -1.
         11    1    1    2    0    0 -0.93327104926E+02  0.99855419513E+02  0.60139152660E+03  0.61672750999E+03  0.00000000000E+00 0.  1.
</event>
<event>
 7    1  0.2394257E-009  0.1215307E+03  0.7561462E-02  0.1240593E+00
          4   -1    0    0  501    0  0.00000000000E+00  0.00000000000E+00  0.23869674339E+03  0.23869674339E+03  0.00000000000E+00 0. -1.
         -4   -1    0    0    0  501 -0.00000000000E+00 -0.00000000000E+00 -0.62913358224E+02  0.62913358224E+02  0.00000000000E+00 0.  1.
         25    2    1    2    0    0 -0.56383359093E+02 -0.10766818078E+02  0.86792159097E+02  0.16271089344E+03  0.12508776282E+03 0.  0.
          5    1    3    3  502    0  0.11149575348E+01 -0.60927301233E+02  0.42102163467E+02  0.74185198890E+02  0.41800000000E+01 0. -1.
         -5    1    3    3    0  502 -0.57498316627E+02  0.50160483155E+02  0.44689995630E+02  0.88525694546E+02  0.41800000000E+01 0. -1.
        -11    1    1    2    0    0  0.25783661931E+02  0.49732503504E+02  0.37313712212E+02  0.67308485694E+02  0.00000000000E+00 0.  1.
         11    1    1    2    0    0  0.30599697162E+02 -0.38965685427E+02  0.51677513857E+02  0.71590722483E+02  0.00000000000E+00 0. -1.
</event>
<event>
 7    1  0.2394257E-009  0.2116531E+03  0.7561462E-02  0.1140264E+00
         -1   -1    0    0    0  501 -0.00000000000E+00  0.00000000000E+00  0.12734962119E+03  0.12734962119E+03  0.00000000000E+00 0.  1.
          1   -1    0    0  501    0  0.00000000000E+00 -0.00000000000E+00 -0.45312725620E+03  0.45312725620E+03  0.00000000000E+00 0. -1.
         25    2    1    2    0    0  0.40726890424E+01  0.20733377012E+03 -0.10320335768E+03  0.26325195993E+03  0.12508709902E+03 0.  0.
          5    1    3    3  502    0 -0.26288315851E+02  0.13019391591E+03 -0.27149241280E+01  0.13291491453E+03  0.41800000000E+01 0.  1.
         -5    1    3    3    0  502  0.30361004894E+02  0.77139854204E+02 -0.10048843356E+03  0.13033704540E+03  0.41800000000E+01 0.  1.
        -11    1    1    2    0    0 -0.15212475467E+01 -0.16284657387E+03 -0.21845115195E+03  0.27247426778E+03  0.00000000000E+00 0. -1.
         11    1    1    2    0    0 -0.25514414957E+01 -0.44487196249E+02 -0.41231253838E+01  0.44750649679E+02  0.00000000000E+00 0.  1.
</event>
<event>
 7    1  0.2394257E-009  0.1395491E+03  0.7561462E-02  0.1213937E+00
          1   -1    0    0  501    0  0.00000000000E+00  0.00000000000E+00  0.12490460455E+04  0.12490460455E+04  0.00000000000E+00 0.  1.
         -1   -1    0    0    0  501 -0.00000000000E+00 -0.00000000000E+00 -0.20400112353E+02  0.20400112353E+02  0.00000000000E+00 0. -1.
         25    2    1    2    0    0  0.71481218840E+02  0.86086912472E+02  0.80085362980E+03  0.81825267757E+03  0.12510150617E+03 0.  0.
          5    1    3    3  502    0  0.97839389410E+02  0.88297949799E+02  0.74156822035E+03  0.75319982202E+03  0.41800000000E+01 0. -1.
         -5    1    3    3    0  502 -0.26358170571E+02 -0.22110373271E+01  0.59285409446E+02  0.65052855549E+02  0.41800000000E+01 0. -1.
        -11    1    1    2    0    0 -0.47363771413E+02 -0.83770040130E+02  0.40997795835E+03  0.42112073423E+03  0.00000000000E+00 0.  1.
         11    1    1    2    0    0 -0.24117447426E+02 -0.23168723416E+01  0.17814345020E+02  0.30072746072E+02  0.00000000000E+00 0. -1.
</event>
<event>
 7    1  0.2394257E-009  0.5238709E+02  0.7561462E-02  0.1432876E+00
         -2   -1    0    0    0  501 -0.00000000000E+00  0.00000000000E+00  0.20598575105E+02  0.20598575105E+02  0.00000000000E+00 0. -1.
          2   -1    0    0  501    0  0.00000000000E+00 -0.00000000000E+00 -0.66711943563E+03  0.66711943563E+03  0.00000000000E+00 0.  1.
         25    2    1    2    0    0 -0.19349650877E+02  0.34138793813E+02 -0.44119701266E+03  0.46026344286E+03  0.12509103334E+03 0.  0.
          5    1    3    3  502    0 -0.48175767845E+01  0.17131570981E+02  0.19870213001E+00  0.18281456531E+02  0.41800000000E+01 0. -1.
         -5    1    3    3    0  502 -0.14532074093E+02  0.17007222832E+02 -0.44139571479E+03  0.44198198633E+03  0.41800000000E+01 0. -1.
        -11    1    1    2    0    0  0.33934758026E+02 -0.97302108514E+01 -0.19344332723E+03  0.19663815920E+03  0.00000000000E+00 0.  1.
         11    1    1    2    0    0 -0.14585107148E+02 -0.24408582962E+02 -0.11880520635E+02  0.30816408670E+02  0.00000000000E+00 0. -1.
</event>
<event>
 7    1  0.2394257E-009  0.1370512E+03  0.7561462E-02  0.1217353E+00
         -1   -1    0    0    0  501 -0.00000000000E+00  0.00000000000E+00  0.96908759259E+02  0.96908759259E+02  0.00000000000E+00 0.  1.
          1   -1    0    0  501    0  0.00000000000E+00 -0.00000000000E+00 -0.23060565600E+03  0.23060565600E+03  0.00000000000E+00 0. -1.
         25    2    1    2    0    0  0.35282629077E+02  0.81649792586E+02 -0.16410960953E+02  0.15436451855E+03  0.12509009714E+03 0.  0.
          5    1    3    3  502    0 -0.45843455819E+02  0.37011610078E+02  0.48532655722E+01  0.59266418052E+02  0.41800000000E+01 0.  1.
         -5    1    3    3    0  502  0.81126084897E+02  0.44638182508E+02 -0.21264226525E+02  0.95098100496E+02  0.41800000000E+01 0.  1.
        -11    1    1    2    0    0  0.18156458176E+02 -0.63285286994E+02 -0.86798488648E+02  0.10894338968E+03  0.00000000000E+00 0.  1.
         11    1    1    2    0    0 -0.53439087253E+02 -0.18364505592E+02 -0.30487447143E+02  0.64206507033E+02  0.00000000000E+00 0. -1.
</event>
<event>
 7    1  0.2394257E-009  0.9441109E+02  0.7561462E-02  0.1292508E+00
         -2   -1    0    0    0  501 -0.00000000000E+00  0.00000000000E+00  0.59187238638E+02  0.59187238638E+02  0.00000000000E+00 0.  1.
          2   -1    0    0  501    0  0.00000000000E+00 -0.00000000000E+00 -0.27973572500E+03  0.27973572500E+03  0.00000000000E+00 0. -1.
         25    2    1    2    0    0  0.29291358993E+02 -0.39819564546E+02 -0.19254998415E+03  0.23487764710E+03  0.12509369000E+03 0.  0.
          5    1    3    3  502    0 -0.34446438952E+01 -0.55122769502E+02 -0.20557382659E+02  0.59080146165E+02  0.41800000000E+01 0.  1.
         -5    1    3    3    0  502  0.32736002889E+02  0.15303204955E+02 -0.17199260149E+03  0.17579750093E+03  0.41800000000E+01 0.  1.
        -11    1    1    2    0    0 -0.35024886756E+02  0.63593671820E+02 -0.31864655935E+02  0.79285900926E+02  0.00000000000E+00 0. -1.
         11    1    1    2    0    0  0.57335277626E+01 -0.23774107273E+02  0.38661537168E+01  0.24759415619E+02  0.00000000000E+00 0.  1.
</event>
<event>
 7    1  0.2394257E-009  0.1118712E+03  0.7561462E-02  0.1257143E+00
          3   -1    0    0  501    0  0.00000000000E+00  0.00000000000E+00  0.69519611542E+02  0.69519611542E+02  0.00000000000E+00 0. -1.
         -3   -1    0    0    0  501 -0.00000000000E+00 -0.00000000000E+00 -0.28266704420E+03  0.28266704420E+03  0.00000000000E+00 0.  1.
         25    2    1    2    0    0  0.65207040982E+02  0.58996857799E+02 -0.10722506760E+03  0.18675604066E+03  0.12509203084E+03 0.  0.
          5    1    3    3  502    0 -0.27105920565E+02  0.22438958921E+02 -0.73872872654E+02  0.81932359427E+02  0.41800000000E+01 0.  1.
         -5    1    3    3    0  502  0.92312961547E+02  0.36557898878E+02 -0.33352194943E+02  0.10482368123E+03  0.41800000000E+01 0.  1.
        -11    1    1    2    0    0 -0.21111179826E+02 -0.11194775886E+02 -0.96864461828E+02  0.99768376182E+02  0.00000000000E+00 0.  1.
         11    1    1    2    0    0 -0.44095861156E+02 -0.47802081913E+02 -0.90579032336E+01  0.65662238899E+02  0.00000000000E+00 0. -1.
</event>
<event>
 7    1  0.2394257E-009  0.1464614E+03  0.7561462E-02  0.1204890E+00
          3   -1    0    0  501    0  0.00000000000E+00  0.00000000000E+00  0.58902248889E+02  0.58902248889E+02  0.00000000000E+00 0. -1.
         -3   -1    0    0    0  501 -0.00000000000E+00 -0.00000000000E+00 -0.50093021348E+03  0.50093021348E+03  0.00000000000E+00 0.  1.
         25    2    1    2    0    0 -0.89633958866E+02 -0.86559343949E+02 -0.25037312962E+03  0.30636973392E+03  0.12509573622E+03 0.  0.
          5    1    3    3  502    0 -0.38478406516E+02  0.24602404592E+02 -0.31698227781E+02  0.55750480932E+02  0.41800000000E+01 0. -1.
         -5    1    3    3    0  502 -0.51155552350E+02 -0.11116174854E+03 -0.21867490184E+03  0.25061925299E+03  0.41800000000E+01 0. -1.
        -11    1    1    2    0    0  0.69686592729E+02  0.66155332422E+02 -0.20153250211E+03  0.22326687757E+03  0.00000000000E+00 0.  1.
         11    1    1    2    0    0  0.19947366136E+02  0.20404011527E+02  0.98776671368E+01  0.30195850878E+02  0.00000000000E+00 0. -1.
</event>
<event>
 7    1  0.2394257E-009  0.9679023E+02  0.7561462E-02  0.1287194E+00
         -1   -1    0    0    0  501 -0.00000000000E+00  0.00000000000E+00  0.10371924939E+03  0.10371924939E+03  0.00000000000E+00 0.  1.
          1   -1    0    0  501    0  0.00000000000E+00 -0.00000000000E+00 -0.20527942621E+03  0.20527942621E+03  0.00000000000E+00 0. -1.
         25    2    1    2    0    0 -0.72228869946E+02  0.53986365024E+02 -0.93666400848E+02  0.18042306548E+03  0.12509017006E+03 0.  0.
          5    1    3    3  502    0 -0.12755902931E+02  0.14077015922E+02 -0.10587531240E+03  0.10764724619E+03  0.41800000000E+01 0.  1.
         -5    1    3    3    0  502 -0.59472967015E+02  0.39909349102E+02  0.12208911554E+02  0.72775819285E+02  0.41800000000E+01 0.  1.
        -11    1    1    2    0    0  0.16171160612E+02  0.86396485889E+01  0.30958146701E+02  0.35979950117E+02  0.00000000000E+00 0.  1.
         11    1    1    2    0    0  0.56057709334E+02 -0.62626013612E+02 -0.38851922666E+02  0.92595660004E+02  0.00000000000E+00 0. -1.
</event>
<event>
 7    1  0.2394257E-009  0.1056430E+03  0.7561462E-02  0.1268858E+00
          2   -1    0    0  501    0  0.00000000000E+00  0.00000000000E+00  0.23422092803E+02  0.23422092803E+02  0.00000000000E+00 0.  1.
         -2   -1    0    0    0  501 -0.00000000000E+00 -0.00000000000E+00 -0.84020381852E+03  0.84020381852E+03  0.00000000000E+00 0. -1.
         25    2    1    2    0    0  0.41683990396E+02 -0.59471254019E+02 -0.60412824792E+03  0.62119947623E+03  0.12507383512E+03 0.  0.
          5    1    3    3  502    0 -0.16839422916E+02  0.30488310051E+01 -0.39204807285E+03  0.39244365883E+03  0.41800000000E+01 0.  1.
         -5    1    3    3    0  502  0.58523413312E+02 -0.62520085024E+02 -0.21208017507E+03  0.22875581740E+03  0.41800000000E+01 0.  1.
        -11    1    1    2    0    0 -0.53990433355E+02  0.74842721450E+01 -0.15263441581E+03  0.16207481641E+03  0.00000000000E+00 0. -1.
         11    1    1    2    0    0  0.12306442958E+02  0.51986981874E+02 -0.60019061987E+02  0.80351618680E+02  0.00000000000E+00 0.  1.
</event>
<event>
 7    1  0.2394257E-009  0.1440818E+03  0.7561462E-02  0.1207940E+00
         -2   -1    0    0    0  501 -0.00000000000E+00  0.00000000000E+00  0.11827249763E+03  0.11827249763E+03  0.00000000000E+00 0.  1.
          2   -1    0    0  501    0  0.00000000000E+00 -0.00000000000E+00 -0.21185287628E+03  0.21185287628E+03  0.00000000000E+00 0. -1.
         25    2    1    2    0    0 -0.10077905028E+03 -0.34548456245E+02 -0.94571622340E+02  0.18957590259E+03  0.12508084699E+03 0.  0.
          5    1    3    3  502    0 -0.10608597328E+03 -0.68859803949E+02 -0.87630540828E+02  0.15392365125E+03  0.41800000000E+01 0. -1.
         -5    1    3    3    0  502  0.53069229995E+01  0.34311347704E+02 -0.69410815119E+01  0.35652251339E+02  0.41800000000E+01 0. -1.
        -11    1    1    2    0    0  0.91035570430E+01  0.33765038130E+02  0.28193394080E+02  0.44920151608E+02  0.00000000000E+00 0.  1.
         11    1    1    2    0    0  0.91675493241E+02  0.78341811565E+00 -0.27202150390E+02  0.95629319723E+02  0.00000000000E+00 0. -1.
</event>
<event>
 7    1  0.2394257E-009  0.1097826E+03  0.7561462E-02  0.1260973E+00
         -2   -1    0    0    0  501 -0.00000000000E+00  0.00000000000E+00  0.26722813098E+02  0.26722813098E+02  0.00000000000E+00 0.  1.
          2   -1    0    0  501    0  0.00000000000E+00 -0.00000000000E+00 -0.70791151095E+03  0.70791151095E+03  0.00000000000E+00 0. -1.
         25    2    1    2    0    0 -0.41779560707E+02  0.23362679626E+02 -0.56042290341E+03  0.57620560189E+03  0.12509084095E+03 0.  0.
          5    1    3    3  502    0 -0.30033830205E+02  0.66201782582E+02 -0.19649549116E+03  0.20955347150E+03  0.41800000000E+01 0. -1.
         -5    1    3    3    0  502 -0.11745730503E+02 -0.42839102956E+02 -0.36392741225E+03  0.36665213038E+03  0.41800000000E+01 0. -1.
        -11    1    1    2    0    0  0.11491399123E+02 -0.56256658497E+02 -0.60800999562E+02  0.83627898615E+02  0.00000000000E+00 0.  1.
         11    1    1    2    0    0  0.30288161585E+02  0.32893978871E+02 -0.59964794885E+02  0.74800823550E+02  0.00000000000E+00 0. -1.
</event>
<event>
 7    1  0.2589617E-009  0.1095983E+03  0.7561462E-02  0.1261316E+00
          2   -1    0    0  501    0  0.00000000000E+00  0.00000000000E+00  0.81226196902E+03  0.81226196902E+03  0.00000000000E+00 0.  1.
         -2   -1    0    0    0  501 -0.00000000000E+00 -0.00000000000E+00 -0.20499551259E+02  0.20499551259E+02  0.00000000000E+00 0. -1.
         25    2    1    2    0    0  0.26354761294E+02 -0.62290745114E+02  0.49054990697E+03  0.51074581947E+03  0.12508945006E+03 0.  0.
          5    1    3    3  502    0 -0.87875304042E+01 -0.72649517393E+02  0.13787057877E+03  0.15614397830E+03  0.41800000000E+01 0.  1.
         -5    1    3    3    0  502  0.35142291698E+02  0.10358772279E+02  0.35267932820E+03  0.35460184118E+03  0.41800000000E+01 0.  1.
        -11    1    1    2    0    0 -0.23576216451E+02  0.83944312208E+02  0.27141673314E+03  0.28507810958E+03  0.00000000000E+00 0.  1.
         11    1    1    2    0    0 -0.27785448427E+01 -0.21653567093E+02  0.29795777652E+02  0.36937591220E+02  0.00000000000E+00 0. -1.
</event>
<event>
 7    1  0.2394257E-009  0.1236184E+03  0.7561462E-02  0.1237244E+00
         -2   -1    0    0    0  501 -0.00000000000E+00  0.00000000000E+00  0.13404328733E+02  0.13404328733E+02  0.00000000000E+00 0.  1.
          2   -1    0    0  501    0  0.00000000000E+00 -0.00000000000E+00 -0.11969869739E+04  0.11969869739E+04  0.00000000000E+00 0. -1.
         25    2    1    2    0    0 -0.37371767082E+01 -0.61818882334E+02 -0.61260285729E+03  0.62830407268E+03  0.12509279065E+03 0.  0.
          5    1    3    3  502    0 -0.57980199772E+02 -0.53698126662E+02 -0.27164322345E+03  0.28293586838E+03  0.41800000000E+01 0.  1.
         -5    1    3    3    0  502  0.54243023064E+02 -0.81207556716E+01 -0.34095963385E+03  0.34536820429E+03  0.41800000000E+01 0.  1.
        -11    1    1    2    0    0  0.49186218056E+02  0.30004192691E+02 -0.28010885554E+03  0.28597291232E+03  0.00000000000E+00 0. -1.
         11    1    1    2    0    0 -0.45449041348E+02  0.31814689643E+02 -0.29087093229E+03  0.29611431760E+03  0.00000000000E+00 0.  1.
</event>
<event>
 7    1  0.2394257E-009  0.1107637E+03  0.7561462E-02  0.1259162E+00
          2   -1    0    0  501    0  0.00000000000E+00  0.00000000000E+00  0.25114528347E+04  0.25114528347E+04  0.00000000000E+00 0. -1.
         -2   -1    0    0    0  501 -0.00000000000E+00 -0.00000000000E+00 -0.16839099844E+02  0.16839099844E+02  0.00000000000E+00 0.  1.
         25    2    1    2    0    0  0.76027239123E+02 -0.46476274343E+02  0.22172685482E+04  0.22225808823E+04  0.12508308621E+03 0.  0.
          5    1    3    3  502    0  0.35251337207E+02 -0.72013969870E+01  0.14235480755E+03  0.14689070946E+03  0.41800000000E+01 0. -1.
         -5    1    3    3    0  502  0.40775901915E+02 -0.39274877356E+02  0.20749137406E+04  0.20756901728E+04  0.41800000000E+01 0. -1.
        -11    1    1    2    0    0 -0.54649699222E+02 -0.20395781155E+02  0.12099592774E+03  0.13432271604E+03  0.00000000000E+00 0. -1.
         11    1    1    2    0    0 -0.21377539900E+02  0.66872055498E+02  0.15634925897E+03  0.17138833624E+03  0.00000000000E+00 0.  1.
</event>
<event>
 7    1  0.2394257E-009  0.2769926E+03  0.7561462E-02  0.1097343E+00
          1   -1    0    0  501    0  0.00000000000E+00  0.00000000000E+00  0.79429942314E+03  0.79429942314E+03  0.00000000000E+00 0. -1.
         -1   -1    0    0    0  501 -0.00000000000E+00 -0.00000000000E+00 -0.12124117423E+03  0.12124117423E+03  0.00000000000E+00 0.  1.
         25    2    1    2    0    0  0.26057422796E+03 -0.69550632249E+02  0.18363843482E+03  0.34943814403E+03  0.12509085912E+03 0.  0.
          5    1    3    3  502    0  0.16027152645E+02  0.11331942176E+02  0.60826249566E+02  0.64051444728E+02  0.41800000000E+01 0. -1.
         -5    1    3    3    0  502  0.24454707532E+03 -0.80882574425E+02  0.12281218525E+03  0.28538669930E+03  0.41800000000E+01 0. -1.
        -11    1    1    2    0    0 -0.12162175033E+03  0.16064644918E+01  0.28409054824E+03  0.30903376916E+03  0.00000000000E+00 0.  1.
         11    1    1    2    0    0 -0.13895247763E+03  0.67944167758E+02  0.20532926585E+03  0.25706868418E+03  0.00000000000E+00 0. -1.
</event>
<event>
 7    1  0.2394257E-009  0.7676095E+02  0.7561462E-02  0.1338503E+00
          2   -1    0    0  501    0  0.00000000000E+00  0.00000000000E+00  0.24166363902E+03  0.24166363902E+03  0.00000000000E+00 0. -1.
         -2   -1    0    0    0  501 -0.00000000000E+00 -0.00000000000E+00 -0.60496852820E+02  0.60496852820E+02  0.00000000000E+00 0.  1.
         25    2    1    2    0    0 -0.48298034814E+02 -0.56356229011E+01  0.73359062666E+02  0.15294623341E+03  0.12508612164E+03 0.  0.
          5    1    3    3  502    0 -0.31582450966E+02  0.57895595256E+01 -0.32031972129E+02  0.45546567895E+02  0.41800000000E+01 0. -1.
         -5    1    3    3    0  502 -0.16715583847E+02 -0.11425182427E+02  0.10539103480E+03  0.10739966551E+03  0.41800000000E+01 0. -1.
        -11    1    1    2    0    0 -0.10246829807E+02 -0.30155979096E+02  0.51018597296E+02  0.60143809876E+02  0.00000000000E+00 0.  1.
         11    1    1    2    0    0  0.58544864621E+02  0.35791601997E+02  0.56789126234E+02  0.89070448553E+02  0.00000000000E+00 0. -1.
</event>
<event>
 7    1  0.2394257E-009  0.1328350E+03  0.7561462E-02  0.1223309E+00
          2   -1    0    0  501    0  0.00000000000E+00  0.00000000000E+00  0.12294739077E+04  0.12294739077E+04  0.00000000000E+00 0. -1.
         -2   -1    0    0    0  501 -0.00000000000E+00 -0.00000000000E+00 -0.16571157897E+02  0.16571157897E+02  0.00000000000E+00 0.  1.
         25    2    1    2    0    0  0.84475702972E+02 -0.10371697298E+02  0.82749076799E+03  0.84120867966E+03  0.12508938851E+03 0.  0.
          5    1    3    3  502    0  0.89358857000E+02 -0.50275431959E+02  0.69952583006E+03  0.70701236460E+03  0.41800000000E+01 0. -1.
         -5    1    3    3    0  502 -0.48831540285E+01  0.39903734660E+02  0.12796493794E+03  0.13419631505E+03  0.41800000000E+01 0. -1.
        -11    1    1    2    0    0 -0.16731297661E+02 -0.36570944120E+02  0.10066073678E+03  0.10839720570E+03  0.00000000000E+00 0. -1.
         11    1    1    2    0    0 -0.67744405310E+02  0.46942641418E+02  0.28475124507E+03  0.29643918027E+03  0.00000000000E+00 0.  1.
</event>
<event>
 7    1  0.2394257E-009  0.1221401E+03  0.7561462E-02  0.1239608E+00
         -2   -1    0    0    0  501 -0.00000000000E+00  0.00000000000E+00  0.74733699381E+03  0.74733699381E+03  0.00000000000E+00 0.  1.
          2   -1    0    0  501    0  0.00000000000E+00 -0.00000000000E+00 -0.34675592030E+02  0.34675592030E+02  0.00000000000E+00 0. -1.
         25    2    1    2    0    0 -0.49516194655E+02  0.65198133542E+02  0.59033305666E+03  0.60896878136E+03  0.12508880338E+03 0.  0.
          5    1    3    3  502    0  0.26354021760E+02  0.31654223520E+02  0.38869258609E+03  0.39089119102E+03  0.41800000000E+01 0. -1.
         -5    1    3    3    0  502 -0.75870216415E+02  0.33543910021E+02  0.20164047057E+03  0.21807759035E+03  0.41800000000E+01 0. -1.
        -11    1    1    2    0    0  0.34761462178E+02  0.15300673877E+02  0.56181580959E+02  0.67814747016E+02  0.00000000000E+00 0.  1.
         11    1    1    2    0    0  0.14754732477E+02 -0.80498807419E+02  0.66146764157E+02  0.10522905746E+03  0.00000000000E+00 0. -1.
</event>
<event>
 7    1  0.2394257E-009  0.1399716E+03  0.7561462E-02  0.1213367E+00
         -2   -1    0    0    0  501 -0.00000000000E+00  0.00000000000E+00  0.91612283747E+02  0.91612283747E+02  0.00000000000E+00 0.  1.
          2   -1    0    0  501    0  0.00000000000E+00 -0.00000000000E+00 -0.31493989756E+03  0.31493989756E+03  0.00000000000E+00 0. -1.
         25    2    1    2    0    0  0.10329518701E+03  0.22896435954E+02 -0.21006399318E+03  0.26639828434E+03  0.12508805789E+03 0.  0.
          5    1    3    3  502    0  0.63101736843E+01 -0.34762973164E+02 -0.10476819019E+02  0.37087986355E+02  0.41800000000E+01 0. -1.
         -5    1    3    3    0  502  0.96985013327E+02  0.57659409118E+02 -0.19958717416E+03  0.22931029798E+03  0.41800000000E+01 0. -1.
        -11    1    1    2    0    0  0.10595887796E+02 -0.13525788683E+02  0.14580521864E+02  0.22534671409E+02  0.00000000000E+00 0.  1.
         11    1    1    2    0    0 -0.11389107481E+03 -0.93706472704E+01 -0.27844142497E+02  0.11761922556E+03  0.00000000000E+00 0. -1.
</event>
<event>
 7    1  0.2394257E-009  0.1138569E+03  0.7561462E-02  0.1253590E+00
          4   -1    0    0  501    0  0.00000000000E+00  0.00000000000E+00  0.12514999598E+03  0.12514999598E+03  0.00000000000E+00 0. -1.
         -4   -1    0    0    0  501 -0.00000000000E+00 -0.00000000000E+00 -0.13075731564E+03  0.13075731564E+03  0.00000000000E+00 0.  1.
         25    2    1    2    0    0 -0.27019033912E+02  0.60818384618E+02  0.95762451476E+01  0.14201456470E+03  0.12509007960E+03 0.  0.
          5    1    3    3  502    0 -0.66948854812E+02  0.30550826797E+02  0.39376907311E+02  0.83567430306E+02  0.41800000000E+01 0.  1.
         -5    1    3    3    0  502  0.39929820900E+02  0.30267557821E+02 -0.29800662163E+02  0.58447134395E+02  0.41800000000E+01 0.  1.
        -11    1    1    2    0    0  0.19046957627E+02  0.16982025775E+02  0.15527633211E+02  0.29871109577E+02  0.00000000000E+00 0. -1.
         11    1    1    2    0    0  0.79720762852E+01 -0.77800410393E+02 -0.30711198024E+02  0.84021637342E+02  0.00000000000E+00 0.  1.
</event>
<event>
 7    1  0.2394257E-009  0.8721940E+02  0.7561462E-02  0.1309729E+00
          1   -1    0    0  501    0  0.00000000000E+00  0.00000000000E+00  0.85938969581E+02  0.85938969581E+02  0.00000000000E+00 0. -1.
         -1   -1    0    0    0  501 -0.00000000000E+00 -0.00000000000E+00 -0.28675640635E+03  0.28675640635E+03  0.00000000000E+00 0.  1.
         25    2    1    2    0    0  0.27782206277E+02  0.48965849328E+01 -0.23911524596E+03  0.27132961452E+03  0.12509129200E+03 0.  0.
          5    1    3    3  502    0  0.23435710679E+02 -0.58674516609E+02 -0.13644014224E+03  0.15041714081E+03  0.41800000000E+01 0. -1.
         -5    1    3    3    0  502  0.43464955979E+01  0.63571101542E+02 -0.10267510372E+03  0.12091247371E+03  0.41800000000E+01 0. -1.
        -11    1    1    2    0    0  0.70007622821E+01 -0.98961200566E+01 -0.25666099602E+02  0.28384723594E+02  0.00000000000E+00 0.  1.
         11    1    1    2    0    0 -0.34782968559E+02  0.49995351238E+01  0.63963908792E+02  0.72981037819E+02  0.00000000000E+00 0. -1.
</event>
<event>
 7    1  0.3131905E-009  0.1627353E+03  0.7561462E-02  0.1185643E+00
         -2   -1    0    0    0  501 -0.00000000000E+00  0.00000000000E+00  0.22019231098E+02  0.22019231098E+02  0.00000000000E+00 0.  1.
          2   -1    0    0  501    0  0.00000000000E+00 -0.00000000000E+00 -0.14319410530E+04  0.14319410530E+04  0.00000000000E+00 0. -1.
         25    2    1    2    0    0  0.38148571343E+01 -0.13698109577E+03 -0.86184747740E+03  0.88159360929E+03  0.12509134227E+03 0.  0.
          5    1    3    3  502    0 -0.39511123360E+02 -0.39304315769E+02 -0.12368469235E+03  0.13572521368E+03  0.41800000000E+01 0. -1.
         -5    1    3    3    0  502  0.43325980494E+02 -0.97676780000E+02 -0.73816278505E+03  0.74586839561E+03  0.41800000000E+01 0. -1.
        -11    1    1    2    0    0  0.41651487195E+02  0.74824201269E+02 -0.33604785448E+03  0.34678764105E+03  0.00000000000E+00 0. -1.
         11    1    1    2    0    0 -0.45466344329E+02  0.62156894499E+02 -0.21202648998E+03  0.22557903372E+03  0.00000000000E+00 0.  1.
</event>
<event>
 7    1  0.2394257E-009  0.7616365E+02  0.7561462E-02  0.1340305E+00
          1   -1    0    0  501    0  0.00000000000E+00  0.00000000000E+00  0.20432615417E+03  0.20432615417E+03  0.00000000000E+00 0. -1.
         -1   -1    0    0    0  501 -0.00000000000E+00 -0.00000000000E+00 -0.93518040548E+02  0.93518040548E+02  0.00000000000E+00 0.  1.
         25    2    1    2    0    0  0.66112232880E+02 -0.16867608620E+02  0.39705511364E+01  0.14255085854E+03  0.12509851492E+03 0.  0.
          5    1    3    3  502    0  0.49999536028E+02 -0.17458094531E+02  0.62308640599E+02  0.81881486069E+02  0.41800000000E+01 0. -1.
         -5    1    3    3    0  502  0.16112696852E+02  0.59048591098E+00 -0.58338089462E+02  0.60669372467E+02  0.41800000000E+01 0. -1.
        -11    1    1    2    0    0 -0.62239225910E+02 -0.29933963268E+01  0.11706863335E+03  0.13261880175E+03  0.00000000000E+00 0. -1.
         11    1    1    2    0    0 -0.38730069699E+01  0.19861004946E+02 -0.10231070867E+02  0.22674534429E+02  0.00000000000E+00 0.  1.
</event>
<event>
 7    1  0.2394257E-009  0.8963284E+02  0.7561462E-02  0.1303743E+00
          1   -1    0    0  501    0  0.00000000000E+00  0.00000000000E+00  0.54745412341E+02  0.54745412341E+02  0.00000000000E+00 0. -1.
         -1   -1    0    0    0  501 -0.00000000000E+00 -0.00000000000E+00 -0.22581074779E+03  0.22581074779E+03  0.00000000000E+00 0.  1.
         25    2    1    2    0    0  0.56239173417E+01  0.68461491947E+01 -0.13588886459E+03  0.18490767056E+03  0.12508622989E+03 0.  0.
          5    1    3    3  502    0 -0.72197394688E+01  0.61102123330E+02 -0.10297061209E+03  0.12002505350E+03  0.41800000000E+01 0. -1.
         -5    1    3    3    0  502  0.12843656810E+02 -0.54255974135E+02 -0.32918252506E+02  0.64882617069E+02  0.41800000000E+01 0. -1.
        -11    1    1    2    0    0 -0.23870673256E+02  0.18677651317E+02 -0.51894244984E+02  0.60097224253E+02  0.00000000000E+00 0.  1.
         11    1    1    2    0    0  0.18246755915E+02 -0.25523800512E+02  0.16717774123E+02  0.35551265316E+02  0.00000000000E+00 0. -1.
</event>
<event>
 7    1  0.2394257E-009  0.1060900E+03  0.7561462E-02  0.1267987E+00
         -2   -1    0    0    0  501 -0.00000000000E+00  0.00000000000E+00  0.51707523659E+02  0.51707523659E+02  0.00000000000E+00 0.  1.
          2   -1    0    0  501    0  0.00000000000E+00 -0.00000000000E+00 -0.41161273764E+03  0.41161273764E+03  0.00000000000E+00 0. -1.
         25    2    1    2    0    0 -0.41342617321E+02 -0.67356666275E+02 -0.14496107485E+03  0.20713982983E+03  0.12508822238E+03 0.  0.
          5    1    3    3  502    0  0.29731872554E+02 -0.12988439649E+02  0.43659834177E+01  0.33003303188E+02  0.41800000000E+01 0. -1.
         -5    1    3    3    0  502 -0.71074489876E+02 -0.54368226626E+02 -0.14932705827E+03  0.17413652664E+03  0.41800000000E+01 0. -1.
        -11    1    1    2    0    0  0.31382233170E+02  0.11935262647E+02 -0.19275431148E+03  0.19565663711E+03  0.00000000000E+00 0. -1.
         11    1    1    2    0    0  0.99603841520E+01  0.55421403628E+02 -0.22189827647E+02  0.60523794359E+02  0.00000000000E+00 0.  1.
</event>
<event>
 7    1  0.2394257E-009  0.1758987E+03  0.7561462E-02  0.1171832E+00
          2   -1    0    0  501    0  0.00000000000E+00  0.00000000000E+00  0.45392100212E+03  0.45392100212E+03  0.00000000000E+00 0. -1.
         -2   -1    0    0    0  501 -0.00000000000E+00 -0.00000000000E+00 -0.82206921565E+02  0.82206921565E+02  0.00000000000E+00 0.  1.
         25    2    1    2    0    0  0.15118428829E+03 -0.63897061774E+01  0.11821251271E+03  0.22917009292E+03  0.12508883225E+03 0.  0.
          5    1    3    3  502    0  0.12513341679E+02 -0.38018050853E+02 -0.55010606593E+01  0.40616375749E+02  0.41800000000E+01 0. -1.
         -5    1    3    3    0  502  0.13867094662E+03  0.31628344675E+02  0.12371357337E+03  0.18855371717E+03  0.41800000000E+01 0. -1.
        -11    1    1    2    0    0 -0.41649119914E+02 -0.32708661947E+02  0.11126221886E+03  0.12322251053E+03  0.00000000000E+00 0. -1.
         11    1    1    2    0    0 -0.10953516838E+03  0.39098368125E+02  0.14223934898E+03  0.18373532023E+03  0.00000000000E+00 0.  1.
</event>
<event>
 7    1  0.2394257E-009  0.8463405E+02  0.7561462E-02  0.1316392E+00
          1   -1    0    0  501    0  0.00000000000E+00  0.00000000000E+00  0.15637038284E+02  0.15637038284E+02  0.00000000000E+00 0. -1.
         -1   -1    0    0    0  501 -0.00000000000E+00 -0.00000000000E+00 -0.87655584463E+03  0.87655584463E+03  0.00000000000E+00 0.  1.
         25    2    1    2    0    0 -0.17733155120E+02 -0.27959367287E+02 -0.61334866207E+03  0.62684933840E+03  0.12508925127E+03 0.  0.
          5    1    3    3  502    0 -0.37515609420E+02  0.14296246458E+02 -0.65066810786E+02  0.76570006391E+02  0.41800000000E+01 0. -1.
         -5    1    3    3    0  502  0.19782454300E+02 -0.42255613744E+02 -0.54828185128E+03  0.55027933201E+03  0.41800000000E+01 0. -1.
        -11    1    1    2    0    0  0.22032210364E+02 -0.22457284161E+02 -0.36012399805E+02  0.47818833582E+02  0.00000000000E+00 0. -1.
         11    1    1    2    0    0 -0.42990552446E+01  0.50416651447E+02 -0.21155774448E+03  0.21752471094E+03  0.00000000000E+00 0.  1.
</event>
<event>
 7    1  0.2394257E-009  0.1036163E+03  0.7561462E-02  0.1272870E+00
          1   -1    0    0  501    0  0.00000000000E+00  0.00000000000E+00  0.58207330611E+03  0.58207330611E+03  0.00000000000E+00 0. -1.
         -1   -1    0    0    0  501 -0.00000000000E+00 -0.00000000000E+00 -0.32169930824E+02  0.32169930824E+02  0.00000000000E+00 0.  1.
         25    2    1    2    0    0 -0.13224664074E+02 -0.52064828578E+02  0.44509676506E+03  0.46545132354E+03  0.12509263050E+03 0.  0.
          5    1    3    3  502    0  0.19297892016E+02 -0.64154171755E+02  0.11235184428E+03  0.13087618463E+03  0.41800000000E+01 0.  1.
         -5    1    3    3    0  502 -0.32522556090E+02  0.12089343177E+02  0.33274492078E+03  0.33457513892E+03  0.41800000000E+01 0.  1.
        -11    1    1    2    0    0  0.34468439941E+02 -0.12905717290E+02  0.43396774949E+02  0.56902644637E+02  0.00000000000E+00 0. -1.
         11    1    1    2    0    0 -0.21243775868E+02  0.64970545868E+02  0.61409835273E+02  0.91889268752E+02  0.00000000000E+00 0.  1.
</event>
<event>
 7    1  0.2394257E-009  0.1472894E+03  0.7561462E-02  0.1203844E+00
          1   -1    0    0  501    0  0.00000000000E+00  0.00000000000E+00  0.61538967993E+03  0.61538967993E+03  0.00000000000E+00 0. -1.
         -1   -1    0    0    0  501 -0.00000000000E+00 -0.00000000000E+00 -0.45335691666E+02  0.45335691666E+02  0.00000000000E+00 0.  1.
         25    2    1    2    0    0  0.95598408309E+02  0.41096132997E+02  0.20348389960E+03  0.26053481753E+03  0.12507895878E+03 0.  0.
          5    1    3    3  502    0  0.11527046239E+03  0.64227645614E+02  0.16316032240E+03  0.20988385637E+03  0.41800000000E+01 0.  1.
         -5    1    3    3    0  502 -0.19672054081E+02 -0.23131512617E+02  0.40323577204E+02  0.50650961158E+02  0.41800000000E+01 0.  1.
        -11    1    1    2    0    0 -0.71932405134E+02  0.12780733956E+02  0.82977836117E+02  0.11055740299E+03  0.00000000000E+00 0.  1.
         11    1    1    2    0    0 -0.23666003175E+02 -0.53876866953E+02  0.28359225255E+03  0.28963315108E+03  0.00000000000E+00 0. -1.
</event>
<event>
 7    1  0.2394257E-009  0.1282732E+03  0.7561462E-02  0.1230041E+00
          1   -1    0    0  501    0  0.00000000000E+00  0.00000000000E+00  0.32721114233E+03  0.32721114233E+03  0.00000000000E+00 0. -1.
         -1   -1    0    0    0  501 -0.00000000000E+00 -0.00000000000E+00 -0.58423750402E+02  0.58423750402E+02  0.00000000000E+00 0.  1.
         25    2    1    2    0    0 -0.84129741160E+02 -0.12834793326E+02  0.16411577307E+03  0.22321240214E+03  0.12508894529E+03 0.  0.
          5    1    3    3  502    0 -0.86929978753E+02 -0.55547343697E+02  0.13984505263E+03  0.17382876558E+03  0.41800000000E+01 0.  1.
         -5    1    3    3    0  502  0.28002375925E+01  0.42712550371E+02  0.24270720441E+02  0.49383636566E+02  0.41800000000E+01 0.  1.
        -11    1    1    2    0    0  0.10471044109E+02  0.32424377407E+02  0.14419884573E+01  0.34103699882E+02  0.00000000000E+00 0.  1.
         11    1    1    2    0    0  0.73658697051E+02 -0.19589584081E+02  0.10322963040E+03  0.12831879071E+03  0.00000000000E+00 0. -1.
</event>
<event>
 7    1  0.2394257E-009  0.1222567E+03  0.7561462E-02  0.1239420E+00
         -1   -1    0    0    0  501 -0.00000000000E+00  0.00000000000E+00  0.88136200269E+02  0.88136200269E+02  0.00000000000E+00 0.  1.
          1   -1    0    0  501    0  0.00000000000E+00 -0.00000000000E+00 -0.22773684118E+03  0.22773684118E+03  0.00000000000E+00 0. -1.
         25    2    1    2    0    0 -0.69451398149E+02  0.13951680937E+02 -0.13930889149E+03  0.20017660998E+03  0.12508222028E+03 0.  0.
          5    1    3    3  502    0  0.20879192429E+02  0.31107256037E+02 -0.59863435401E+01  0.38169500437E+02  0.41800000000E+01 0.  1.
         -5    1    3    3    0  502 -0.90330590578E+02 -0.17155575100E+02 -0.13332254795E+03  0.16200710955E+03  0.41800000000E+01 0.  1.
        -11    1    1    2    0    0  0.57872407675E+02 -0.50269761762E+02  0.66709920088E+01  0.76946518128E+02  0.00000000000E+00 0.  1.
         11    1    1    2    0    0  0.11578990475E+02  0.36318080825E+02 -0.69627414227E+01  0.38749913333E+02  0.00000000000E+00 0. -1.
</event>
<event>
 7    1  0.2394257E-009  0.8408007E+02  0.7561462E-02  0.1317856E+00
         -3   -1    0    0    0  501 -0.00000000000E+00  0.00000000000E+00  0.23917260970E+03  0.23917260970E+03  0.00000000000E+00 0.  1.
          3   -1    0    0  501    0  0.00000000000E+00 -0.00000000000E+00 -0.12582926429E+03  0.12582926429E+03  0.00000000000E+00 0. -1.
         25    2    1    2    0    0 -0.13422058487E+02  0.29485545761E+02 -0.77372220872E+02  0.15061433554E+03  0.12509463795E+03 0.  0.
          5    1    3    3  502    0 -0.43729817031E+02  0.36026687739E+02 -0.97903124379E+02  0.11319325638E+03  0.41800000000E+01 0. -1.
         -5    1    3    3    0  502  0.30307758544E+02 -0.65411419784E+01  0.20530903506E+02  0.37421079155E+02  0.41800000000E+01 0. -1.
        -11    1    1    2    0    0  0.30325935962E+02 -0.46862371552E+02  0.17892540813E+03  0.18743010947E+03  0.00000000000E+00 0.  1.
         11    1    1    2    0    0 -0.16903877476E+02  0.17376825791E+02  0.11790158142E+02  0.26957428982E+02  0.00000000000E+00 0. -1.
</event>
<event>
 7    1  0.2394257E-009  0.9531921E+02  0.7561462E-02  0.1290459E+00
         -1   -1    0    0    0  501 -0.00000000000E+00  0.00000000000E+00  0.39241483077E+03  0.39241483077E+03  0.00000000000E+00 0.  1.
          1   -1    0    0  501    0  0.00000000000E+00 -0.00000000000E+00 -0.34083861842E+02  0.34083861842E+02  0.00000000000E+00 0. -1.
         25    2    1    2    0    0 -0.71119335707E+01 -0.43573702953E+02  0.22102243138E+03  0.25777483875E+03  0.12509078756E+03 0.  0.
          5    1    3    3  502    0 -0.44962292482E+01 -0.70690232681E+02  0.55798090600E+02  0.90267515688E+02  0.41800000000E+01 0. -1.
         -5    1    3    3    0  502 -0.26157043225E+01  0.27116529728E+02  0.16522434078E+03  0.16750732306E+03  0.41800000000E+01 0. -1.
        -11    1    1    2    0    0  0.23399711522E+02 -0.17303446654E+02  0.19232236009E+02  0.34883157359E+02  0.00000000000E+00 0. -1.
         11    1    1    2    0    0 -0.16287777951E+02  0.60877149607E+02  0.11807630153E+03  0.13384069650E+03  0.00000000000E+00 0.  1.
</event>
<event>
 7    1  0.2394257E-009  0.1073234E+03  0.7561462E-02  0.1265608E+00
         -3   -1    0    0    0  501 -0.00000000000E+00  0.00000000000E+00  0.76184051028E+02  0.76184051028E+02  0.00000000000E+00 0.  1.
          3   -1    0    0  501    0  0.00000000000E+00 -0.00000000000E+00 -0.23762879179E+03  0.23762879179E+03  0.00000000000E+00 0. -1.
         25    2    1    2    0    0  0.16127571067E+02  0.80452841028E+02 -0.10310334614E+03  0.18168654854E+03  0.12508774423E+03 0.  0.
          5    1    3    3  502    0  0.90848669717E+01 -0.19337697451E+02  0.15310697827E+02  0.26615244101E+02  0.41800000000E+01 0. -1.
         -5    1    3    3    0  502  0.70427040956E+01  0.99790538479E+02 -0.11841404397E+03  0.15507130444E+03  0.41800000000E+01 0. -1.
        -11    1    1    2    0    0 -0.29716450763E+02 -0.38394309606E+02  0.11107619004E+02  0.49805317548E+02  0.00000000000E+00 0.  1.
         11    1    1    2    0    0  0.13588879696E+02 -0.42058531422E+02 -0.69449013624E+02  0.82320976732E+02  0.00000000000E+00 0. -1.
</event>
<event>
 7    1  0.2394257E-009  0.1445840E+03  0.7561462E-02  0.1207291E+00
          1   -1    0    0  501    0  0.00000000000E+00  0.00000000000E+00  0.86446471775E+02  0.86446471775E+02  0.00000000000E+00 0. -1.
         -1   -1    0    0    0  501 -0.00000000000E+00 -0.00000000000E+00 -0.24499929747E+03  0.24499929747E+03  0.00000000000E+00 0.  1.
         25    2    1    2    0    0  0.87118575379E+02  0.37762970792E+02 -0.91907589236E+02  0.18196155120E+03  0.12508922023E+03 0.  0.
          5    1    3    3  502    0 -0.14081054048E+02  0.51423356741E+02 -0.43185110012E+02  0.68739099706E+02  0.41800000000E+01 0.  1.
         -5    1    3    3    0  502  0.10119962943E+03 -0.13660385949E+02 -0.48722479224E+02  0.11322245149E+03  0.41800000000E+01 0.  1.
        -11    1    1    2    0    0 -0.57055462242E+02  0.26219618519E+02 -0.26198387390E+02  0.68037854675E+02  0.00000000000E+00 0.  1.
         11    1    1    2    0    0 -0.30063113138E+02 -0.63982589311E+02 -0.40446849068E+02  0.81446363369E+02  0.00000000000E+00 0. -1.
</event>
<event>
 7    1  0.2394257E-009  0.1056353E+03  0.7561462E-02  0.1268873E+00
         -1   -1    0    0    0  501 -0.00000000000E+00  0.00000000000E+00  0.38065673005E+03  0.38065673005E+03  0.00000000000E+00 0.  1.
          1   -1    0    0  501    0  0.00000000000E+00 -0.00000000000E+00 -0.33434344646E+02  0.33434344646E+02  0.00000000000E+00 0. -1.
         25    2    1    2    0    0 -0.18124485343E+02 -0.61246259130E+01  0.18313314031E+03  0.22260005111E+03  0.12508807961E+03 0.  0.
          5    1    3    3  502    0 -0.68951856596E+02  0.12829284289E+02  0.83925326518E+02  0.10945264681E+03  0.41800000000E+01 0.  1.
         -5    1    3    3    0  502  0.50827371254E+02 -0.18953910202E+02  0.99207813795E+02  0.11314740429E+03  0.41800000000E+01 0.  1.
        -11    1    1    2    0    0  0.45131509153E+02  0.26891271482E+02  0.14064237828E+03  0.15013418054E+03  0.00000000000E+00 0.  1.
         11    1    1    2    0    0 -0.27007023810E+02 -0.20766645569E+02  0.23446866820E+02  0.41356843049E+02  0.00000000000E+00 0. -1.
</event>
<event>
 7    1  0.2394257E-009  0.8417085E+02  0.7561462E-02  0.1317615E+00
         -2   -1    0    0    0  501 -0.00000000000E+00  0.00000000000E+00  0.27155137405E+02  0.27155137405E+02  0.00000000000E+00 0.  1.
          2   -1    0    0  501    0  0.00000000000E+00 -0.00000000000E+00 -0.45649486084E+03  0.45649486084E+03  0.00000000000E+00 0. -1.
         25    2    1    2    0    0  0.10206258459E+02 -0.13059412220E+02 -0.28951271968E+03  0.31581311894E+03  0.12508235399E+03 0.  0.
          5    1    3    3  502    0 -0.50357484118E+02 -0.35050822088E+02 -0.13463931751E+03  0.14801910200E+03  0.41800000000E+01 0. -1.
         -5    1    3    3    0  502  0.60563742577E+02  0.21991409868E+02 -0.15487340217E+03  0.16779401694E+03  0.41800000000E+01 0. -1.
        -11    1    1    2    0    0 -0.20080557990E+02  0.21403440500E+02 -0.14907847901E+03  0.15193988607E+03  0.00000000000E+00 0. -1.
         11    1    1    2    0    0  0.98742995319E+01 -0.83440282799E+01  0.92514752623E+01  0.15896993229E+02  0.00000000000E+00 0.  1.
</event>
<event>
 7    1  0.2394257E-009  0.6476617E+02  0.7561462E-02  0.1378853E+00
         -4   -1    0    0    0  501 -0.00000000000E+00  0.00000000000E+00  0.18365648478E+03  0.18365648478E+03  0.00000000000E+00 0.  1.
          4   -1    0    0  501    0  0.00000000000E+00 -0.00000000000E+00 -0.67247634375E+02  0.67247634375E+02  0.00000000000E+00 0. -1.
         25    2    1    2    0    0 -0.19779702758E+02 -0.66081583914E+01  0.83550313243E+02  0.15186115275E+03  0.12508497301E+03 0.  0.
          5    1    3    3  502    0 -0.50104985460E+02  0.24540205588E+01  0.10288355751E+03  0.11453833678E+03  0.41800000000E+01 0. -1.
         -5    1    3    3    0  502  0.30325282703E+02 -0.90621789502E+01 -0.19333244270E+02  0.37322815975E+02  0.41800000000E+01 0. -1.
        -11    1    1    2    0    0 -0.13076963256E+02  0.60455082949E+01  0.56662811939E+02  0.58465625759E+02  0.00000000000E+00 0.  1.
         11    1    1    2    0    0  0.32856666013E+02  0.56265009648E+00 -0.23804274774E+02  0.40577340649E+02  0.00000000000E+00 0. -1.
</event>
<event>
 7    1  0.2394257E-009  0.1386378E+03  0.7561462E-02  0.1215174E+00
         -2   -1    0    0    0  501 -0.00000000000E+00  0.00000000000E+00  0.18283651359E+02  0.18283651359E+02  0.00000000000E+00 0.  1.
          2   -1    0    0  501    0  0.00000000000E+00 -0.00000000000E+00 -0.11298805760E+04  0.11298805760E+04  0.00000000000E+00 0. -1.
         25    2    1    2    0    0  0.65786274478E+02 -0.60915061256E+02 -0.49717491225E+03  0.52045067850E+03  0.12509011462E+03 0.  0.
          5    1    3    3  502    0  0.73966321610E+01  0.36754238772E+02 -0.16647882153E+03  0.17069931064E+03  0.41800000000E+01 0. -1.
         -5    1    3    3    0  502  0.58389642317E+02 -0.97669300027E+02 -0.33069609073E+03  0.34975136786E+03  0.41800000000E+01 0. -1.
        -11    1    1    2    0    0 -0.81081271906E+02  0.22213602898E+02 -0.46808557281E+03  0.47557514682E+03  0.00000000000E+00 0.  1.
         11    1    1    2    0    0  0.15294997428E+02  0.38701458357E+02 -0.14633643956E+03  0.15213840201E+03  0.00000000000E+00 0. -1.
</event>
<event>
 7    1  0.2394257E-009  0.8491058E+02  0.7561462E-02  0.1315667E+00
          2   -1    0    0  501    0  0.00000000000E+00  0.00000000000E+00  0.61568645872E+03  0.61568645872E+03  0.00000000000E+00 0. -1.
         -2   -1    0    0    0  501 -0.00000000000E+00 -0.00000000000E+00 -0.23066991598E+02  0.23066991598E+02  0.00000000000E+00 0.  1.
         25    2    1    2    0    0  0.66906209161E+01 -0.43540264113E+02  0.42655161390E+03  0.44669210928E+03  0.12508813759E+03 0.  0.
          5    1    3    3  502    0  0.48332589690E+02 -0.11337753253E+02  0.68135276509E+02  0.84406588486E+02  0.41800000000E+01 0. -1.
         -5    1    3    3    0  502 -0.41641968774E+02 -0.32202510860E+02  0.35841633739E+03  0.36228552079E+03  0.41800000000E+01 0. -1.
        -11    1    1    2    0    0  0.14529767069E+02 -0.40531869053E+01 -0.27947011864E+01  0.15341212791E+02  0.00000000000E+00 0.  1.
         11    1    1    2    0    0 -0.21220387985E+02  0.47593451018E+02  0.16886255441E+03  0.17672012824E+03  0.00000000000E+00 0. -1.
</event>
<event>
 7    1  0.2394257E-009  0.1391248E+03  0.7561462E-02  0.1214512E+00
         -2   -1    0    0    0  501 -0.00000000000E+00  0.00000000000E+00  0.11954042411E+02  0.11954042411E+02  0.00000000000E+00 0.  1.
          2   -1    0    0  501    0  0.00000000000E+00 -0.00000000000E+00 -0.20214033843E+04  0.20214033843E+04  0.00000000000E+00 0. -1.
         25    2    1    2    0    0 -0.90052333955E+02 -0.48466410650E+02 -0.13328872409E+04  0.13426451147E+04  0.12509632782E+03 0.  0.
          5    1    3    3  502    0  0.18782403878E+02 -0.24832146435E+02 -0.10213671481E+03  0.10685876241E+03  0.41800000000E+01 0.  1.
         -5    1    3    3    0  502 -0.10883473783E+03 -0.23634264215E+02 -0.12307505261E+04  0.12357863523E+04  0.41800000000E+01 0.  1.
        -11    1    1    2    0    0  0.10181065963E+03  0.18878260755E+02 -0.57590895419E+03  0.58514350604E+03  0.00000000000E+00 0. -1.
         11    1    1    2    0    0 -0.11758325670E+02  0.29588149895E+02 -0.10065314685E+03  0.10556880603E+03  0.00000000000E+00 0.  1.
</event>
<event>
 7    1  0.2532806E-009  0.8281068E+02  0.7561462E-02  0.1321259E+00
          1   -1    0    0  501    0  0.00000000000E+00  0.00000000000E+00  0.20749718108E+03  0.20749718108E+03  0.00000000000E+00 0. -1.
         -1   -1    0    0    0  501 -0.00000000000E+00 -0.00000000000E+00 -0.88676818029E+02  0.88676818029E+02  0.00000000000E+00 0.  1.
         25    2    1    2    0    0 -0.47646955050E+02 -0.54693495508E+02  0.26863851822E+02  0.14708029894E+03  0.12509731022E+03 0.  0.
          5    1    3    3  502    0 -0.13101748933E+02 -0.14427547302E+02  0.73601330942E+02  0.76252463978E+02  0.41800000000E+01 0.  1.
         -5    1    3    3    0  502 -0.34545206117E+02 -0.40265948206E+02 -0.46737479121E+02  0.70827834960E+02  0.41800000000E+01 0.  1.
        -11    1    1    2    0    0  0.35909917503E+02 -0.63082755233E+00 -0.55802488550E+01  0.36346379404E+02  0.00000000000E+00 0.  1.
         11    1    1    2    0    0  0.11737037547E+02  0.55324323060E+02  0.97536760085E+02  0.11274732077E+03  0.00000000000E+00 0. -1.
</event>
<event>
 7    1  0.2394257E-009  0.1667108E+03  0.7561462E-02  0.1181322E+00
          2   -1    0    0  501    0  0.00000000000E+00  0.00000000000E+00  0.50111631275E+03  0.50111631275E+03  0.00000000000E+00 0. -1.
         -2   -1    0    0    0  501 -0.00000000000E+00 -0.00000000000E+00 -0.60928637017E+02  0.60928637017E+02  0.00000000000E+00 0.  1.
         25    2    1    2    0    0  0.11420274384E+03 -0.67266048249E+02  0.29034357086E+03  0.34280371769E+03  0.12509201322E+03 0.  0.
          5    1    3    3  502    0  0.69968868536E+02 -0.10343183617E+03  0.19698780080E+03  0.23327120131E+03  0.41800000000E+01 0. -1.
         -5    1    3    3    0  502  0.44233875306E+02  0.36165787918E+02  0.93355770064E+02  0.10953251638E+03  0.41800000000E+01 0. -1.
        -11    1    1    2    0    0 -0.49184854752E+02 -0.10014553246E+02  0.86554801724E+02  0.10005585897E+03  0.00000000000E+00 0. -1.
         11    1    1    2    0    0 -0.65017889090E+02  0.77280601494E+02  0.63289303147E+02  0.11918537310E+03  0.00000000000E+00 0.  1.
</event>
<event>
 7    1  0.2394257E-009  0.1370608E+03  0.7561462E-02  0.1217339E+00
          2   -1    0    0  501    0  0.00000000000E+00  0.00000000000E+00  0.85371210689E+03  0.85371210689E+03  0.00000000000E+00 0. -1.
         -2   -1    0    0    0  501 -0.00000000000E+00 -0.00000000000E+00 -0.33916004373E+02  0.33916004373E+02  0.00000000000E+00 0.  1.
         25    2    1    2    0    0 -0.63130366232E+02  0.82952623072E+02  0.64111177257E+03  0.66146635234E+03  0.12508736762E+03 0.  0.
          5    1    3    3  502    0 -0.11529981597E+02  0.10178419153E+03  0.33146401992E+03  0.34695652613E+03  0.41800000000E+01 0.  1.
         -5    1    3    3    0  502 -0.51600384635E+02 -0.18831568458E+02  0.30964775265E+03  0.31450982621E+03  0.41800000000E+01 0.  1.
        -11    1    1    2    0    0  0.53644276005E+02 -0.89945716934E+02  0.18515195746E+03  0.21271856453E+03  0.00000000000E+00 0. -1.
         11    1    1    2    0    0  0.94860902271E+01  0.69930938626E+01 -0.64676275210E+01  0.13443194387E+02  0.00000000000E+00 0.  1.
</event>
<event>
 7    1  0.2394257E-009  0.7484602E+02  0.7561462E-02  0.1344349E+00
         -1   -1    0    0    0  501 -0.00000000000E+00  0.00000000000E+00  0.95096268570E+02  0.95096268570E+02  0.00000000000E+00 0. -1.
          1   -1    0    0  501    0  0.00000000000E+00 -0.00000000000E+00 -0.12610659693E+03  0.12610659693E+03  0.00000000000E+00 0.  1.
         25    2    1    2    0    0 -0.20954260759E+01  0.10621214299E+02 -0.25014880510E+02  0.12802583829E+03  0.12509064721E+03 0.  0.
          5    1    3    3  502    0  0.27677896058E+02  0.55082073796E+02 -0.38351708303E+02  0.72721569796E+02  0.41800000000E+01 0.  1.
         -5    1    3    3    0  502 -0.29773322134E+02 -0.44460859497E+02  0.13336827793E+02  0.55304268494E+02  0.41800000000E+01 0.  1.
        -11    1    1    2    0    0 -0.27457961018E+01 -0.21841441604E+02 -0.46189198643E+02  0.51166688762E+02  0.00000000000E+00 0.  1.
         11    1    1    2    0    0  0.48412221776E+01  0.11220227305E+02  0.40193750798E+02  0.42010338443E+02  0.00000000000E+00 0. -1.
</event>
<event>
 7    1  0.2394257E-009  0.1508843E+03  0.7561462E-02  0.1199391E+00
         -2   -1    0    0    0  501 -0.00000000000E+00  0.00000000000E+00  0.54616637944E+02  0.54616637944E+02  0.00000000000E+00 0.  1.
          2   -1    0    0  501    0  0.00000000000E+00 -0.00000000000E+00 -0.71096830639E+03  0.71096830639E+03  0.00000000000E+00 0. -1.
         25    2    1    2    0    0  0.11660166084E+03  0.22401335361E+02 -0.56291362147E+03  0.58874043918E+03  0.12508314175E+03 0.  0.
          5    1    3    3  502    0  0.43587363303E+02 -0.52105272286E+02 -0.22170881995E+03  0.23192044085E+03  0.41800000000E+01 0.  1.
         -5    1    3    3    0  502  0.73014297535E+02  0.74506607648E+02 -0.34120480152E+03  0.35681999833E+03  0.41800000000E+01 0.  1.
        -11    1    1    2    0    0 -0.11401896637E+03 -0.75906839600E+01 -0.39586936896E+02  0.12093415046E+03  0.00000000000E+00 0.  1.
         11    1    1    2    0    0 -0.25826944713E+01 -0.14810651401E+02 -0.53851110080E+02  0.55910354699E+02  0.00000000000E+00 0. -1.
</event>
<event>
 7    1  0.2394257E-009  0.1365769E+03  0.7561462E-02  0.1218011E+00
         -1   -1    0    0    0  501 -0.00000000000E+00  0.00000000000E+00  0.45963714533E+02  0.45963714533E+02  0.00000000000E+00 0.  1.
          1   -1    0    0  501    0  0.00000000000E+00 -0.00000000000E+00 -0.48282302945E+03  0.48282302945E+03  0.00000000000E+00 0. -1.
         25    2    1    2    0    0  0.41025932118E+02  0.91867119457E+02 -0.21259849561E+03  0.26639939880E+03  0.12509126507E+03 0.  0.
          5    1    3    3  502    0  0.43342332945E+02 -0.24780604414E+01 -0.12895224580E+02  0.45480301512E+02  0.41800000000E+01 0.  1.
         -5    1    3    3    0  502 -0.23164008266E+01  0.94345179899E+02 -0.19970327103E+03  0.22091909728E+03  0.41800000000E+01 0.  1.
        -11    1    1    2    0    0 -0.38135819208E+01 -0.97380514774E+02 -0.14575854368E+03  0.17533699302E+03  0.00000000000E+00 0.  1.
         11    1    1    2    0    0 -0.37212350197E+02  0.55133953166E+01 -0.78502275625E+02  0.87050352173E+02  0.00000000000E+00 0. -1.
</event>
<event>
 7    1  0.2394257E-009  0.1114627E+03  0.7561462E-02  0.1257885E+00
          1   -1    0    0  501    0  0.00000000000E+00  0.00000000000E+00  0.12658930797E+03  0.12658930797E+03  0.00000000000E+00 0. -1.
         -1   -1    0    0    0  501 -0.00000000000E+00 -0.00000000000E+00 -0.11054895823E+03  0.11054895823E+03  0.00000000000E+00 0.  1.
         25    2    1    2    0    0 -0.40742460103E+02  0.18858361386E+02 -0.42294460856E+01  0.13296853699E+03  0.12508859966E+03 0.  0.
          5    1    3    3  502    0 -0.85004080109E+02  0.18298709642E+01  0.48230068712E+00  0.85127827864E+02  0.41800000000E+01 0.  1.
         -5    1    3    3    0  502  0.44261620006E+02  0.17028490422E+02 -0.47117467727E+01  0.47840709121E+02  0.41800000000E+01 0.  1.
        -11    1    1    2    0    0  0.41660698827E+01  0.29368523225E+02 -0.15902676781E+02  0.33656521263E+02  0.00000000000E+00 0.  1.
         11    1    1    2    0    0  0.36576390221E+02 -0.48226884611E+02  0.36172472614E+02  0.70513207953E+02  0.00000000000E+00 0. -1.
</event>
<event>
 7    1  0.2394257E-009  0.1488258E+03  0.7561462E-02  0.1201923E+00
          2   -1    0    0  501    0  0.00000000000E+00  0.00000000000E+00  0.12822331258E+04  0.12822331258E+04  0.00000000000E+00 0. -1.
         -2   -1    0    0    0  501 -0.00000000000E+00 -0.00000000000E+00 -0.23971139119E+02  0.23971139119E+02  0.00000000000E+00 0.  1.
         25    2    1    2    0    0  0.93989377138E+02  0.95623398814E+02  0.78154573218E+03  0.80276969808E+03  0.12509044423E+03 0.  0.
          5    1    3    3  502    0  0.72335346015E+02  0.59862577165E+02  0.21471677601E+03  0.23438578610E+03  0.41800000000E+01 0. -1.
         -5    1    3    3    0  502  0.21654031122E+02  0.35760821649E+02  0.56682895618E+03  0.56838391198E+03  0.41800000000E+01 0. -1.
        -11    1    1    2    0    0 -0.10770225815E+03 -0.59571828413E+02  0.37270415204E+03  0.39250090968E+03  0.00000000000E+00 0.  1.
         11    1    1    2    0    0  0.13712881014E+02 -0.36051570400E+02  0.10401210244E+03  0.11093365715E+03  0.00000000000E+00 0. -1.
</event>
<event>
 7    1  0.2394257E-009  0.1065076E+03  0.7561462E-02  0.1267177E+00
         -2   -1    0    0    0  501 -0.00000000000E+00  0.00000000000E+00  0.60154525203E+02  0.60154525203E+02  0.00000000000E+00 0. -1.
          2   -1    0    0  501    0  0.00000000000E+00 -0.00000000000E+00 -0.23154382760E+03  0.23154382760E+03  0.00000000000E+00 0.  1.
         25    2    1    2    0    0 -0.20002448632E+01  0.38559846051E+02 -0.12560713924E+03  0.18142701563E+03  0.12509095038E+03 0.  0.
          5    1    3    3  502    0  0.45994883091E+02  0.59031256961E+02 -0.94207734468E+02  0.12038599670E+03  0.41800000000E+01 0. -1.
         -5    1    3    3    0  502 -0.47995127954E+02 -0.20471410910E+02 -0.31399404772E+02  0.61041018930E+02  0.41800000000E+01 0. -1.
        -11    1    1    2    0    0  0.10159311682E+02  0.22199372407E+02 -0.42334893817E+02  0.48869898543E+02  0.00000000000E+00 0.  1.
         11    1    1    2    0    0 -0.81590668186E+01 -0.60759218457E+02 -0.34472693363E+01  0.61401438622E+02  0.00000000000E+00 0. -1.
</event>
<event>
 7    1  0.2394257E-009  0.1152725E+03  0.7561462E-02  0.1251106E+00
         -1   -1    0    0    0  501 -0.00000000000E+00  0.00000000000E+00  0.20340883276E+03  0.20340883276E+03  0.00000000000E+00 0.  1.
          1   -1    0    0  501    0  0.00000000000E+00 -0.00000000000E+00 -0.93113924139E+02  0.93113924139E+02  0.00000000000E+00 0. -1.
         25    2    1    2    0    0 -0.50525045406E+02 -0.44287912897E+02  0.11646013550E+03  0.18364068104E+03  0.12508691830E+03 0.  0.
          5    1    3    3  502    0 -0.80598154086E+02 -0.42814525560E+02  0.12233098052E+03  0.15268099828E+03  0.41800000000E+01 0. -1.
         -5    1    3    3    0  502  0.30073108679E+02 -0.14733873370E+01 -0.58708450125E+01  0.30959682767E+02  0.41800000000E+01 0. -1.
        -11    1    1    2    0    0  0.35721850693E+02  0.70301607232E+02 -0.17677469056E+02  0.80813733416E+02  0.00000000000E+00 0. -1.
         11    1    1    2    0    0  0.14803194713E+02 -0.26013694335E+02  0.11512242171E+02  0.32068342434E+02  0.00000000000E+00 0.  1.
</event>
<event>
 7    1  0.2394257E-009  0.1129476E+03  0.7561462E-02  0.1255207E+00
          1   -1    0    0  501    0  0.00000000000E+00  0.00000000000E+00  0.13001784700E+04  0.13001784700E+04  0.00000000000E+00 0. -1.
         -1   -1    0    0    0  501 -0.00000000000E+00 -0.00000000000E+00 -0.18177407016E+02  0.18177407016E+02  0.00000000000E+00 0.  1.
         25    2    1    2    0    0  0.63240128780E+02  0.45399156510E+02  0.10162683264E+04  0.10268924158E+04  0.12508527107E+03 0.  0.
          5    1    3    3  502    0 -0.24821746872E+02  0.93789128526E+00  0.54160853568E+02  0.59731643348E+02  0.41800000000E+01 0.  1.
         -5    1    3    3    0  502  0.88061875652E+02  0.44461265225E+02  0.96210747281E+03  0.96716077241E+03  0.41800000000E+01 0.  1.
        -11    1    1    2    0    0 -0.44716952497E+02  0.80187445111E+01  0.19843127781E+03  0.20356541483E+03  0.00000000000E+00 0. -1.
         11    1    1    2    0    0 -0.18523176283E+02 -0.53417901021E+02  0.67301458804E+02  0.87898046431E+02  0.00000000000E+00 0.  1.
</event>
<event>
 7    1  0.2394257E-009  0.3361416E+03  0.7561462E-02  0.1068451E+00
         -2   -1    0    0    0  501 -0.00000000000E+00  0.00000000000E+00  0.30064930687E+03  0.30064930687E+03  0.00000000000E+00 0. -1.
          2   -1    0    0  501    0  0.00000000000E+00 -0.00000000000E+00 -0.54525649291E+03  0.54525649291E+03  0.00000000000E+00 0.  1.
         25    2    1    2    0    0  0.32296111728E+03 -0.11094807640E+02  0.10389280229E+03  0.36175832474E+03  0.12509353748E+03 0.  0.
          5    1    3    3  502    0  0.19565260132E+03  0.43776163271E+02  0.97341672871E+02  0.22291066944E+03  0.41800000000E+01 0.  1.
         -5    1    3    3    0  502  0.12730851596E+03 -0.54870970911E+02  0.65511294218E+01  0.13884765530E+03  0.41800000000E+01 0.  1.
        -11    1    1    2    0    0 -0.65466491108E+02  0.35387198150E+02 -0.52517094190E+02  0.91083260993E+02  0.00000000000E+00 0.  1.
         11    1    1    2    0    0 -0.25749462617E+03 -0.24292390510E+02 -0.29598289414E+03  0.39306421405E+03  0.00000000000E+00 0. -1.
</event>
<event>
 7    1  0.2394257E-009  0.1724562E+03  0.7561462E-02  0.1175310E+00
          2   -1    0    0  501    0  0.00000000000E+00  0.00000000000E+00  0.16970498411E+04  0.16970498411E+04  0.00000000000E+00 0. -1.
         -2   -1    0    0    0  501 -0.00000000000E+00 -0.00000000000E+00 -0.20543557034E+02  0.20543557034E+02  0.00000000000E+00 0.  1.
         25    2    1    2    0    0 -0.70769349454E+02 -0.12069360541E+03  0.11489463417E+04  0.11641751980E+04  0.12510375007E+03 0.  0.
          5    1    3    3  502    0 -0.86014483522E+02 -0.31162302205E+02  0.44051942018E+03  0.44993823177E+03  0.41800000000E+01 0.  1.
         -5    1    3    3    0  502  0.15245134068E+02 -0.89531303205E+02  0.70842692157E+03  0.71423696626E+03  0.41800000000E+01 0.  1.
        -11    1    1    2    0    0  0.17262979514E+02  0.10534655621E+03  0.40459203708E+03  0.41843831545E+03  0.00000000000E+00 0.  1.
         11    1    1    2    0    0  0.53506369939E+02  0.15347049197E+02  0.12296790524E+03  0.13497988466E+03  0.00000000000E+00 0. -1.
</event>
<event>
 7    1  0.2394257E-009  0.1026484E+03  0.7561462E-02  0.1274823E+00
          4   -1    0    0  501    0  0.00000000000E+00  0.00000000000E+00  0.65504465104E+02  0.65504465104E+02  0.00000000000E+00 0. -1.
         -4   -1    0    0    0  501 -0.00000000000E+00 -0.00000000000E+00 -0.25993026868E+03  0.25993026868E+03  0.00000000000E+00 0.  1.
         25    2    1    2    0    0 -0.99105197101E+01  0.11549101638E+02 -0.18400061860E+02  0.12734888418E+03  0.12509027091E+03 0.  0.
          5    1    3    3  502    0  0.51898980481E+02  0.31586601217E+02 -0.93320204507E+01  0.61609873860E+02  0.41800000000E+01 0. -1.
         -5    1    3    3    0  502 -0.61809500191E+02 -0.20037499579E+02 -0.90680414097E+01  0.65739010323E+02  0.41800000000E+01 0. -1.
        -11    1    1    2    0    0 -0.33210811497E+02 -0.14123093203E+02 -0.13020006761E+03  0.13510913132E+03  0.00000000000E+00 0.  1.
         11    1    1    2    0    0  0.43121331207E+02  0.25739915647E+01 -0.45825674114E+02  0.62976718283E+02  0.00000000000E+00 0. -1.
</event>
<event>
 7    1  0.2394257E-009  0.1234502E+03  0.7561462E-02  0.1237511E+00
         -1   -1    0    0    0  501 -0.00000000000E+00  0.00000000000E+00  0.22037226640E+02  0.22037226640E+02  0.00000000000E+00 0.  1.
          1   -1    0    0  501    0  0.00000000000E+00 -0.00000000000E+00 -0.91150490121E+03  0.91150490121E+03  0.00000000000E+00 0. -1.
         25    2    1    2    0    0 -0.80181690003E+02  0.33416187523E+02 -0.58098748588E+03  0.60061662383E+03  0.12509246610E+03 0.  0.
          5    1    3    3  502    0 -0.33586089362E+02  0.62112502944E+02 -0.14656845418E+03  0.16274450093E+03  0.41800000000E+01 0.  1.
         -5    1    3    3    0  502 -0.46595600641E+02 -0.28696315421E+02 -0.43441903170E+03  0.43787212290E+03  0.41800000000E+01 0.  1.
        -11    1    1    2    0    0  0.10693222197E+02 -0.48928771800E+02 -0.16985675227E+03  0.17708666241E+03  0.00000000000E+00 0. -1.
         11    1    1    2    0    0  0.69488467806E+02  0.15512584277E+02 -0.13862343642E+03  0.15583884161E+03  0.00000000000E+00 0.  1.
</event>
<event>
 7    1  0.2394257E-009  0.1313483E+03  0.7561462E-02  0.1225469E+00
          1   -1    0    0  501    0  0.00000000000E+00  0.00000000000E+00  0.17647017094E+04  0.17647017094E+04  0.00000000000E+00 0. -1.
         -1   -1    0    0    0  501 -0.00000000000E+00 -0.00000000000E+00 -0.14376209711E+02  0.14376209711E+02  0.00000000000E+00 0.  1.
         25    2    1    2    0    0  0.31249518125E+02 -0.68471949127E+02  0.14327836574E+04  0.14402023688E+04  0.12509561885E+03 0.  0.
          5    1    3    3  502    0  0.53241582104E+02  0.17929439989E+02  0.60743387116E+03  0.61004058153E+03  0.41800000000E+01 0.  1.
         -5    1    3    3    0  502 -0.21992063979E+02 -0.86401389117E+02  0.82534978628E+03  0.83016178727E+03  0.41800000000E+01 0.  1.
        -11    1    1    2    0    0 -0.24277666923E+02  0.90657692814E+02  0.27206093582E+03  0.28779398044E+03  0.00000000000E+00 0. -1.
         11    1    1    2    0    0 -0.69718512014E+01 -0.22185743687E+02  0.45480906470E+02  0.51081569920E+02  0.00000000000E+00 0.  1.
</event>
<event>
 7    1  0.2394257E-009  0.9918747E+02  0.7561462E-02  0.1282014E+00
         -1   -1    0    0    0  501 -0.00000000000E+00  0.00000000000E+00  0.37083332401E+03  0.37083332401E+03  0.00000000000E+00 0.  1.
          1   -1    0    0  501    0  0.00000000000E+00 -0.00000000000E+00 -0.36871598319E+02  0.36871598319E+02  0.00000000000E+00 0. -1.
         25    2    1    2    0    0 -0.73259933991E+01  0.27337405347E+02  0.22980273388E+03  0.26316479855E+03  0.12508161651E+03 0.  0.
          5    1    3    3  502    0  0.20003412146E+02  0.55229875657E+02  0.21203283364E+03  0.22005878897E+03  0.41800000000E+01 0. -1.
         -5    1    3    3    0  502 -0.27329405545E+02 -0.27892470309E+02  0.17769900239E+02  0.43106009580E+02  0.41800000000E+01 0. -1.
        -11    1    1    2    0    0  0.48006249692E+02 -0.34220159884E+02  0.61550519300E+02  0.85229606230E+02  0.00000000000E+00 0. -1.
         11    1    1    2    0    0 -0.40680256293E+02  0.68827545369E+01  0.42608472516E+02  0.59310517551E+02  0.00000000000E+00 0.  1.
</event>
<event>
 7    1  0.2394257E-009  0.9293500E+02  0.7561462E-02  0.1295896E+00
         -2   -1    0    0    0  501 -0.00000000000E+00  0.00000000000E+00  0.50127544113E+02  0.50127544113E+02  0.00000000000E+00 0. -1.
          2   -1    0    0  501    0  0.00000000000E+00 -0.00000000000E+00 -0.25230561468E+03  0.25230561468E+03  0.00000000000E+00 0.  1.
         25    2    1    2    0    0  0.13436523309E+02  0.31379686135E+01 -0.74554819623E+02  0.14627406708E+03  0.12508914647E+03 0.  0.
          5    1    3    3  502    0  0.39806322206E+02 -0.49021725748E+02 -0.20419922309E+02  0.66499011346E+02  0.41800000000E+01 0. -1.
         -5    1    3    3    0  502 -0.26369798897E+02  0.52159694362E+02 -0.54134897314E+02  0.79775055732E+02  0.41800000000E+01 0. -1.
        -11    1    1    2    0    0  0.19842043054E+02  0.16097031494E+02 -0.29798176770E+01  0.25723538032E+02  0.00000000000E+00 0. -1.
         11    1    1    2    0    0 -0.33278566364E+02 -0.19235000107E+02 -0.12464343327E+03  0.13043555369E+03  0.00000000000E+00 0.  1.
</event>
<event>
 7    1  0.2394257E-009  0.9536232E+02  0.7561462E-02  0.1290362E+00
          2   -1    0    0  501    0  0.00000000000E+00  0.00000000000E+00  0.28755878400E+03  0.28755878400E+03  0.00000000000E+00 0. -1.
         -2   -1    0    0    0  501 -0.00000000000E+00 -0.00000000000E+00 -0.39370637017E+02  0.39370637017E+02  0.00000000000E+00 0.  1.
         25    2    1    2    0    0  0.10456465165E+02  0.11712299593E+02  0.22457076564E+03  0.25753267062E+03  0.12507810371E+03 0.  0.
          5    1    3    3  502    0  0.67538052700E+02  0.51753281437E+01  0.10899602982E+03  0.12839696063E+03  0.41800000000E+01 0. -1.
         -5    1    3    3    0  502 -0.57081587535E+02  0.65369714491E+01  0.11557473583E+03  0.12913570998E+03  0.41800000000E+01 0. -1.
        -11    1    1    2    0    0  0.14963203394E+02 -0.30279305870E+02  0.12428009269E+02  0.35988737602E+02  0.00000000000E+00 0.  1.
         11    1    1    2    0    0 -0.25419668559E+02  0.18567006277E+02  0.11189372068E+02  0.33408012797E+02  0.00000000000E+00 0. -1.
</event>
<event>
 7    1  0.2394257E-009  0.1191974E+03  0.7561462E-02  0.1244427E+00
          2   -1    0    0  501    0  0.00000000000E+00  0.00000000000E+00  0.17664611677E+02  0.17664611677E+02  0.00000000000E+00 0. -1.
         -2   -1    0    0    0  501 -0.00000000000E+00 -0.00000000000E+00 -0.92923976492E+03  0.92923976492E+03  0.00000000000E+00 0.  1.
         25    2    1    2    0    0  0.47540144911E+02 -0.38329929316E+02 -0.63185532780E+03  0.64700334098E+03  0.12507165590E+03 0.  0.
          5    1    3    3  502    0 -0.31539325139E+02  0.16085165411E+02 -0.92030116422E+02  0.98693851405E+02  0.41800000000E+01 0.  1.
         -5    1    3    3    0  502  0.79079470050E+02 -0.54415094728E+02 -0.53982521138E+03  0.54830948958E+03  0.41800000000E+01 0.  1.
        -11    1    1    2    0    0 -0.69905288471E+02  0.10077554774E+02 -0.16044892906E+03  0.17530591919E+03  0.00000000000E+00 0. -1.
         11    1    1    2    0    0  0.22365143560E+02  0.28252374543E+02 -0.11927089638E+03  0.12459511642E+03  0.00000000000E+00 0.  1.
</event>
<event>
 7    1  0.2394257E-009  0.1103514E+03  0.7561462E-02  0.1259920E+00
         -1   -1    0    0    0  501 -0.00000000000E+00  0.00000000000E+00  0.18631077608E+03  0.18631077608E+03  0.00000000000E+00 0.  1.
          1   -1    0    0  501    0  0.00000000000E+00 -0.00000000000E+00 -0.12320904486E+03  0.12320904486E+03  0.00000000000E+00 0. -1.
         25    2    1    2    0    0  0.20369024388E+02  0.81840221909E+02 -0.29707213038E+02  0.15376045248E+03  0.12508812559E+03 0.  0.
          5    1    3    3  502    0  0.11399957404E+01 -0.70861953900E+01  0.38872736549E+02  0.39750167323E+02  0.41800000000E+01 0. -1.
         -5    1    3    3    0  502  0.19229028647E+02  0.88926417299E+02 -0.68579949587E+02  0.11401028516E+03  0.41800000000E+01 0. -1.
        -11    1    1    2    0    0 -0.28632572845E+02 -0.98578463980E+02  0.62557726348E+02  0.12021234094E+03  0.00000000000E+00 0. -1.
         11    1    1    2    0    0  0.82635484572E+01  0.16738242071E+02  0.30251217907E+02  0.35547027521E+02  0.00000000000E+00 0.  1.
</event>
<event>
 7    1  0.2394257E-009  0.1307149E+03  0.7561462E-02  0.1226399E+00
         -2   -1    0    0    0  501 -0.00000000000E+00  0.00000000000E+00  0.12085047120E+02  0.12085047120E+02  0.00000000000E+00 0.  1.
          2   -1    0    0  501    0  0.00000000000E+00 -0.00000000000E+00 -0.22747083081E+04  0.22747083081E+04  0.00000000000E+00 0. -1.
         25    2    1    2    0    0 -0.65051557918E+02  0.56512556873E+02 -0.18329032862E+04  0.18391865160E+04  0.12508880744E+03 0.  0.
          5    1    3    3  502    0 -0.91787644421E+02  0.21031205403E+02 -0.83828153987E+03  0.84356428075E+03  0.41800000000E+01 0.  1.
         -5    1    3    3    0  502  0.26736086503E+02  0.35481351470E+02 -0.99462174633E+03  0.99562223524E+03  0.41800000000E+01 0.  1.
        -11    1    1    2    0    0  0.43297138349E+02  0.16521706762E+02 -0.20982077728E+03  0.21487756412E+03  0.00000000000E+00 0. -1.
         11    1    1    2    0    0  0.21754419569E+02 -0.73034263636E+02 -0.21989919754E+03  0.23272927515E+03  0.00000000000E+00 0.  1.
</event>
<event>
 7    1  0.2394257E-009  0.5471569E+02  0.7561462E-02  0.1421448E+00
         -3   -1    0    0    0  501 -0.00000000000E+00  0.00000000000E+00  0.40442449975E+02  0.40442449975E+02  0.00000000000E+00 0.  1.
          3   -1    0    0  501    0  0.00000000000E+00 -0.00000000000E+00 -0.35802264058E+03  0.35802264058E+03  0.00000000000E+00 0. -1.
         25    2    1    2    0    0 -0.33810803588E+02  0.32153501022E+01 -0.25006765409E+03  0.28166573256E+03  0.12509294290E+03 0.  0.
          5    1    3    3  502    0 -0.14945280262E+02 -0.13075573516E+02 -0.25509139461E+03  0.25589729195E+03  0.41800000000E+01 0.  1.
         -5    1    3    3    0  502 -0.18865523326E+02  0.16290923618E+02  0.50237405185E+01  0.25768440611E+02  0.41800000000E+01 0.  1.
        -11    1    1    2    0    0  0.41387962736E+02  0.15089825952E+02  0.24154119034E+01  0.44119162746E+02  0.00000000000E+00 0.  1.
         11    1    1    2    0    0 -0.75771591480E+01 -0.18305176055E+02 -0.69927948422E+02  0.72680195250E+02  0.00000000000E+00 0. -1.
</event>
<event>
 7    1  0.2394257E-009  0.9317065E+02  0.7561462E-02  0.1295350E+00
         -2   -1    0    0    0  501 -0.00000000000E+00  0.00000000000E+00  0.59478584818E+02  0.59478584818E+02  0.00000000000E+00 0. -1.
          2   -1    0    0  501    0  0.00000000000E+00 -0.00000000000E+00 -0.31329884363E+03  0.31329884363E+03  0.00000000000E+00 0.  1.
         25    2    1    2    0    0  0.18417132423E+02  0.38571778480E+02 -0.23932198944E+03  0.27340209050E+03  0.12508683223E+03 0.  0.
          5    1    3    3  502    0 -0.17658345927E+02  0.71875191457E+02 -0.18878855689E+03  0.20282123148E+03  0.41800000000E+01 0.  1.
         -5    1    3    3    0  502  0.36075478351E+02 -0.33303412977E+02 -0.50533432550E+02  0.70580859016E+02  0.41800000000E+01 0.  1.
        -11    1    1    2    0    0 -0.32233230240E+02 -0.36936313791E+02 -0.44561139702E+02  0.66249283616E+02  0.00000000000E+00 0.  1.
         11    1    1    2    0    0  0.13816097817E+02 -0.16354646889E+01  0.30062870326E+02  0.33126054336E+02  0.00000000000E+00 0. -1.
</event>
<event>
 7    1  0.2394257E-009  0.8970401E+02  0.7561462E-02  0.1303570E+00
         -2   -1    0    0    0  501 -0.00000000000E+00  0.00000000000E+00  0.10738568566E+03  0.10738568566E+03  0.00000000000E+00 0.  1.
          2   -1    0    0  501    0  0.00000000000E+00 -0.00000000000E+00 -0.18969816991E+03  0.18969816991E+03  0.00000000000E+00 0. -1.
         25    2    1    2    0    0 -0.60493381311E+02  0.41605989117E+02 -0.10095818870E+03  0.17673008468E+03  0.12510179637E+03 0.  0.
          5    1    3    3  502    0 -0.26574831298E+02 -0.12766096685E+02 -0.10808845224E+03  0.11211503374E+03  0.41800000000E+01 0. -1.
         -5    1    3    3    0  502 -0.33918550013E+02  0.54372085802E+02  0.71302635477E+01  0.64615050938E+02  0.41800000000E+01 0. -1.
        -11    1    1    2    0    0  0.43159841093E+02 -0.32048033377E+01 -0.32475451693E+02  0.54108202800E+02  0.00000000000E+00 0. -1.
         11    1    1    2    0    0  0.17333540217E+02 -0.38401185779E+02  0.51121156146E+02  0.66245568089E+02  0.00000000000E+00 0.  1.
</event>
<event>
 7    1  0.2394257E-009  0.8048702E+02  0.7561462E-02  0.1327675E+00
          1   -1    0    0  501    0  0.00000000000E+00  0.00000000000E+00  0.12556962193E+03  0.12556962193E+03  0.00000000000E+00 0. -1.
         -1   -1    0    0    0  501 -0.00000000000E+00 -0.00000000000E+00 -0.12183374386E+03  0.12183374386E+03  0.00000000000E+00 0.  1.
         25    2    1    2    0    0 -0.32349172921E+02  0.49843498547E+02  0.81630908888E+00  0.13848825175E+03  0.12508991237E+03 0.  0.
          5    1    3    3  502    0 -0.69498044020E+01  0.41382509212E+01 -0.58557943871E+02  0.59261539739E+02  0.41800000000E+01 0. -1.
         -5    1    3    3    0  502 -0.25399368519E+02  0.45705247625E+02  0.59374252960E+02  0.79226712012E+02  0.41800000000E+01 0. -1.
        -11    1    1    2    0    0  0.14906638077E+02 -0.70683131286E+02 -0.18202601012E+02  0.74495956875E+02  0.00000000000E+00 0.  1.
         11    1    1    2    0    0  0.17442534844E+02  0.20839632739E+02  0.21122169999E+02  0.34419157165E+02  0.00000000000E+00 0. -1.
</event>
<event>
 7    1  0.2394257E-009  0.1895807E+03  0.7561462E-02  0.1158840E+00
         -2   -1    0    0    0  501 -0.00000000000E+00  0.00000000000E+00  0.91188171034E+02  0.91188171034E+02  0.00000000000E+00 0.  1.
          2   -1    0    0  501    0  0.00000000000E+00 -0.00000000000E+00 -0.53620846651E+03  0.53620846651E+03  0.00000000000E+00 0. -1.
         25    2    1    2    0    0 -0.14346927827E+03  0.95926127944E+02 -0.11645588261E+03  0.24288978545E+03  0.12509284333E+03 0.  0.
          5    1    3    3  502    0 -0.15940510470E+03  0.85737557653E+02 -0.12669899730E+03  0.22097742987E+03  0.41800000000E+01 0. -1.
         -5    1    3    3    0  502  0.15935826430E+02  0.10188570291E+02  0.10243114688E+02  0.21912355581E+02  0.41800000000E+01 0. -1.
        -11    1    1    2    0    0  0.12520078385E+03 -0.60873391624E+02 -0.31199750365E+03  0.34164784262E+03  0.00000000000E+00 0. -1.
         11    1    1    2    0    0  0.18268494420E+02 -0.35052736320E+02 -0.16566909216E+02  0.42859009472E+02  0.00000000000E+00 0.  1.
</event>
<event>
 7    1  0.2394257E-009  0.1630078E+03  0.7561462E-02  0.1185342E+00
         -2   -1    0    0    0  501 -0.00000000000E+00  0.00000000000E+00  0.17456160169E+03  0.17456160169E+03  0.00000000000E+00 0. -1.
          2   -1    0    0  501    0  0.00000000000E+00 -0.00000000000E+00 -0.16504425456E+03  0.16504425456E+03  0.00000000000E+00 0.  1.
         25    2    1    2    0    0 -0.71643008571E+02 -0.10624103063E+03 -0.84170195295E+01  0.17927388302E+03  0.12509357157E+03 0.  0.
          5    1    3    3  502    0 -0.99696835110E+02 -0.74912022519E+02 -0.34695652980E+02  0.12950880582E+03  0.41800000000E+01 0. -1.
         -5    1    3    3    0  502  0.28053826539E+02 -0.31329008111E+02  0.26278633451E+02  0.49765077200E+02  0.41800000000E+01 0. -1.
        -11    1    1    2    0    0 -0.10296842611E+01  0.82530374435E+02  0.14586525053E+02  0.83815807979E+02  0.00000000000E+00 0. -1.
         11    1    1    2    0    0  0.72672692833E+02  0.23710656195E+02  0.33478416067E+01  0.76516165247E+02  0.00000000000E+00 0.  1.
</event>
<event>
 7    1  0.2394257E-009  0.1042350E+03  0.7561462E-02  0.1271634E+00
          3   -1    0    0  501    0  0.00000000000E+00  0.00000000000E+00  0.67417367099E+03  0.67417367099E+03  0.00000000000E+00 0. -1.
         -3   -1    0    0    0  501 -0.00000000000E+00 -0.00000000000E+00 -0.17346011814E+02  0.17346011814E+02  0.00000000000E+00 0.  1.
         25    2    1    2    0    0  0.90119718957E+01 -0.61618497383E+00  0.37892672049E+03  0.39914230092E+03  0.12509005382E+03 0.  0.
          5    1    3    3  502    0  0.62738240871E+02  0.67215757880E+01  0.13291615053E+03  0.14719185412E+03  0.41800000000E+01 0.  1.
         -5    1    3    3    0  502 -0.53726268975E+02 -0.73377607618E+01  0.24601056996E+03  0.25195044680E+03  0.41800000000E+01 0.  1.
        -11    1    1    2    0    0  0.30390620130E+02  0.29219183704E+02  0.12660250075E+03  0.13343741486E+03  0.00000000000E+00 0.  1.
         11    1    1    2    0    0 -0.39402592026E+02 -0.28602998730E+02  0.15129843794E+03  0.15893996702E+03  0.00000000000E+00 0. -1.
</event>
<event>
 7    1  0.2394257E-009  0.2078096E+03  0.7561462E-02  0.1143312E+00
         -1   -1    0    0    0  501 -0.00000000000E+00  0.00000000000E+00  0.97679917500E+02  0.97679917500E+02  0.00000000000E+00 0.  1.
          1   -1    0    0  501    0  0.00000000000E+00 -0.00000000000E+00 -0.69927345417E+03  0.69927345417E+03  0.00000000000E+00 0. -1.
         25    2    1    2    0    0 -0.18700831085E+03  0.20491518528E+02 -0.78985890529E+02  0.23933069692E+03  0.12509356869E+03 0.  0.
          5    1    3    3  502    0 -0.68510719519E+02 -0.48428763583E+02 -0.54176967592E+02  0.99958391587E+02  0.41800000000E+01 0.  1.
         -5    1    3    3    0  502 -0.11849759133E+03  0.68920282110E+02 -0.24808922937E+02  0.13937230533E+03  0.41800000000E+01 0.  1.
        -11    1    1    2    0    0  0.11836405049E+03 -0.36727401063E+02 -0.33639332008E+03  0.35849604773E+03  0.00000000000E+00 0.  1.
         11    1    1    2    0    0  0.68644260353E+02  0.16235882536E+02 -0.18621432606E+03  0.19912662702E+03  0.00000000000E+00 0. -1.
</event>
<event>
 7    1  0.2394257E-009  0.1283797E+03  0.7561462E-02  0.1229880E+00
         -1   -1    0    0    0  501 -0.00000000000E+00  0.00000000000E+00  0.62855469616E+02  0.62855469616E+02  0.00000000000E+00 0.  1.
          1   -1    0    0  501    0  0.00000000000E+00 -0.00000000000E+00 -0.47263462452E+03  0.47263462452E+03  0.00000000000E+00 0. -1.
         25    2    1    2    0    0  0.27507526699E+02  0.10843248102E+03 -0.33201455938E+03  0.37201561211E+03  0.12509069130E+03 0.  0.
          5    1    3    3  502    0  0.80084266197E+01 -0.16137449939E+02 -0.14654342790E+03  0.14770579152E+03  0.41800000000E+01 0. -1.
         -5    1    3    3    0  502  0.19499100079E+02  0.12456993096E+03 -0.18547113147E+03  0.22430982059E+03  0.41800000000E+01 0. -1.
        -11    1    1    2    0    0 -0.60615580356E+01 -0.38124515422E+02  0.18129790431E+02  0.42648686534E+02  0.00000000000E+00 0.  1.
         11    1    1    2    0    0 -0.21445968663E+02 -0.70307965594E+02 -0.95894385956E+02  0.12082579549E+03  0.00000000000E+00 0. -1.
</event>
<event>
 7    1  0.2394257E-009  0.1068437E+03  0.7561462E-02  0.1266529E+00
          1   -1    0    0  501    0  0.00000000000E+00  0.00000000000E+00  0.37542024435E+03  0.37542024435E+03  0.00000000000E+00 0. -1.
         -1   -1    0    0    0  501 -0.00000000000E+00 -0.00000000000E+00 -0.58748367187E+02  0.58748367187E+02  0.00000000000E+00 0.  1.
         25    2    1    2    0    0  0.32482264498E+02  0.54081639723E+02  0.55726562247E+02  0.15077643095E+03  0.12509261021E+03 0.  0.
          5    1    3    3  502    0  0.24225205250E+01 -0.39098090276E+02  0.29830127038E+02  0.49414958748E+02  0.41800000000E+01 0.  1.
         -5    1    3    3    0  502  0.30059743973E+02  0.93179730000E+02  0.25896435208E+02  0.10136147220E+03  0.41800000000E+01 0.  1.
        -11    1    1    2    0    0 -0.77807816022E+01 -0.50780649956E+02  0.25157642598E+03  0.25676820886E+03  0.00000000000E+00 0. -1.
         11    1    1    2    0    0 -0.24701482895E+02 -0.33009897672E+01  0.93688889376E+01  0.26623971728E+02  0.00000000000E+00 0.  1.
</event>
<event>
 7    1  0.2394257E-009  0.1425394E+03  0.7561462E-02  0.1209952E+00
          1   -1    0    0  501    0  0.00000000000E+00  0.00000000000E+00  0.12397851322E+04  0.12397851322E+04  0.00000000000E+00 0. -1.
         -1   -1    0    0    0  501 -0.00000000000E+00 -0.00000000000E+00 -0.20041881274E+02  0.20041881274E+02  0.00000000000E+00 0.  1.
         25    2    1    2    0    0  0.10918350938E+03  0.23528049965E+02  0.58185657455E+03  0.60553646142E+03  0.12507087956E+03 0.  0.
          5    1    3    3  502    0 -0.22735498280E+02  0.15481533323E+02  0.18867612459E+03  0.19071636833E+03  0.41800000000E+01 0.  1.
         -5    1    3    3    0  502  0.13191900766E+03  0.80465166420E+01  0.39318044995E+03  0.41482009310E+03  0.41800000000E+01 0.  1.
        -11    1    1    2    0    0 -0.66108049242E+01  0.14257504633E+02  0.14468587664E+02  0.21361629365E+02  0.00000000000E+00 0.  1.
         11    1    1    2    0    0 -0.10257270445E+03 -0.37785554599E+02  0.62341808874E+03  0.63292892271E+03  0.00000000000E+00 0. -1.
</event>
<event>
 7    1  0.2394257E-009  0.9176224E+02  0.7561462E-02  0.1298639E+00
         -2   -1    0    0    0  501 -0.00000000000E+00  0.00000000000E+00  0.38069099878E+02  0.38069099878E+02  0.00000000000E+00 0.  1.
          2   -1    0    0  501    0  0.00000000000E+00 -0.00000000000E+00 -0.53639524808E+03  0.53639524808E+03  0.00000000000E+00 0. -1.
         25    2    1    2    0    0  0.67896450208E+02  0.28438115760E+02 -0.15645696345E+03  0.21341089899E+03  0.12508707374E+03 0.  0.
          5    1    3    3  502    0  0.19774916441E+02  0.22714984817E+02  0.15907151328E+02  0.34315123763E+02  0.41800000000E+01 0.  1.
         -5    1    3    3    0  502  0.48121533767E+02  0.57231309431E+01 -0.17236411478E+03  0.17909577523E+03  0.41800000000E+01 0.  1.
        -11    1    1    2    0    0 -0.16799247593E+02 -0.47157369954E+02 -0.86419247905E+02  0.99871510799E+02  0.00000000000E+00 0.  1.
         11    1    1    2    0    0 -0.51097202614E+02  0.18719254194E+02 -0.25544993684E+03  0.26118193817E+03  0.00000000000E+00 0. -1.
</event>
<event>
 7    1  0.2394257E-009  0.1438431E+03  0.7561462E-02  0.1208249E+00
          1   -1    0    0  501    0  0.00000000000E+00  0.00000000000E+00  0.10598921021E+04  0.10598921021E+04  0.00000000000E+00 0. -1.
         -1   -1    0    0    0  501 -0.00000000000E+00 -0.00000000000E+00 -0.24389139184E+02  0.24389139184E+02  0.00000000000E+00 0.  1.
         25    2    1    2    0    0  0.64006545562E+02 -0.94335330442E+02  0.66342287946E+03  0.68467068465E+03  0.12509211401E+03 0.  0.
          5    1    3    3  502    0 -0.14361498117E+02 -0.49155580464E+02  0.44872279963E+03  0.45165489816E+03  0.41800000000E+01 0. -1.
         -5    1    3    3    0  502  0.78368043679E+02 -0.45179749978E+02  0.21470007982E+03  0.23301578649E+03  0.41800000000E+01 0. -1.
        -11    1    1    2    0    0 -0.84063959864E+02  0.93416407895E+02  0.32211405287E+03  0.34576124374E+03  0.00000000000E+00 0.  1.
         11    1    1    2    0    0  0.20057414302E+02  0.91892254712E+00  0.49966030596E+02  0.53849312908E+02  0.00000000000E+00 0. -1.
</event>
<event>
 7    1  0.2394257E-009  0.2738591E+03  0.7561462E-02  0.1099091E+00
          2   -1    0    0  501    0  0.00000000000E+00  0.00000000000E+00  0.82992695117E+03  0.82992695117E+03  0.00000000000E+00 0. -1.
         -2   -1    0    0    0  501 -0.00000000000E+00 -0.00000000000E+00 -0.94046834669E+02  0.94046834669E+02  0.00000000000E+00 0.  1.
         25    2    1    2    0    0 -0.18911437512E+03  0.17440934794E+03  0.37896167515E+03  0.47480594994E+03  0.12508345750E+03 0.  0.
          5    1    3    3  502    0 -0.17649278242E+03  0.86043149389E+02  0.27042362110E+03  0.33421480077E+03  0.41800000000E+01 0.  1.
         -5    1    3    3    0  502 -0.12621592700E+02  0.88366198551E+02  0.10853805405E+03  0.14059114917E+03  0.41800000000E+01 0.  1.
        -11    1    1    2    0    0  0.80520950428E+02 -0.42316294712E+02  0.18776933122E+03  0.20864231115E+03  0.00000000000E+00 0. -1.
         11    1    1    2    0    0  0.10859342469E+03 -0.13209305323E+03  0.16914911013E+03  0.24052552475E+03  0.00000000000E+00 0.  1.
</event>
<event>
 7    1  0.3252631E-009  0.1871787E+03  0.7561462E-02  0.1161031E+00
          2   -1    0    0  501    0  0.00000000000E+00  0.00000000000E+00  0.11887632741E+04  0.11887632741E+04  0.00000000000E+00 0. -1.
         -2   -1    0    0    0  501 -0.00000000000E+00 -0.00000000000E+00 -0.34060520507E+02  0.34060520507E+02  0.00000000000E+00 0.  1.
         25    2    1    2    0    0 -0.14425639544E+03 -0.74491916346E+02  0.74911746198E+03  0.77665083411E+03  0.12510233032E+03 0.  0.
          5    1    3    3  502    0 -0.13278044575E+03 -0.35858400289E+01  0.49841615518E+03  0.51582908135E+03  0.41800000000E+01 0.  1.
         -5    1    3    3    0  502 -0.11475949688E+02 -0.70906076317E+02  0.25070130680E+03  0.26082175276E+03  0.41800000000E+01 0.  1.
        -11    1    1    2    0    0  0.63730903222E+02  0.60318010195E+02  0.30035939750E+03  0.31291477761E+03  0.00000000000E+00 0. -1.
         11    1    1    2    0    0  0.80525492220E+02  0.14173906151E+02  0.10522589407E+03  0.13325818285E+03  0.00000000000E+00 0.  1.
</event>
<event>
 7    1  0.2394257E-009  0.1809771E+03  0.7561462E-02  0.1166861E+00
          3   -1    0    0  501    0  0.00000000000E+00  0.00000000000E+00  0.44641731444E+02  0.44641731444E+02  0.00000000000E+00 0. -1.
         -3   -1    0    0    0  501 -0.00000000000E+00 -0.00000000000E+00 -0.82590614842E+03  0.82590614842E+03  0.00000000000E+00 0.  1.
         25    2    1    2    0    0 -0.69935220825E+02  0.14153353365E+03 -0.44502059015E+03  0.48848084515E+03  0.12509010418E+03 0.  0.
          5    1    3    3  502    0 -0.77419639488E+02  0.15147954889E+03 -0.44378534789E+03  0.47529229082E+03  0.41800000000E+01 0.  1.
         -5    1    3    3    0  502  0.74844186628E+01 -0.99460152437E+01 -0.12352422611E+01  0.13188554333E+02  0.41800000000E+01 0.  1.
        -11    1    1    2    0    0  0.16705117212E+02  0.90085143766E+01 -0.18736205079E+02  0.26669451684E+02  0.00000000000E+00 0.  1.
         11    1    1    2    0    0  0.53230103613E+02 -0.15054204803E+03 -0.31750762175E+03  0.35539758303E+03  0.00000000000E+00 0. -1.
</event>
<event>
 7    1  0.2394257E-009  0.1446906E+03  0.7561462E-02  0.1207153E+00
         -1   -1    0    0    0  501 -0.00000000000E+00  0.00000000000E+00  0.33965989936E+03  0.33965989936E+03  0.00000000000E+00 0.  1.
          1   -1    0    0  501    0  0.00000000000E+00 -0.00000000000E+00 -0.96139371441E+02  0.96139371441E+02  0.00000000000E+00 0. -1.
         25    2    1    2    0    0 -0.26027276102E+02  0.14195674103E+03  0.11265101591E+03  0.22173669097E+03  0.12509106008E+03 0.  0.
          5    1    3    3  502    0 -0.24371530589E+02  0.12675410789E+03  0.23595856444E+02  0.13128142371E+03  0.41800000000E+01 0.  1.
         -5    1    3    3    0  502 -0.16557455132E+01  0.15202633137E+02  0.89055159463E+02  0.90455267256E+02  0.41800000000E+01 0.  1.
        -11    1    1    2    0    0  0.77647878502E+01 -0.32517967232E+02 -0.98597273993E+01  0.34855764913E+02  0.00000000000E+00 0. -1.
         11    1    1    2    0    0  0.18262488252E+02 -0.10943877380E+03  0.14072923941E+03  0.17920681492E+03  0.00000000000E+00 0.  1.
</event>
<event>
 7    1  0.2394257E-009  0.3044034E+03  0.7561462E-02  0.1083060E+00
         -1   -1    0    0    0  501 -0.00000000000E+00  0.00000000000E+00  0.18917023589E+04  0.18917023589E+04  0.00000000000E+00 0.  1.
          1   -1    0    0  501    0  0.00000000000E+00 -0.00000000000E+00 -0.51175180577E+02  0.51175180577E+02  0.00000000000E+00 0. -1.
         25    2    1    2    0    0  0.55036765829E+02 -0.28165874151E+03  0.10907678003E+04  0.11348051069E+04  0.12509014445E+03 0.  0.
          5    1    3    3  502    0  0.90656828429E+02 -0.18597583232E+03  0.64099694076E+03  0.67357272897E+03  0.41800000000E+01 0. -1.
         -5    1    3    3    0  502 -0.35620062599E+02 -0.95682909194E+02  0.44977085955E+03  0.46123237795E+03  0.41800000000E+01 0. -1.
        -11    1    1    2    0    0 -0.70676345732E+02  0.13673706394E+03  0.34195582539E+03  0.37500127602E+03  0.00000000000E+00 0.  1.
         11    1    1    2    0    0  0.15639579902E+02  0.14492167757E+03  0.40780355267E+03  0.43307115658E+03  0.00000000000E+00 0. -1.
</event>
<event>
 7    1  0.2394257E-009  0.1321406E+03  0.7561462E-02  0.1224314E+00
          1   -1    0    0  501    0  0.00000000000E+00  0.00000000000E+00  0.96136764072E+03  0.96136764072E+03  0.00000000000E+00 0. -1.
         -1   -1    0    0    0  501 -0.00000000000E+00 -0.00000000000E+00 -0.23320725676E+02  0.23320725676E+02  0.00000000000E+00 0.  1.
         25    2    1    2    0    0 -0.10255732897E+03  0.31952521483E+00  0.51430074693E+03  0.53913969200E+03  0.12509293095E+03 0.  0.
          5    1    3    3  502    0 -0.29699017106E+02 -0.52437474521E+02  0.31063366063E+03  0.31645294100E+03  0.41800000000E+01 0.  1.
         -5    1    3    3    0  502 -0.72858311859E+02  0.52756999736E+02  0.20366708630E+03  0.22268675100E+03  0.41800000000E+01 0.  1.
        -11    1    1    2    0    0  0.22362437623E+02  0.21174395096E+02  0.29468463707E+02  0.42624218202E+02  0.00000000000E+00 0.  1.
         11    1    1    2    0    0  0.80194891343E+02 -0.21493920311E+02  0.39427770441E+03  0.40292445620E+03  0.00000000000E+00 0. -1.
</event>
<event>
 7    1  0.2394257E-009  0.1144781E+03  0.7561462E-02  0.1252495E+00
          1   -1    0    0  501    0  0.00000000000E+00  0.00000000000E+00  0.29603038571E+02  0.29603038571E+02  0.00000000000E+00 0. -1.
         -1   -1    0    0    0  501 -0.00000000000E+00 -0.00000000000E+00 -0.45083903062E+03  0.45083903062E+03  0.00000000000E+00 0.  1.
         25    2    1    2    0    0  0.23163517161E+02 -0.32214653872E+02 -0.26062880080E+03  0.29180464375E+03  0.12509294888E+03 0.  0.
          5    1    3    3  502    0  0.38380519285E+02 -0.75398302998E+02 -0.18136389311E+03  0.20017068337E+03  0.41800000000E+01 0. -1.
         -5    1    3    3    0  502 -0.15217002124E+02  0.43183649126E+02 -0.79264907684E+02  0.91633960384E+02  0.41800000000E+01 0. -1.
        -11    1    1    2    0    0 -0.53326821865E+02 -0.10899506908E+01 -0.97996542137E+02  0.11157177149E+03  0.00000000000E+00 0.  1.
         11    1    1    2    0    0  0.30163304704E+02  0.33304604563E+02 -0.62610649118E+02  0.77065653950E+02  0.00000000000E+00 0. -1.
</event>
<event>
 7    1  0.2394257E-009  0.1143366E+03  0.7561462E-02  0.1252744E+00
          1   -1    0    0  501    0  0.00000000000E+00  0.00000000000E+00  0.57156454599E+03  0.57156454599E+03  0.00000000000E+00 0. -1.
         -1   -1    0    0    0  501 -0.00000000000E+00 -0.00000000000E+00 -0.36452248480E+02  0.36452248480E+02  0.00000000000E+00 0.  1.
         25    2    1    2    0    0  0.57363462038E+02  0.55487674798E+02  0.21819468610E+03  0.26386581453E+03  0.12508716242E+03 0.  0.
          5    1    3    3  502    0 -0.26297360015E+01  0.40473578315E+02  0.19249304687E+03  0.19676399962E+03  0.41800000000E+01 0. -1.
         -5    1    3    3    0  502  0.59993198040E+02  0.15014096484E+02  0.25701639226E+02  0.67101814902E+02  0.41800000000E+01 0. -1.
        -11    1    1    2    0    0  0.19385810777E+02 -0.44298154311E+02  0.68070248396E+02  0.83496675691E+02  0.00000000000E+00 0.  1.
         11    1    1    2    0    0 -0.76749272816E+02 -0.11189520488E+02  0.24884736301E+03  0.26065430425E+03  0.00000000000E+00 0. -1.
</event>
<event>
 7    1  0.2542370E-009  0.1003806E+03  0.7561462E-02  0.1279498E+00
         -4   -1    0    0    0  501 -0.00000000000E+00  0.00000000000E+00  0.25189029054E+02  0.25189029054E+02  0.00000000000E+00 0.  1.
          4   -1    0    0  501    0  0.00000000000E+00 -0.00000000000E+00 -0.54939505210E+03  0.54939505210E+03  0.00000000000E+00 0. -1.
         25    2    1    2    0    0 -0.16976841607E+02 -0.93336068875E+01 -0.19532777219E+03  0.23275665548E+03  0.12508953878E+03 0.  0.
          5    1    3    3  502    0 -0.42254611691E+02 -0.56548291265E+02 -0.89403219103E+02  0.11398933915E+03  0.41800000000E+01 0. -1.
         -5    1    3    3    0  502  0.25277770084E+02  0.47214684377E+02 -0.10592455309E+03  0.11876731633E+03  0.41800000000E+01 0. -1.
        -11    1    1    2    0    0 -0.27145037074E+02 -0.89284478374E+01 -0.40760820287E+02  0.49779661399E+02  0.00000000000E+00 0.  1.
         11    1    1    2    0    0  0.44121878680E+02  0.18262054725E+02 -0.28811743057E+03  0.29204776427E+03  0.00000000000E+00 0. -1.
</event>
<event>
 7    1  0.2394257E-009  0.1761748E+03  0.7561462E-02  0.1171557E+00
         -1   -1    0    0    0  501 -0.00000000000E+00  0.00000000000E+00  0.24329274565E+03  0.24329274565E+03  0.00000000000E+00 0.  1.
          1   -1    0    0  501    0  0.00000000000E+00 -0.00000000000E+00 -0.16133394194E+03  0.16133394194E+03  0.00000000000E+00 0. -1.
         25    2    1    2    0    0  0.13624987139E+03  0.96547049577E+02  0.46782927844E+02  0.21382597020E+03  0.12509013933E+03 0.  0.
          5    1    3    3  502    0  0.14059555406E+03  0.10347916010E+03  0.89031277273E+01  0.17484788955E+03  0.41800000000E+01 0. -1.
         -5    1    3    3    0  502 -0.43456826755E+01 -0.69321105200E+01  0.37879800117E+02  0.38978080649E+02  0.41800000000E+01 0. -1.
        -11    1    1    2    0    0 -0.80619123007E+02 -0.43195475602E+02  0.60508321315E+02  0.10966562385E+03  0.00000000000E+00 0.  1.
         11    1    1    2    0    0 -0.55630748378E+02 -0.53351573974E+02 -0.25332445456E+02  0.81135093538E+02  0.00000000000E+00 0. -1.
</event>
<event>
 7    1  0.2394257E-009  0.1094290E+03  0.7561462E-02  0.1261631E+00
         -2   -1    0    0    0  501 -0.00000000000E+00  0.00000000000E+00  0.14720253430E+02  0.14720253430E+02  0.00000000000E+00 0. -1.
          2   -1    0    0  501    0  0.00000000000E+00 -0.00000000000E+00 -0.11531505383E+04  0.11531505383E+04  0.00000000000E+00 0.  1.
         25    2    1    2    0    0 -0.12017821578E+02  0.66485046962E+02 -0.73307302215E+03  0.74673109131E+03  0.12508627987E+03 0.  0.
          5    1    3    3  502    0 -0.45697751466E+02  0.22160418149E+01 -0.10689812617E+03  0.11635238334E+03  0.41800000000E+01 0.  1.
         -5    1    3    3    0  502  0.33679929888E+02  0.64269005147E+02 -0.62617489598E+03  0.63037870796E+03  0.41800000000E+01 0.  1.
        -11    1    1    2    0    0  0.43253774713E+02 -0.32692739634E+02 -0.31612084409E+03  0.32073679602E+03  0.00000000000E+00 0.  1.
         11    1    1    2    0    0 -0.31235953135E+02 -0.33792307328E+02 -0.89236418592E+02  0.10040290437E+03  0.00000000000E+00 0. -1.
</event>
<event>
 7    1  0.2394257E-009  0.2779694E+03  0.7561462E-02  0.1096803E+00
          1   -1    0    0  501    0  0.00000000000E+00  0.00000000000E+00  0.53474472818E+02  0.53474472818E+02  0.00000000000E+00 0. -1.
         -1   -1    0    0    0  501 -0.00000000000E+00 -0.00000000000E+00 -0.14728779789E+04  0.14728779789E+04  0.00000000000E+00 0.  1.
         25    2    1    2    0    0  0.25619113187E+03 -0.16642105847E+02 -0.64842713421E+03  0.70853090884E+03  0.12508974644E+03 0.  0.
          5    1    3    3  502    0  0.13877623982E+03  0.53331238341E+02 -0.34747451484E+03  0.37796703109E+03  0.41800000000E+01 0. -1.
         -5    1    3    3    0  502  0.11741489205E+03 -0.69973344188E+02 -0.30095261937E+03  0.33056387775E+03  0.41800000000E+01 0. -1.
        -11    1    1    2    0    0 -0.14516507536E+03  0.51597728857E+02 -0.38517309807E+03  0.41484158447E+03  0.00000000000E+00 0.  1.
         11    1    1    2    0    0 -0.11102605652E+03 -0.34955623010E+02 -0.38580327384E+03  0.40297995845E+03  0.00000000000E+00 0. -1.
</event>
<event>
 7    1  0.2394257E-009  0.9849115E+02  0.7561462E-02  0.1283501E+00
          2   -1    0    0  501    0  0.00000000000E+00  0.00000000000E+00  0.96686595432E+03  0.96686595432E+03  0.00000000000E+00 0.  1.
         -2   -1    0    0    0  501 -0.00000000000E+00 -0.00000000000E+00 -0.20683413444E+02  0.20683413444E+02  0.00000000000E+00 0. -1.
         25    2    1    2    0    0 -0.17386556680E+02  0.83269708147E+02  0.56337645475E+03  0.58333169840E+03  0.12508678565E+03 0.  0.
          5    1    3    3  502    0 -0.45308937198E+02  0.52105356066E+02  0.51330086564E+03  0.51794123121E+03  0.41800000000E+01 0. -1.
         -5    1    3    3    0  502  0.27922380518E+02  0.31164352080E+02  0.50075589104E+02  0.65390467184E+02  0.41800000000E+01 0. -1.
        -11    1    1    2    0    0  0.18573459159E+02 -0.69679054548E+02  0.38382209349E+03  0.39053750585E+03  0.00000000000E+00 0.  1.
         11    1    1    2    0    0 -0.11869024797E+01 -0.13590653599E+02 -0.10160073615E+01  0.13680163511E+02  0.00000000000E+00 0. -1.
</event>
<event>
 7    1  0.2394257E-009  0.6899276E+02  0.7561462E-02  0.1363552E+00
          1   -1    0    0  501    0  0.00000000000E+00  0.00000000000E+00  0.60207356277E+02  0.60207356277E+02  0.00000000000E+00 0. -1.
         -1   -1    0    0    0  501 -0.00000000000E+00 -0.00000000000E+00 -0.21003844559E+03  0.21003844559E+03  0.00000000000E+00 0.  1.
         25    2    1    2    0    0  0.38877735042E+01  0.25855415806E+02 -0.70614799716E+02  0.14600293947E+03  0.12508713397E+03 0.  0.
          5    1    3    3  502    0 -0.34845897261E+02  0.34269150003E+02 -0.89375710943E+02  0.10195146544E+03  0.41800000000E+01 0. -1.
         -5    1    3    3    0  502  0.38733670765E+02 -0.84137341971E+01  0.18760911227E+02  0.44051474030E+02  0.41800000000E+01 0. -1.
        -11    1    1    2    0    0 -0.22722354199E+02 -0.12011212602E+02 -0.93419681434E+02  0.96890719307E+02  0.00000000000E+00 0.  1.
         11    1    1    2    0    0  0.18834580695E+02 -0.13844203205E+02  0.14203391836E+02  0.27352143096E+02  0.00000000000E+00 0. -1.
</event>
<event>
 7    1  0.2394257E-009  0.8231581E+02  0.7561462E-02  0.1322605E+00
         -1   -1    0    0    0  501 -0.00000000000E+00  0.00000000000E+00  0.27521268505E+02  0.27521268505E+02  0.00000000000E+00 0.  1.
          1   -1    0    0  501    0  0.00000000000E+00 -0.00000000000E+00 -0.59567573487E+03  0.59567573487E+03  0.00000000000E+00 0. -1.
         25    2    1    2    0    0  0.45427634093E+02 -0.28090884720E+02 -0.41488722822E+03  0.43661451435E+03  0.12509218304E+03 0.  0.
          5    1    3    3  502    0 -0.16063500136E+02 -0.88363538306E+01 -0.32708734784E+03  0.32762741445E+03  0.41800000000E+01 0.  1.
         -5    1    3    3    0  502  0.61491134229E+02 -0.19254530889E+02 -0.87799880380E+02  0.10898709989E+03  0.41800000000E+01 0.  1.
        -11    1    1    2    0    0 -0.31832748417E+02 -0.15635922915E+02 -0.11007428474E+02  0.37134477764E+02  0.00000000000E+00 0.  1.
         11    1    1    2    0    0 -0.13594885676E+02  0.43726807635E+02 -0.14225980968E+03  0.14944801127E+03  0.00000000000E+00 0. -1.
</event>
<event>
 7    1  0.2394257E-009  0.9526544E+02  0.7561462E-02  0.1290579E+00
          1   -1    0    0  501    0  0.00000000000E+00  0.00000000000E+00  0.47519860917E+02  0.47519860917E+02  0.00000000000E+00 0. -1.
         -1   -1    0    0    0  501 -0.00000000000E+00 -0.00000000000E+00 -0.30156854993E+03  0.30156854993E+03  0.00000000000E+00 0.  1.
         25    2    1    2    0    0 -0.73995854743E+01 -0.25738865426E+02 -0.20170911617E+03  0.23885658646E+03  0.12509459737E+03 0.  0.
          5    1    3    3  502    0  0.16306270308E+02 -0.69299185901E+02 -0.15492551602E+03  0.17055104671E+03  0.41800000000E+01 0. -1.
         -5    1    3    3    0  502 -0.23705855783E+02  0.43560320475E+02 -0.46783600147E+02  0.68305539753E+02  0.41800000000E+01 0. -1.
        -11    1    1    2    0    0 -0.26687530961E+02  0.23034189791E+02  0.12108047040E+02  0.37274696662E+02  0.00000000000E+00 0. -1.
         11    1    1    2    0    0  0.34087116435E+02  0.27046756354E+01 -0.64447619883E+02  0.72957127724E+02  0.00000000000E+00 0.  1.
</event>
<event>
 7    1  0.2394257E-009  0.9288202E+02  0.7561462E-02  0.1296019E+00
          2   -1    0    0  501    0  0.00000000000E+00  0.00000000000E+00  0.22773450784E+03  0.22773450784E+03  0.00000000000E+00 0. -1.
         -2   -1    0    0    0  501 -0.00000000000E+00 -0.00000000000E+00 -0.55306087468E+02  0.55306087468E+02  0.00000000000E+00 0.  1.
         25    2    1    2    0    0 -0.11975993281E+02  0.21968292799E+02  0.72490370929E+02  0.14672510970E+03  0.12508946253E+03 0.  0.
          5    1    3    3  502    0  0.49739435099E+02  0.13282631494E+01  0.63681543964E+02  0.80923341062E+02  0.41800000000E+01 0. -1.
         -5    1    3    3    0  502 -0.61715428380E+02  0.20640029649E+02  0.88088269652E+01  0.65801768643E+02  0.41800000000E+01 0. -1.
        -11    1    1    2    0    0 -0.15918995272E+01  0.23305074314E+02  0.82815248687E+02  0.86046650417E+02  0.00000000000E+00 0. -1.
         11    1    1    2    0    0  0.13567892808E+02 -0.45273367113E+02  0.17122800752E+02  0.50268835182E+02  0.00000000000E+00 0.  1.
</event>
<event>
 7    1  0.2394257E-009  0.1025101E+03  0.7561462E-02  0.1275104E+00
          2   -1    0    0  501    0  0.00000000000E+00  0.00000000000E+00  0.43185155824E+03  0.43185155824E+03  0.00000000000E+00 0. -1.
         -2   -1    0    0    0  501 -0.00000000000E+00 -0.00000000000E+00 -0.28365682978E+02  0.28365682978E+02  0.00000000000E+00 0.  1.
         25    2    1    2    0    0  0.37509887865E+01 -0.87569271681E+01  0.27768330469E+03  0.30470700364E+03  0.12509031407E+03 0.  0.
          5    1    3    3  502    0 -0.39295711016E+02  0.40330969368E+02  0.93235527819E+02  0.10900034882E+03  0.41800000000E+01 0. -1.
         -5    1    3    3    0  502  0.43046699803E+02 -0.49087896536E+02  0.18444777687E+03  0.19570665482E+03  0.41800000000E+01 0. -1.
        -11    1    1    2    0    0  0.37024737054E+02  0.18233389208E+02  0.30188601768E+02  0.51133543908E+02  0.00000000000E+00 0.  1.
         11    1    1    2    0    0 -0.40775725841E+02 -0.94764620399E+01  0.95613968805E+02  0.10437669367E+03  0.00000000000E+00 0. -1.
</event>
<event>
 7    1  0.2786848E-009  0.1621753E+03  0.7561462E-02  0.1186263E+00
         -2   -1    0    0    0  501 -0.00000000000E+00  0.00000000000E+00  0.29792278440E+02  0.29792278440E+02  0.00000000000E+00 0.  1.
          2   -1    0    0  501    0  0.00000000000E+00 -0.00000000000E+00 -0.11315604595E+04  0.11315604595E+04  0.00000000000E+00 0. -1.
         25    2    1    2    0    0  0.10885794080E+03  0.85912523279E+02 -0.74282555626E+03  0.76594300357E+03  0.12509142559E+03 0.  0.
          5    1    3    3  502    0  0.56211883074E+02  0.11213566246E+03 -0.55798285612E+03  0.57192352873E+03  0.41800000000E+01 0.  1.
         -5    1    3    3    0  502  0.52646057721E+02 -0.26223139178E+02 -0.18484270014E+03  0.19401947484E+03  0.41800000000E+01 0.  1.
        -11    1    1    2    0    0 -0.37998555124E+02 -0.19263965347E+02 -0.29281053385E+02  0.51694976929E+02  0.00000000000E+00 0.  1.
         11    1    1    2    0    0 -0.70859385672E+02 -0.66648557933E+02 -0.32966157137E+03  0.34371475740E+03  0.00000000000E+00 0. -1.
</event>
<event>
 7    1  0.2394257E-009  0.1041997E+03  0.7561462E-02  0.1271705E+00
          2   -1    0    0  501    0  0.00000000000E+00  0.00000000000E+00  0.50043903359E+03  0.50043903359E+03  0.00000000000E+00 0. -1.
         -2   -1    0    0    0  501 -0.00000000000E+00 -0.00000000000E+00 -0.27575560548E+02  0.27575560548E+02  0.00000000000E+00 0.  1.
         25    2    1    2    0    0 -0.20359803426E+02  0.36168262181E+02  0.31895710447E+03  0.34511527703E+03  0.12509298607E+03 0.  0.
          5    1    3    3  502    0  0.59451040168E+01  0.68048157364E+02  0.27972918033E+03  0.28797878865E+03  0.41800000000E+01 0.  1.
         -5    1    3    3    0  502 -0.26304907442E+02 -0.31879895183E+02  0.39227924140E+02  0.57136488383E+02  0.41800000000E+01 0.  1.
        -11    1    1    2    0    0  0.39591239977E+02 -0.57429195871E+02  0.11625705972E+03  0.13557758943E+03  0.00000000000E+00 0.  1.
         11    1    1    2    0    0 -0.19231436551E+02  0.21260933690E+02  0.37649308857E+02  0.47321727680E+02  0.00000000000E+00 0. -1.
</event>
<event>
 7    1  0.2394257E-009  0.3915240E+03  0.7561462E-02  0.1046755E+00
         -2   -1    0    0    0  501 -0.00000000000E+00  0.00000000000E+00  0.53855630208E+02  0.53855630208E+02  0.00000000000E+00 0.  1.
          2   -1    0    0  501    0  0.00000000000E+00 -0.00000000000E+00 -0.31468599204E+04  0.31468599204E+04  0.00000000000E+00 0. -1.
         25    2    1    2    0    0 -0.28369316292E+03  0.25786191359E+03 -0.11626963502E+04  0.12306442543E+04  0.12509156907E+03 0.  0.
          5    1    3    3  502    0 -0.15482809690E+03  0.68916800008E+02 -0.40152959452E+03  0.43584946093E+03  0.41800000000E+01 0.  1.
         -5    1    3    3    0  502 -0.12886506601E+03  0.18894511358E+03 -0.76116675571E+03  0.79479479338E+03  0.41800000000E+01 0.  1.
        -11    1    1    2    0    0  0.10785867932E+03 -0.76943251124E+02 -0.47841182966E+03  0.49641881246E+03  0.00000000000E+00 0. -1.
         11    1    1    2    0    0  0.17583448360E+03 -0.18091866246E+03 -0.14518961103E+04  0.14736524838E+04  0.00000000000E+00 0.  1.
</event>
<event>
 7    1  0.2394257E-009  0.1286313E+03  0.7561462E-02  0.1229501E+00
         -1   -1    0    0    0  501 -0.00000000000E+00  0.00000000000E+00  0.81363051851E+03  0.81363051851E+03  0.00000000000E+00 0.  1.
          1   -1    0    0  501    0  0.00000000000E+00 -0.00000000000E+00 -0.21956191624E+02  0.21956191624E+02  0.00000000000E+00 0. -1.
         25    2    1    2    0    0  0.38098278446E+02  0.67074278371E+02  0.42860578650E+03  0.45310076747E+03  0.12508775968E+03 0.  0.
          5    1    3    3  502    0 -0.35907125566E+02 -0.78120370110E+01  0.67883405277E+02  0.77304454598E+02  0.41800000000E+01 0. -1.
         -5    1    3    3    0  502  0.74005404012E+02  0.74886315382E+02  0.36072238123E+03  0.37579631288E+03  0.41800000000E+01 0. -1.
        -11    1    1    2    0    0 -0.44762752252E+02  0.26766530511E+01  0.20061601535E+03  0.20556666577E+03  0.00000000000E+00 0.  1.
         11    1    1    2    0    0  0.66644738064E+01 -0.69750931422E+02  0.16245252503E+03  0.17691927689E+03  0.00000000000E+00 0. -1.
</event>
<event>
 7    1  0.2394257E-009  0.1489841E+03  0.7561462E-02  0.1201727E+00
          1   -1    0    0  501    0  0.00000000000E+00  0.00000000000E+00  0.59316419951E+02  0.59316419951E+02  0.00000000000E+00 0. -1.
         -1   -1    0    0    0  501 -0.00000000000E+00 -0.00000000000E+00 -0.39047149308E+03  0.39047149308E+03  0.00000000000E+00 0.  1.
         25    2    1    2    0    0 -0.95664091038E+02 -0.43283059970E+02 -0.19783550926E+03  0.25653621550E+03  0.12508756751E+03 0.  0.
          5    1    3    3  502    0  0.28037509949E+02 -0.48643421144E+01 -0.64364505636E+02  0.70498409728E+02  0.41800000000E+01 0.  1.
         -5    1    3    3    0  502 -0.12370160099E+03 -0.38418717856E+02 -0.13347100362E+03  0.18603780577E+03  0.41800000000E+01 0.  1.
        -11    1    1    2    0    0  0.26195969898E+02  0.62301155966E+02 -0.58317209357E+02  0.89266789910E+02  0.00000000000E+00 0.  1.
         11    1    1    2    0    0  0.69468121141E+02 -0.19018095996E+02 -0.75002354509E+02  0.10398490762E+03  0.00000000000E+00 0. -1.
</event>
<event>
 7    1  0.2394257E-009  0.8205046E+02  0.7561462E-02  0.1323331E+00
         -3   -1    0    0    0  501 -0.00000000000E+00  0.00000000000E+00  0.10413356215E+03  0.10413356215E+03  0.00000000000E+00 0.  1.
          3   -1    0    0  501    0  0.00000000000E+00 -0.00000000000E+00 -0.40317947601E+03  0.40317947601E+03  0.00000000000E+00 0. -1.
         25    2    1    2    0    0  0.40735172892E+02 -0.32831140557E+02  0.48712030223E+02  0.14407631579E+03  0.12509150563E+03 0.  0.
          5    1    3    3  502    0  0.20639011082E+01 -0.39193646521E+02 -0.34230495335E+02  0.52245581883E+02  0.41800000000E+01 0.  1.
         -5    1    3    3    0  502  0.38671271783E+02  0.63625059640E+01  0.82942525558E+02  0.91830733904E+02  0.41800000000E+01 0.  1.
        -11    1    1    2    0    0  0.18228575578E+02  0.11091978667E+01 -0.14498333091E+02  0.23317653182E+02  0.00000000000E+00 0.  1.
         11    1    1    2    0    0 -0.58963748469E+02  0.31721942690E+02 -0.33325961099E+03  0.33991906919E+03  0.00000000000E+00 0. -1.
</event>
<event>
 7    1  0.2394257E-009  0.7782447E+02  0.7561462E-02  0.1335341E+00
         -3   -1    0    0    0  501 -0.00000000000E+00  0.00000000000E+00  0.20584756986E+03  0.20584756986E+03  0.00000000000E+00 0.  1.
          3   -1    0    0  501    0  0.00000000000E+00 -0.00000000000E+00 -0.65714065484E+02  0.65714065484E+02  0.00000000000E+00 0. -1.
         25    2    1    2    0    0  0.13175402813E+02  0.36775448593E+02  0.97349738304E+02  0.16324935840E+03  0.12508939448E+03 0.  0.
          5    1    3    3  502    0  0.11240790580E+02 -0.68335907913E+01 -0.27583095782E+02  0.30844009287E+02  0.41800000000E+01 0. -1.
         -5    1    3    3    0  502  0.19346122338E+01  0.43609039384E+02  0.12493283409E+03  0.13240534911E+03  0.41800000000E+01 0. -1.
        -11    1    1    2    0    0 -0.49536599866E+02 -0.36670652369E+02  0.35833248828E+02  0.71292588626E+02  0.00000000000E+00 0.  1.
         11    1    1    2    0    0  0.36361197052E+02 -0.10479622386E+00  0.69505172425E+01  0.37019688319E+02  0.00000000000E+00 0. -1.
</event>
<event>
 7    1  0.2394257E-009  0.1058247E+03  0.7561462E-02  0.1268503E+00
         -1   -1    0    0    0  501 -0.00000000000E+00  0.00000000000E+00  0.17564514186E+02  0.17564514186E+02  0.00000000000E+00 0.  1.
          1   -1    0    0  501    0  0.00000000000E+00 -0.00000000000E+00 -0.74366691370E+03  0.74366691370E+03  0.00000000000E+00 0. -1.
         25    2    1    2    0    0  0.17984670299E+02 -0.35939744265E+02 -0.43153133492E+03  0.45109306548E+03  0.12510214677E+03 0.  0.
          5    1    3    3  502    0  0.30073540267E+02 -0.79821134633E+02 -0.29508645124E+03  0.30719589428E+03  0.41800000000E+01 0.  1.
         -5    1    3    3    0  502 -0.12088869968E+02  0.43881390369E+02 -0.13644488368E+03  0.14389717120E+03  0.41800000000E+01 0.  1.
        -11    1    1    2    0    0 -0.42664316451E+02  0.36058429264E+02 -0.26845708630E+03  0.27420733288E+03  0.00000000000E+00 0. -1.
         11    1    1    2    0    0  0.24679646152E+02 -0.11868499945E+00 -0.26113978301E+02  0.35931029529E+02  0.00000000000E+00 0.  1.
</event>
<event>
 7    1  0.2394257E-009  0.1399900E+03  0.7561462E-02  0.1213342E+00
          2   -1    0    0  501    0  0.00000000000E+00  0.00000000000E+00  0.19570809967E+04  0.19570809967E+04  0.00000000000E+00 0. -1.
         -2   -1    0    0    0  501 -0.00000000000E+00 -0.00000000000E+00 -0.16474187981E+02  0.16474187981E+02  0.00000000000E+00 0.  1.
         25    2    1    2    0    0 -0.79440377135E+02  0.53486361056E+02  0.16084186492E+04  0.16161160275E+04  0.12509555847E+03 0.  0.
          5    1    3    3  502    0  0.33383666884E+02  0.20796865637E+02  0.46049027665E+03  0.46218583506E+03  0.41800000000E+01 0.  1.
         -5    1    3    3    0  502 -0.11282404402E+03  0.32689495418E+02  0.11479283726E+04  0.11539301924E+04  0.41800000000E+01 0.  1.
        -11    1    1    2    0    0  0.49043497343E+02 -0.72134016477E+02  0.28648231859E+03  0.29946736021E+03  0.00000000000E+00 0. -1.
         11    1    1    2    0    0  0.30396879793E+02  0.18647655421E+02  0.45705840876E+02  0.57971796971E+02  0.00000000000E+00 0.  1.
</event>
<event>
 7    1  0.2663826E-009  0.7533845E+02  0.7561462E-02  0.1342826E+00
          1   -1    0    0  501    0  0.00000000000E+00  0.00000000000E+00  0.63005540391E+03  0.63005540391E+03  0.00000000000E+00 0. -1.
         -1   -1    0    0    0  501 -0.00000000000E+00 -0.00000000000E+00 -0.21194953982E+02  0.21194953982E+02  0.00000000000E+00 0.  1.
         25    2    1    2    0    0  0.22044526343E+02 -0.22078764834E+02  0.27705678774E+03  0.30558454042E+03  0.12509202498E+03 0.  0.
          5    1    3    3  502    0 -0.16962584266E+01  0.15178584775E+02  0.25595976257E+03  0.25644909668E+03  0.41800000000E+01 0. -1.
         -5    1    3    3    0  502  0.23740784770E+02 -0.37257349609E+02  0.21097025167E+02  0.49135443747E+02  0.41800000000E+01 0. -1.
        -11    1    1    2    0    0  0.26900770830E+02 -0.13362622288E+02  0.58494132238E+02  0.65755415381E+02  0.00000000000E+00 0.  1.
         11    1    1    2    0    0 -0.48945297173E+02  0.35441387122E+02  0.27330952995E+03  0.27991040209E+03  0.00000000000E+00 0. -1.
</event>
<event>
 7    1  0.2394257E-009  0.7825017E+02  0.7561462E-02  0.1334092E+00
          1   -1    0    0  501    0  0.00000000000E+00  0.00000000000E+00  0.27109750089E+03  0.27109750089E+03  0.00000000000E+00 0. -1.
         -1   -1    0    0    0  501 -0.00000000000E+00 -0.00000000000E+00 -0.77697472961E+02  0.77697472961E+02  0.00000000000E+00 0.  1.
         25    2    1    2    0    0 -0.63300036878E+02 -0.77717401142E+01  0.19113217652E+03  0.23716329447E+03  0.12509046620E+03 0.  0.
          5    1    3    3  502    0  0.60769276362E+01 -0.91772825549E+01 -0.15319825152E+02  0.19321516692E+02  0.41800000000E+01 0. -1.
         -5    1    3    3    0  502 -0.69376964514E+02  0.14055424407E+01  0.20645200167E+03  0.21784177778E+03  0.41800000000E+01 0. -1.
        -11    1    1    2    0    0  0.23360094794E+02 -0.16383991334E+02  0.41700773471E+02  0.50528048734E+02  0.00000000000E+00 0. -1.
         11    1    1    2    0    0  0.39939942085E+02  0.24155731448E+02 -0.39432922059E+02  0.61103630642E+02  0.00000000000E+00 0.  1.
</event>
<event>
 7    1  0.3015340E-009  0.1260135E+03  0.7561462E-02  0.1233494E+00
         -2   -1    0    0    0  501 -0.00000000000E+00  0.00000000000E+00  0.20345650381E+02  0.20345650381E+02  0.00000000000E+00 0.  1.
          2   -1    0    0  501    0  0.00000000000E+00 -0.00000000000E+00 -0.10927382470E+04  0.10927382470E+04  0.00000000000E+00 0. -1.
         25    2    1    2    0    0  0.37345253613E+02 -0.93075847746E+02 -0.64866231151E+03  0.66818264233E+03  0.12508983871E+03 0.  0.
          5    1    3    3  502    0  0.16010374410E+02  0.84059442007E+01 -0.98828355869E+01  0.21027002304E+02  0.41800000000E+01 0. -1.
         -5    1    3    3    0  502  0.21334879203E+02 -0.10148179195E+03 -0.63877947592E+03  0.64715564003E+03  0.41800000000E+01 0. -1.
        -11    1    1    2    0    0 -0.45602066565E+02  0.10630174794E+02 -0.95325650076E+02  0.10620512536E+03  0.00000000000E+00 0.  1.
         11    1    1    2    0    0  0.82568129515E+01  0.82445672952E+02 -0.32840463505E+03  0.33869612969E+03  0.00000000000E+00 0. -1.
</event>
<event>
 7    1  0.2394257E-009  0.1011653E+03  0.7561462E-02  0.1277864E+00
          2   -1    0    0  501    0  0.00000000000E+00  0.00000000000E+00  0.48356666454E+03  0.48356666454E+03  0.00000000000E+00 0. -1.
         -2   -1    0    0    0  501 -0.00000000000E+00 -0.00000000000E+00 -0.30551833098E+02  0.30551833098E+02  0.00000000000E+00 0.  1.
         25    2    1    2    0    0 -0.23139499682E+02  0.38463868545E+02  0.31971288713E+03  0.34623372064E+03  0.12508618422E+03 0.  0.
          5    1    3    3  502    0  0.27997491729E+02  0.40206558018E+02  0.44644113524E+02  0.66415330483E+02  0.41800000000E+01 0.  1.
         -5    1    3    3    0  502 -0.51136991411E+02 -0.17426894730E+01  0.27506877361E+03  0.27981839016E+03  0.41800000000E+01 0.  1.
        -11    1    1    2    0    0  0.58437958870E+02 -0.29202243458E+02  0.90921109235E+02  0.11195719791E+03  0.00000000000E+00 0.  1.
         11    1    1    2    0    0 -0.35298459189E+02 -0.92616250873E+01  0.42380835073E+02  0.55927579081E+02  0.00000000000E+00 0. -1.
</event>
<event>
 7    1  0.2394257E-009  0.1023706E+03  0.7561462E-02  0.1275389E+00
          2   -1    0    0  501    0  0.00000000000E+00  0.00000000000E+00  0.70574630627E+03  0.70574630627E+03  0.00000000000E+00 0.  1.
         -2   -1    0    0    0  501 -0.00000000000E+00 -0.00000000000E+00 -0.26904727079E+02  0.26904727079E+02  0.00000000000E+00 0. -1.
         25    2    1    2    0    0  0.83241986163E+01 -0.72666634293E+02  0.49699617292E+03  0.51768937677E+03  0.12508941962E+03 0.  0.
          5    1    3    3  502    0 -0.22594659370E+02 -0.77223758658E+02  0.46789552762E+03  0.47478176534E+03  0.41800000000E+01 0.  1.
         -5    1    3    3    0  502  0.30918857986E+02  0.45571243645E+01  0.29100645301E+02  0.42907611429E+02  0.41800000000E+01 0.  1.
        -11    1    1    2    0    0  0.20073904549E+02  0.56505871229E+02  0.46931630236E+02  0.76147574116E+02  0.00000000000E+00 0. -1.
         11    1    1    2    0    0 -0.28398103166E+02  0.16160763065E+02  0.13491377603E+03  0.13881408246E+03  0.00000000000E+00 0.  1.
</event>
<event>
 7    1  0.2394257E-009  0.2128800E+03  0.7561462E-02  0.1139305E+00
         -1   -1    0    0    0  501 -0.00000000000E+00  0.00000000000E+00  0.38269396554E+03  0.38269396554E+03  0.00000000000E+00 0.  1.
          1   -1    0    0  501    0  0.00000000000E+00 -0.00000000000E+00 -0.18048694222E+03  0.18048694222E+03  0.00000000000E+00 0. -1.
         25    2    1    2    0    0 -0.63403542889E+02  0.17412513870E+03  0.26374062240E+03  0.34575490426E+03  0.12509102580E+03 0.  0.
          5    1    3    3  502    0 -0.99248662797E+02  0.11538429988E+03  0.15712272577E+03  0.21878952689E+03  0.41800000000E+01 0. -1.
         -5    1    3    3    0  502  0.35845119908E+02  0.58740838822E+02  0.10661789664E+03  0.12696537737E+03  0.41800000000E+01 0. -1.
        -11    1    1    2    0    0  0.57482438778E+02 -0.39352413229E+02 -0.12680220775E+01  0.69673890911E+02  0.00000000000E+00 0.  1.
         11    1    1    2    0    0  0.59211041112E+01 -0.13477272547E+03 -0.60265577007E+02  0.14775211260E+03  0.00000000000E+00 0. -1.
</event>
<event>
 7    1  0.2394257E-009  0.8407820E+02  0.7561462E-02  0.1317861E+00
         -3   -1    0    0    0  501 -0.00000000000E+00  0.00000000000E+00  0.14867236417E+04  0.14867236417E+04  0.00000000000E+00 0.  1.
          3   -1    0    0  501    0  0.00000000000E+00 -0.00000000000E+00 -0.13741551640E+02  0.13741551640E+02  0.00000000000E+00 0. -1.
         25    2    1    2    0    0  0.49777168733E+02 -0.34187797513E+02  0.11762937832E+04  0.11844665894E+04  0.12508982819E+03 0.  0.
          5    1    3    3  502    0  0.16887861501E+02 -0.51725220609E+02  0.10760982994E+04  0.10774811927E+04  0.41800000000E+01 0. -1.
         -5    1    3    3    0  502  0.32889307232E+02  0.17537423096E+02  0.10019548380E+03  0.10698539673E+03  0.41800000000E+01 0. -1.
        -11    1    1    2    0    0  0.13828709160E+01  0.23841420678E+02  0.12305441592E+02  0.26865397162E+02  0.00000000000E+00 0. -1.
         11    1    1    2    0    0 -0.51160039649E+02  0.10346376835E+02  0.28438286526E+03  0.28913320672E+03  0.00000000000E+00 0.  1.
</event>
<event>
 7    1  0.2394257E-009  0.1176434E+03  0.7561462E-02  0.1247036E+00
         -3   -1    0    0    0  501 -0.00000000000E+00  0.00000000000E+00  0.71621267968E+02  0.71621267968E+02  0.00000000000E+00 0.  1.
          3   -1    0    0  501    0  0.00000000000E+00 -0.00000000000E+00 -0.26539238695E+03  0.26539238695E+03  0.00000000000E+00 0. -1.
         25    2    1    2    0    0  0.16878354232E+02  0.87304042311E+02 -0.11342138632E+03  0.19083765333E+03  0.12509086461E+03 0.  0.
          5    1    3    3  502    0 -0.14533222267E+02 -0.13771554923E+02 -0.75669128616E+02  0.78384690469E+02  0.41800000000E+01 0. -1.
         -5    1    3    3    0  502  0.31411576499E+02  0.10107559723E+03 -0.37752257701E+02  0.11245296286E+03  0.41800000000E+01 0. -1.
        -11    1    1    2    0    0 -0.20411465475E+02 -0.96719742789E+02 -0.43534677526E+02  0.10801205819E+03  0.00000000000E+00 0.  1.
         11    1    1    2    0    0  0.35331112433E+01  0.94157004771E+01 -0.36815055138E+02  0.38163943393E+02  0.00000000000E+00 0. -1.
</event>
<event>
 7    1  0.2394257E-009  0.1227572E+03  0.7561462E-02  0.1238617E+00
          3   -1    0    0  501    0  0.00000000000E+00  0.00000000000E+00  0.92667430951E+02  0.92667430951E+02  0.00000000000E+00 0. -1.
         -3   -1    0    0    0  501 -0.00000000000E+00 -0.00000000000E+00 -0.24227432462E+03  0.24227432462E+03  0.00000000000E+00 0.  1.
         25    2    1    2    0    0 -0.34320308654E+02  0.52149305468E+02 -0.17150398642E+03  0.22126714188E+03  0.12509235417E+03 0.  0.
          5    1    3    3  502    0 -0.59256317860E+02  0.80709438956E+02 -0.10920039513E+03  0.14821445084E+03  0.41800000000E+01 0.  1.
         -5    1    3    3    0  502  0.24936009205E+02 -0.28560133488E+02 -0.62303591290E+02  0.73052691036E+02  0.41800000000E+01 0.  1.
        -11    1    1    2    0    0 -0.83863588769E+01  0.20911038321E+02 -0.80208214866E+01  0.23915185890E+02  0.00000000000E+00 0.  1.
         11    1    1    2    0    0  0.42706667531E+02 -0.73060343788E+02  0.29917914239E+02  0.89759427797E+02  0.00000000000E+00 0. -1.
</event>
<event>
 7    1  0.2394257E-009  0.1530207E+03  0.7561462E-02  0.1196810E+00
          1   -1    0    0  501    0  0.00000000000E+00  0.00000000000E+00  0.57323218567E+02  0.57323218567E+02  0.00000000000E+00 0. -1.
         -1   -1    0    0    0  501 -0.00000000000E+00 -0.00000000000E+00 -0.44583465246E+03  0.44583465246E+03  0.00000000000E+00 0.  1.
         25    2    1    2    0    0 -0.11733020899E+03 -0.70330603116E+01 -0.19471188067E+03  0.25956608774E+03  0.12508395402E+03 0.  0.
          5    1    3    3  502    0 -0.11475798056E+03  0.41523320150E+02 -0.12794782299E+03  0.17686632813E+03  0.41800000000E+01 0. -1.
         -5    1    3    3    0  502 -0.25722284300E+01 -0.48556380461E+02 -0.66764057675E+02  0.82699759612E+02  0.41800000000E+01 0. -1.
        -11    1    1    2    0    0 -0.35392818832E+01  0.13625473625E+02 -0.66316000836E+02  0.67793746133E+02  0.00000000000E+00 0.  1.
         11    1    1    2    0    0  0.12086949087E+03 -0.65924133138E+01 -0.12748355239E+03  0.17579803715E+03  0.00000000000E+00 0. -1.
</event>
<event>
 7    1  0.2394257E-009  0.9684359E+02  0.7561462E-02  0.1287077E+00
          2   -1    0    0  501    0  0.00000000000E+00  0.00000000000E+00  0.22296345958E+03  0.22296345958E+03  0.00000000000E+00 0. -1.
         -2   -1    0    0    0  501 -0.00000000000E+00 -0.00000000000E+00 -0.10154926061E+03  0.10154926061E+03  0.00000000000E+00 0.  1.
         25    2    1    2    0    0  0.42638788387E+02 -0.60403654659E+02 -0.12936625300E+02  0.14588168795E+03  0.12508973912E+03 0.  0.
          5    1    3    3  502    0  0.13817397479E+02 -0.66680687606E+01  0.53378439332E+02  0.55696622875E+02  0.41800000000E+01 0.  1.
         -5    1    3    3    0  502  0.28821390908E+02 -0.53735585899E+02 -0.66315064633E+02  0.90185065077E+02  0.41800000000E+01 0.  1.
        -11    1    1    2    0    0 -0.21179394573E+02  0.82907647389E+02  0.10857226712E+03  0.13823958166E+03  0.00000000000E+00 0. -1.
         11    1    1    2    0    0 -0.21459393814E+02 -0.22503992730E+02  0.25778557143E+02  0.40391450580E+02  0.00000000000E+00 0.  1.
</event>
<event>
 7    1  0.2394257E-009  0.1478962E+03  0.7561462E-02  0.1203082E+00
         -2   -1    0    0    0  501 -0.00000000000E+00  0.00000000000E+00  0.57804896750E+02  0.57804896750E+02  0.00000000000E+00 0.  1.
          2   -1    0    0  501    0  0.00000000000E+00 -0.00000000000E+00 -0.46810386378E+03  0.46810386378E+03  0.00000000000E+00 0. -1.
         25    2    1    2    0    0  0.46979570743E+02 -0.10796740994E+03 -0.16796217049E+03  0.24025364849E+03  0.12508590337E+03 0.  0.
          5    1    3    3  502    0  0.44713491358E+02  0.16029287302E+02 -0.48056710143E+02  0.67698996673E+02  0.41800000000E+01 0.  1.
         -5    1    3    3    0  502  0.22660793857E+01 -0.12399669724E+03 -0.11990546034E+03  0.17255465181E+03  0.41800000000E+01 0.  1.
        -11    1    1    2    0    0 -0.36966088694E+02  0.36827601187E+02 -0.18929351039E+03  0.19635375473E+03  0.00000000000E+00 0. -1.
         11    1    1    2    0    0 -0.10013482049E+02  0.71139808750E+02 -0.53043286159E+02  0.89301357315E+02  0.00000000000E+00 0.  1.
</event>
<event>
 7    1  0.2394257E-009  0.1106273E+03  0.7561462E-02  0.1259413E+00
          3   -1    0    0  501    0  0.00000000000E+00  0.00000000000E+00  0.27698779756E+03  0.27698779756E+03  0.00000000000E+00 0. -1.
         -3   -1    0    0    0  501 -0.00000000000E+00 -0.00000000000E+00 -0.68327994315E+02  0.68327994315E+02  0.00000000000E+00 0.  1.
         25    2    1    2    0    0  0.55209841116E+02 -0.39800223774E+02  0.47413808143E+02  0.15009529615E+03  0.12509334257E+03 0.  0.
          5    1    3    3  502    0  0.94040212697E+02 -0.33302513452E+02  0.19719326054E+02  0.10177889382E+03  0.41800000000E+01 0. -1.
         -5    1    3    3    0  502 -0.38830371580E+02 -0.64977103224E+01  0.27694482088E+02  0.48316402335E+02  0.41800000000E+01 0. -1.
        -11    1    1    2    0    0 -0.33148902985E+02 -0.33826674929E+01  0.76997764560E+01  0.34199104754E+02  0.00000000000E+00 0.  1.
         11    1    1    2    0    0 -0.22060938131E+02  0.43182891267E+02  0.15354621864E+03  0.16102139097E+03  0.00000000000E+00 0. -1.
</event>
<event>
 7    1  0.2394257E-009  0.1675818E+03  0.7561462E-02  0.1180393E+00
          1   -1    0    0  501    0  0.00000000000E+00  0.00000000000E+00  0.12646558492E+03  0.12646558492E+03  0.00000000000E+00 0. -1.
         -1   -1    0    0    0  501 -0.00000000000E+00 -0.00000000000E+00 -0.31136218575E+03  0.31136218575E+03  0.00000000000E+00 0.  1.
         25    2    1    2    0    0  0.40984199654E+02 -0.15778827350E+03 -0.11185599857E+03  0.23396020778E+03  0.12509504600E+03 0.  0.
          5    1    3    3  502    0  0.19749954071E+01 -0.83497833112E+01  0.25500982549E+02  0.27228514450E+02  0.41800000000E+01 0.  1.
         -5    1    3    3    0  502  0.39009204246E+02 -0.14943849019E+03 -0.13735698112E+03  0.20673169333E+03  0.41800000000E+01 0.  1.
        -11    1    1    2    0    0 -0.30210200492E+02  0.15746628937E+03 -0.89926758881E+02  0.18383446485E+03  0.00000000000E+00 0.  1.
         11    1    1    2    0    0 -0.10773999161E+02  0.32198413047E+00  0.16886156623E+02  0.20033098043E+02  0.00000000000E+00 0. -1.
</event>
<event>
 7    1  0.2394257E-009  0.2241607E+03  0.7561462E-02  0.1130819E+00
          1   -1    0    0  501    0  0.00000000000E+00  0.00000000000E+00  0.13853616367E+03  0.13853616367E+03  0.00000000000E+00 0. -1.
         -1   -1    0    0    0  501 -0.00000000000E+00 -0.00000000000E+00 -0.40885540958E+03  0.40885540958E+03  0.00000000000E+00 0.  1.
         25    2    1    2    0    0  0.12802812472E+03 -0.15575249625E+03 -0.21273000931E+03  0.31867121300E+03  0.12508894565E+03 0.  0.
          5    1    3    3  502    0  0.40757847123E+02 -0.14268307791E+03 -0.12346660330E+03  0.19308323944E+03  0.41800000000E+01 0. -1.
         -5    1    3    3    0  502  0.87270277601E+02 -0.13069418336E+02 -0.89263406016E+02  0.12558797356E+03  0.41800000000E+01 0. -1.
        -11    1    1    2    0    0 -0.11113124522E+03  0.88147994005E+02 -0.59182179249E+01  0.14196917910E+03  0.00000000000E+00 0. -1.
         11    1    1    2    0    0 -0.16896879505E+02  0.67604502242E+02 -0.51671018675E+02  0.86751181152E+02  0.00000000000E+00 0.  1.
</event>
<event>
 7    1  0.2394257E-009  0.7634284E+02  0.7561462E-02  0.1339762E+00
         -2   -1    0    0    0  501 -0.00000000000E+00  0.00000000000E+00  0.23777166538E+03  0.23777166538E+03  0.00000000000E+00 0.  1.
          2   -1    0    0  501    0  0.00000000000E+00 -0.00000000000E+00 -0.85500316624E+02  0.85500316624E+02  0.00000000000E+00 0. -1.
         25    2    1    2    0    0 -0.49144806173E+02 -0.52616383840E+01  0.17102018348E+03  0.21757529665E+03  0.12509280452E+03 0.  0.
          5    1    3    3  502    0 -0.72491423934E+02 -0.13716505715E+02  0.17690363496E+03  0.19171728544E+03  0.41800000000E+01 0. -1.
         -5    1    3    3    0  502  0.23346617760E+02  0.84548673311E+01 -0.58834514839E+01  0.25858011211E+02  0.41800000000E+01 0. -1.
        -11    1    1    2    0    0  0.26220902863E+02 -0.76315930975E+01  0.35865716048E+02  0.45079114319E+02  0.00000000000E+00 0.  1.
         11    1    1    2    0    0  0.22923903310E+02  0.12893231481E+02 -0.54614550776E+02  0.60617571029E+02  0.00000000000E+00 0. -1.
</event>
<event>
 7    1  0.2394257E-009  0.1037856E+03  0.7561462E-02  0.1272531E+00
         -2   -1    0    0    0  501 -0.00000000000E+00  0.00000000000E+00  0.70232195314E+02  0.70232195314E+02  0.00000000000E+00 0.  1.
          2   -1    0    0  501    0  0.00000000000E+00 -0.00000000000E+00 -0.18059314123E+03  0.18059314123E+03  0.00000000000E+00 0. -1.
         25    2    1    2    0    0 -0.29891066303E+02  0.39896745097E+00 -0.55010519705E+02  0.13987962824E+03  0.12508604279E+03 0.  0.
          5    1    3    3  502    0 -0.70320689429E+02 -0.15643516368E+02 -0.62598839217E+02  0.95529084773E+02  0.41800000000E+01 0.  1.
         -5    1    3    3    0  502  0.40429623126E+02  0.16042483819E+02  0.75883195125E+01  0.44350543471E+02  0.41800000000E+01 0.  1.
        -11    1    1    2    0    0 -0.21558897227E+02  0.26090387421E+02 -0.37211049823E+02  0.50300661967E+02  0.00000000000E+00 0.  1.
         11    1    1    2    0    0  0.51449963530E+02 -0.26489354872E+02 -0.18139376386E+02  0.60645046331E+02  0.00000000000E+00 0. -1.
</event>
<event>
 7    1  0.2394257E-009  0.9136337E+02  0.7561462E-02  0.1299583E+00
          1   -1    0    0  501    0  0.00000000000E+00  0.00000000000E+00  0.33227637600E+04  0.33227637600E+04  0.00000000000E+00 0. -1.
         -1   -1    0    0    0  501 -0.00000000000E+00 -0.00000000000E+00 -0.93264515103E+01  0.93264515103E+01  0.00000000000E+00 0.  1.
         25    2    1    2    0    0  0.62554060994E+02  0.21212286373E+02  0.29113619242E+04  0.29147966053E+04  0.12509206772E+03 0.  0.
          5    1    3    3  502    0  0.38731785830E+01  0.26267209263E+02  0.23820216668E+04  0.23821733063E+04  0.41800000000E+01 0.  1.
         -5    1    3    3    0  502  0.58680882411E+02 -0.50549228901E+01  0.52934025740E+03  0.53262329907E+03  0.41800000000E+01 0.  1.
        -11    1    1    2    0    0  0.14763453366E+02  0.43123631786E+01  0.14096266329E+02  0.20862903822E+02  0.00000000000E+00 0.  1.
         11    1    1    2    0    0 -0.77317514359E+02 -0.25524649552E+02  0.38797911804E+03  0.39643070239E+03  0.00000000000E+00 0. -1.
</event>
<event>
 7    1  0.2394257E-009  0.2500427E+03  0.7561462E-02  0.1113278E+00
          3   -1    0    0  501    0  0.00000000000E+00  0.00000000000E+00  0.63464667483E+02  0.63464667483E+02  0.00000000000E+00 0. -1.
         -3   -1    0    0    0  501 -0.00000000000E+00 -0.00000000000E+00 -0.10759745298E+04  0.10759745298E+04  0.00000000000E+00 0.  1.
         25    2    1    2    0    0  0.20539608585E+03  0.10449484938E+03 -0.65308659465E+03  0.70375842892E+03  0.12508837091E+03 0.  0.
          5    1    3    3  502    0  0.20538106565E+03  0.66857613489E+02 -0.60587112918E+03  0.64323294395E+03  0.41800000000E+01 0. -1.
         -5    1    3    3    0  502  0.15020199608E-01  0.37637235896E+02 -0.47215465474E+02  0.60525484975E+02  0.41800000000E+01 0. -1.
        -11    1    1    2    0    0 -0.23012746162E+02  0.15611594502E+02 -0.43432294482E+02  0.51572013465E+02  0.00000000000E+00 0.  1.
         11    1    1    2    0    0 -0.18238333969E+03 -0.12010644389E+03 -0.31599097321E+03  0.38410875492E+03  0.00000000000E+00 0. -1.
</event>
<event>
 7    1  0.2394257E-009  0.1781737E+03  0.7561462E-02  0.1169582E+00
         -2   -1    0    0    0  501 -0.00000000000E+00  0.00000000000E+00  0.19186088095E+02  0.19186088095E+02  0.00000000000E+00 0.  1.
          2   -1    0    0  501    0  0.00000000000E+00 -0.00000000000E+00 -0.27080355893E+04  0.27080355893E+04  0.00000000000E+00 0. -1.
         25    2    1    2    0    0  0.14220117285E+03 -0.51753724821E+02 -0.21781187109E+04  0.21869494468E+04  0.12508853991E+03 0.  0.
          5    1    3    3  502    0  0.48533375441E+02  0.41254237432E+02 -0.77938001751E+03  0.78198982393E+03  0.41800000000E+01 0. -1.
         -5    1    3    3    0  502  0.93667797411E+02 -0.93007962253E+02 -0.13987386934E+04  0.14049596229E+04  0.41800000000E+01 0. -1.
        -11    1    1    2    0    0 -0.13390560802E+03  0.61748494105E+02 -0.50497707399E+03  0.52606599742E+03  0.00000000000E+00 0. -1.
         11    1    1    2    0    0 -0.82955648283E+01 -0.99947692843E+01 -0.57537163930E+01  0.14206233181E+02  0.00000000000E+00 0.  1.
</event>
<event>
 7    1  0.2394257E-009  0.1111029E+03  0.7561462E-02  0.1258541E+00
          1   -1    0    0  501    0  0.00000000000E+00  0.00000000000E+00  0.24175205420E+03  0.24175205420E+03  0.00000000000E+00 0. -1.
         -1   -1    0    0    0  501 -0.00000000000E+00 -0.00000000000E+00 -0.65274580341E+02  0.65274580341E+02  0.00000000000E+00 0.  1.
         25    2    1    2    0    0  0.56639599260E+02 -0.62779752518E+02  0.81434016099E+02  0.17154434555E+03  0.12508645803E+03 0.  0.
          5    1    3    3  502    0  0.27054823496E+02  0.27565217484E+02 -0.94243208961E+01  0.39976179328E+02  0.41800000000E+01 0. -1.
         -5    1    3    3    0  502  0.29584775764E+02 -0.90344970002E+02  0.90858336996E+02  0.13156816622E+03  0.41800000000E+01 0. -1.
        -11    1    1    2    0    0 -0.10632002533E+02  0.33711065184E+00 -0.24342163275E+01  0.10912310964E+02  0.00000000000E+00 0.  1.
         11    1    1    2    0    0 -0.46007596727E+02  0.62442641866E+02  0.97477674088E+02  0.12456997803E+03  0.00000000000E+00 0. -1.
</event>
<event>
 7    1  0.2394257E-009  0.8079578E+02  0.7561462E-02  0.1326808E+00
          2   -1    0    0  501    0  0.00000000000E+00  0.00000000000E+00  0.34404735757E+03  0.34404735757E+03  0.00000000000E+00 0.  1.
         -2   -1    0    0    0  501 -0.00000000000E+00 -0.00000000000E+00 -0.48262417771E+02  0.48262417771E+02  0.00000000000E+00 0. -1.
         25    2    1    2    0    0  0.58432801400E+02 -0.37576467100E+02  0.14512682652E+03  0.20380462148E+03  0.12509254494E+03 0.  0.
          5    1    3    3  502    0  0.26512959682E+02 -0.47776857896E+01  0.15451179929E+03  0.15689847620E+03  0.41800000000E+01 0.  1.
         -5    1    3    3    0  502  0.31919841718E+02 -0.32798781311E+02 -0.93849727760E+01  0.46906145277E+02  0.41800000000E+01 0.  1.
        -11    1    1    2    0    0 -0.10578719693E+02  0.39087371503E+02  0.13035600001E+03  0.13650061780E+03  0.00000000000E+00 0.  1.
         11    1    1    2    0    0 -0.47854081707E+02 -0.15109044027E+01  0.20302113273E+02  0.52004536066E+02  0.00000000000E+00 0. -1.
</event>
<event>
 7    1  0.2394257E-009  0.7776010E+02  0.7561462E-02  0.1335531E+00
         -2   -1    0    0    0  501 -0.00000000000E+00  0.00000000000E+00  0.14301629658E+02  0.14301629658E+02  0.00000000000E+00 0.  1.
          2   -1    0    0  501    0  0.00000000000E+00 -0.00000000000E+00 -0.11156097058E+04  0.11156097058E+04  0.00000000000E+00 0. -1.
         25    2    1    2    0    0  0.47629420699E+02  0.35080170179E+02 -0.90030919868E+03  0.91087882356E+03  0.12507756759E+03 0.  0.
          5    1    3    3  502    0 -0.40578827240E+01  0.11677779024E+02 -0.75076220268E+03  0.75087561840E+03  0.41800000000E+01 0. -1.
         -5    1    3    3    0  502  0.51687303423E+02  0.23402391155E+02 -0.14954699601E+03  0.16000320516E+03  0.41800000000E+01 0. -1.
        -11    1    1    2    0    0  0.62383641762E+01 -0.30927200239E+02 -0.94242756474E+02  0.99383630695E+02  0.00000000000E+00 0.  1.
         11    1    1    2    0    0 -0.53867784875E+02 -0.41529699401E+01 -0.10675612100E+03  0.11964888122E+03  0.00000000000E+00 0. -1.
</event>
<event>
 7    1  0.2394257E-009  0.8386399E+02  0.7561462E-02  0.1318430E+00
         -1   -1    0    0    0  501 -0.00000000000E+00  0.00000000000E+00  0.12421936590E+03  0.12421936590E+03  0.00000000000E+00 0.  1.
          1   -1    0    0  501    0  0.00000000000E+00 -0.00000000000E+00 -0.17712244810E+03  0.17712244810E+03  0.00000000000E+00 0. -1.
         25    2    1    2    0    0 -0.28929880418E+02 -0.58087218009E+00 -0.12720204977E+03  0.18073669241E+03  0.12509242632E+03 0.  0.
          5    1    3    3  502    0 -0.78322144921E+02 -0.23277838766E+01 -0.71577428449E+02  0.10621006368E+03  0.41800000000E+01 0.  1.
         -5    1    3    3    0  502  0.49392264503E+02  0.17469116965E+01 -0.55624621321E+02  0.74526628733E+02  0.41800000000E+01 0.  1.
        -11    1    1    2    0    0  0.22784419667E+02 -0.11932012937E+02  0.93445944126E+02  0.96920829474E+02  0.00000000000E+00 0.  1.
         11    1    1    2    0    0  0.61454607507E+01  0.12512885117E+02 -0.19146976554E+02  0.23684292114E+02  0.00000000000E+00 0. -1.
</event>
<event>
 7    1  0.2394257E-009  0.1499855E+03  0.7561462E-02  0.1200491E+00
         -1   -1    0    0    0  501 -0.00000000000E+00  0.00000000000E+00  0.76031774219E+02  0.76031774219E+02  0.00000000000E+00 0.  1.
          1   -1    0    0  501    0  0.00000000000E+00 -0.00000000000E+00 -0.77448668237E+03  0.77448668237E+03  0.00000000000E+00 0. -1.
         25    2    1    2    0    0 -0.10035408712E+03 -0.72048457553E+02 -0.67827148496E+03  0.70068628775E+03  0.12508854264E+03 0.  0.
          5    1    3    3  502    0 -0.11303720781E+03 -0.92773351056E+02 -0.50821339350E+03  0.52885029144E+03  0.41800000000E+01 0. -1.
         -5    1    3    3    0  502  0.12683120691E+02  0.20724893503E+02 -0.17005809145E+03  0.17183599632E+03  0.41800000000E+01 0. -1.
        -11    1    1    2    0    0  0.53799764997E+02  0.15931482847E+02  0.27727330477E+02  0.62586194283E+02  0.00000000000E+00 0.  1.
         11    1    1    2    0    0  0.46554322122E+02  0.56116974707E+02 -0.47910753672E+02  0.87245974554E+02  0.00000000000E+00 0. -1.
</event>
<event>
 7    1  0.2394257E-009  0.9964179E+02  0.7561462E-02  0.1281051E+00
          2   -1    0    0  501    0  0.00000000000E+00  0.00000000000E+00  0.24495294654E+03  0.24495294654E+03  0.00000000000E+00 0. -1.
         -2   -1    0    0    0  501 -0.00000000000E+00 -0.00000000000E+00 -0.58560800148E+02  0.58560800148E+02  0.00000000000E+00 0.  1.
         25    2    1    2    0    0  0.46851262381E+02  0.22337808969E+02  0.10450753929E+03  0.17106597593E+03  0.12509086240E+03 0.  0.
          5    1    3    3  502    0  0.14963311603E+02 -0.44435506676E+02  0.80331823952E+02  0.93107944275E+02  0.41800000000E+01 0. -1.
         -5    1    3    3    0  502  0.31887950778E+02  0.66773315645E+02  0.24175715337E+02  0.77958031652E+02  0.41800000000E+01 0. -1.
        -11    1    1    2    0    0 -0.60841569627E+02 -0.18316725312E+02  0.94033215991E+02  0.11348764131E+03  0.00000000000E+00 0. -1.
         11    1    1    2    0    0  0.13990307246E+02 -0.40210836561E+01 -0.12148608891E+02  0.18960129446E+02  0.00000000000E+00 0.  1.
</event>
<event>
 7    1  0.2394257E-009  0.5129142E+02  0.7561462E-02  0.1438498E+00
          3   -1    0    0  501    0  0.00000000000E+00  0.00000000000E+00  0.36878730400E+02  0.36878730400E+02  0.00000000000E+00 0. -1.
         -3   -1    0    0    0  501 -0.00000000000E+00 -0.00000000000E+00 -0.28231288259E+03  0.28231288259E+03  0.00000000000E+00 0.  1.
         25    2    1    2    0    0 -0.31942898709E+02 -0.37093164176E+01 -0.14360446529E+03  0.19314217710E+03  0.12509016875E+03 0.  0.
          5    1    3    3  502    0 -0.11817988828E+01 -0.37747940246E+01  0.22980090735E+02  0.23689716940E+02  0.41800000000E+01 0. -1.
         -5    1    3    3    0  502 -0.30761099826E+02  0.65477607054E-01 -0.16658455602E+03  0.16945246016E+03  0.41800000000E+01 0. -1.
        -11    1    1    2    0    0 -0.16186076700E+02 -0.48562564317E+01 -0.57934963928E+02  0.60349253109E+02  0.00000000000E+00 0.  1.
         11    1    1    2    0    0  0.48128975409E+02  0.85655728493E+01 -0.43894722978E+02  0.65700182781E+02  0.00000000000E+00 0. -1.
</event>
<event>
 7    1  0.2394257E-009  0.1589553E+03  0.7561462E-02  0.1189881E+00
          1   -1    0    0  501    0  0.00000000000E+00  0.00000000000E+00  0.54340375411E+03  0.54340375411E+03  0.00000000000E+00 0. -1.
         -1   -1    0    0    0  501 -0.00000000000E+00 -0.00000000000E+00 -0.54506076199E+02  0.54506076199E+02  0.00000000000E+00 0.  1.
         25    2    1    2    0    0  0.11329864792E+02  0.13237832988E+03  0.27304551877E+03  0.32840959486E+03  0.12508644457E+03 0.  0.
          5    1    3    3  502    0  0.54593235446E+02  0.11146768889E+03  0.14133379071E+03  0.18814404008E+03  0.41800000000E+01 0. -1.
         -5    1    3    3    0  502 -0.43263370654E+02  0.20910641000E+02  0.13171172807E+03  0.14026555478E+03  0.41800000000E+01 0. -1.
        -11    1    1    2    0    0 -0.32954665772E+02 -0.10792740404E+03  0.10571776746E+03  0.15463046562E+03  0.00000000000E+00 0.  1.
         11    1    1    2    0    0  0.21624800980E+02 -0.24450925843E+02  0.11013439167E+03  0.11486976983E+03  0.00000000000E+00 0. -1.
</event>
<event>
 7    1  0.2394257E-009  0.1360185E+03  0.7561462E-02  0.1218789E+00
         -1   -1    0    0    0  501 -0.00000000000E+00  0.00000000000E+00  0.16809780517E+03  0.16809780517E+03  0.00000000000E+00 0.  1.
          1   -1    0    0  501    0  0.00000000000E+00 -0.00000000000E+00 -0.18420157241E+03  0.18420157241E+03  0.00000000000E+00 0. -1.
         25    2    1    2    0    0  0.57245029864E+02  0.10174842729E+03 -0.82624035051E+02  0.19000956704E+03  0.12508864257E+03 0.  0.
          5    1    3    3  502    0  0.66931149341E+02  0.22104333633E+02 -0.83901076977E+02  0.10965967096E+03  0.41800000000E+01 0.  1.
         -5    1    3    3    0  502 -0.96861194767E+01  0.79644093654E+02  0.12770419259E+01  0.80349896083E+02  0.41800000000E+01 0.  1.
        -11    1    1    2    0    0 -0.30787792030E+02 -0.24233420288E+02 -0.19283492159E+02  0.43669209597E+02  0.00000000000E+00 0. -1.
         11    1    1    2    0    0 -0.26457237834E+02 -0.77515006999E+02  0.85803759966E+02  0.11862060094E+03  0.00000000000E+00 0.  1.
</event>
<event>
 7    1  0.2394257E-009  0.1114186E+03  0.7561462E-02  0.1257965E+00
          2   -1    0    0  501    0  0.00000000000E+00  0.00000000000E+00  0.24360098754E+03  0.24360098754E+03  0.00000000000E+00 0. -1.
         -2   -1    0    0    0  501 -0.00000000000E+00 -0.00000000000E+00 -0.71464391292E+02  0.71464391292E+02  0.00000000000E+00 0.  1.
         25    2    1    2    0    0 -0.55614028975E+02  0.20205033946E+01  0.14638293449E+03  0.20042903958E+03  0.12508730449E+03 0.  0.
          5    1    3    3  502    0 -0.65254096077E+02  0.43933093473E+02  0.13406779833E+03  0.15549874825E+03  0.41800000000E+01 0.  1.
         -5    1    3    3    0  502  0.96400671022E+01 -0.41912590078E+02  0.12315136158E+02  0.44930291334E+02  0.41800000000E+01 0.  1.
        -11    1    1    2    0    0  0.59967002685E+01 -0.38691502136E+02  0.34670202472E+02  0.52297377478E+02  0.00000000000E+00 0.  1.
         11    1    1    2    0    0  0.49617328706E+02  0.36670998742E+02 -0.89165407145E+01  0.62338961773E+02  0.00000000000E+00 0. -1.
</event>
<event>
 7    1  0.2394257E-009  0.8716782E+02  0.7561462E-02  0.1309859E+00
          2   -1    0    0  501    0  0.00000000000E+00  0.00000000000E+00  0.21424674373E+03  0.21424674373E+03  0.00000000000E+00 0. -1.
         -2   -1    0    0    0  501 -0.00000000000E+00 -0.00000000000E+00 -0.62887107060E+02  0.62887107060E+02  0.00000000000E+00 0.  1.
         25    2    1    2    0    0  0.25724881607E+02  0.21054833063E+02  0.60193505350E+02  0.14274506911E+03  0.12509125125E+03 0.  0.
          5    1    3    3  502    0  0.48968119173E+02 -0.81424374374E+01 -0.20400634021E+02  0.53831535843E+02  0.41800000000E+01 0.  1.
         -5    1    3    3    0  502 -0.23243237566E+02  0.29197270500E+02  0.80594139370E+02  0.88913533267E+02  0.41800000000E+01 0.  1.
        -11    1    1    2    0    0  0.12958048437E+02 -0.41315002620E+02  0.77250355542E+02  0.88557652928E+02  0.00000000000E+00 0. -1.
         11    1    1    2    0    0 -0.38682930045E+02  0.20260169557E+02  0.13915775783E+02  0.45831128755E+02  0.00000000000E+00 0.  1.
</event>
<event>
 7    1  0.2394257E-009  0.9398606E+02  0.7561462E-02  0.1293476E+00
         -2   -1    0    0    0  501 -0.00000000000E+00  0.00000000000E+00  0.44149427166E+03  0.44149427166E+03  0.00000000000E+00 0.  1.
          2   -1    0    0  501    0  0.00000000000E+00 -0.00000000000E+00 -0.50927115454E+02  0.50927115454E+02  0.00000000000E+00 0. -1.
         25    2    1    2    0    0  0.56234581748E+01  0.17071226529E+02  0.37562416126E+03  0.39631304010E+03  0.12508982842E+03 0.  0.
          5    1    3    3  502    0  0.48889832045E+02  0.44952971678E+02  0.13885827937E+03  0.15398077636E+03  0.41800000000E+01 0. -1.
         -5    1    3    3    0  502 -0.43266373870E+02 -0.27881745149E+02  0.23676588189E+03  0.24233226373E+03  0.41800000000E+01 0. -1.
        -11    1    1    2    0    0  0.42857378247E+01 -0.42384316500E+02  0.40512928923E+02  0.58788563887E+02  0.00000000000E+00 0.  1.
         11    1    1    2    0    0 -0.99091959995E+01  0.25313089971E+02 -0.25569933976E+02  0.37319783129E+02  0.00000000000E+00 0. -1.
</event>
<event>
 7    1  0.3023093E-009  0.2041442E+03  0.7561462E-02  0.1146289E+00
         -1   -1    0    0    0  501 -0.00000000000E+00  0.00000000000E+00  0.58843230345E+02  0.58843230345E+02  0.00000000000E+00 0.  1.
          1   -1    0    0  501    0  0.00000000000E+00 -0.00000000000E+00 -0.82444534416E+03  0.82444534416E+03  0.00000000000E+00 0. -1.
         25    2    1    2    0    0  0.15701200850E+03  0.10821727744E+03 -0.42935219802E+03  0.48616421397E+03  0.12509429663E+03 0.  0.
          5    1    3    3  502    0 -0.57488805723E+01 -0.77434804143E+01  0.20444276256E+01  0.10708090450E+02  0.41800000000E+01 0. -1.
         -5    1    3    3    0  502  0.16276088907E+03  0.11596075785E+03 -0.43139662565E+03  0.47545612352E+03  0.41800000000E+01 0. -1.
        -11    1    1    2    0    0 -0.70537089333E+02 -0.80608940133E+02 -0.24968440539E+03  0.27169023629E+03  0.00000000000E+00 0.  1.
         11    1    1    2    0    0 -0.86474919165E+02 -0.27608337303E+02 -0.86565510396E+02  0.12543412424E+03  0.00000000000E+00 0. -1.
</event>
<event>
 7    1  0.2394257E-009  0.1606581E+03  0.7561462E-02  0.1187956E+00
         -1   -1    0    0    0  501 -0.00000000000E+00  0.00000000000E+00  0.10241578790E+03  0.10241578790E+03  0.00000000000E+00 0.  1.
          1   -1    0    0  501    0  0.00000000000E+00 -0.00000000000E+00 -0.26093177900E+03  0.26093177900E+03  0.00000000000E+00 0. -1.
         25    2    1    2    0    0 -0.87996144356E+02 -0.82012331421E+02 -0.92452820936E+02  0.19663255249E+03  0.12508993833E+03 0.  0.
          5    1    3    3  502    0 -0.68543418300E+02  0.14280183052E+02 -0.62228196008E+02  0.93765369933E+02  0.41800000000E+01 0.  1.
         -5    1    3    3    0  502 -0.19452726056E+02 -0.96292514472E+02 -0.30224624928E+02  0.10286718255E+03  0.41800000000E+01 0.  1.
        -11    1    1    2    0    0  0.40434022296E+02  0.95252333516E+02 -0.40535968603E+02  0.11113542167E+03  0.00000000000E+00 0.  1.
         11    1    1    2    0    0  0.47562122060E+02 -0.13240002095E+02 -0.25527201554E+02  0.55579592743E+02  0.00000000000E+00 0. -1.
</event>
<event>
 7    1  0.2394257E-009  0.1244015E+03  0.7561462E-02  0.1236008E+00
         -4   -1    0    0    0  501 -0.00000000000E+00  0.00000000000E+00  0.29420450679E+03  0.29420450679E+03  0.00000000000E+00 0.  1.
          4   -1    0    0  501    0  0.00000000000E+00 -0.00000000000E+00 -0.58531393213E+02  0.58531393213E+02  0.00000000000E+00 0. -1.
         25    2    1    2    0    0 -0.66655816411E+02  0.27699670740E+02  0.12507365210E+03  0.19105428944E+03  0.12509217979E+03 0.  0.
          5    1    3    3  502    0 -0.71608346827E+02  0.69630121514E+02  0.72470844689E+02  0.12347309378E+03  0.41800000000E+01 0.  1.
         -5    1    3    3    0  502  0.49525304157E+01 -0.41930450774E+02  0.52602807411E+02  0.67581195662E+02  0.41800000000E+01 0.  1.
        -11    1    1    2    0    0  0.19850516942E+02 -0.50560017292E+02  0.21388499557E+02  0.58376590212E+02  0.00000000000E+00 0. -1.
         11    1    1    2    0    0  0.46805299470E+02  0.22860346552E+02  0.89210961916E+02  0.10330502035E+03  0.00000000000E+00 0.  1.
</event>
<event>
 7    1  0.2394257E-009  0.1366754E+03  0.7561462E-02  0.1217874E+00
         -2   -1    0    0    0  501 -0.00000000000E+00  0.00000000000E+00  0.53892748335E+02  0.53892748335E+02  0.00000000000E+00 0.  1.
          2   -1    0    0  501    0  0.00000000000E+00 -0.00000000000E+00 -0.38305098252E+03  0.38305098252E+03  0.00000000000E+00 0. -1.
         25    2    1    2    0    0 -0.59496239649E+02  0.69914662029E+02 -0.22631673216E+03  0.27440023370E+03  0.12509341509E+03 0.  0.
          5    1    3    3  502    0 -0.97628451212E+01 -0.32257387184E+02 -0.21673432509E+02  0.40287246736E+02  0.41800000000E+01 0. -1.
         -5    1    3    3    0  502 -0.49733394528E+02  0.10217204921E+03 -0.20464329965E+03  0.23411298696E+03  0.41800000000E+01 0. -1.
        -11    1    1    2    0    0  0.19380644626E+02 -0.81621591787E+02 -0.72834763891E+02  0.11109723877E+03  0.00000000000E+00 0. -1.
         11    1    1    2    0    0  0.40115595023E+02  0.11706929757E+02 -0.30006738133E+02  0.51446258384E+02  0.00000000000E+00 0.  1.
</event>
<event>
 7    1  0.2394257E-009  0.1314572E+03  0.7561462E-02  0.1225309E+00
          4   -1    0    0  501    0  0.00000000000E+00  0.00000000000E+00  0.10354499172E+04  0.10354499172E+04  0.00000000000E+00 0. -1.
         -4   -1    0    0    0  501 -0.00000000000E+00 -0.00000000000E+00 -0.20944134704E+02  0.20944134704E+02  0.00000000000E+00 0.  1.
         25    2    1    2    0    0  0.85851008556E+02  0.17420357209E+02  0.72237001125E+03  0.73833658607E+03  0.12509443097E+03 0.  0.
          5    1    3    3  502    0  0.44202144253E+02  0.68373054006E+02  0.30129508882E+03  0.31212963175E+03  0.41800000000E+01 0.  1.
         -5    1    3    3    0  502  0.41648864304E+02 -0.50952696797E+02  0.42107492243E+03  0.42620695432E+03  0.41800000000E+01 0.  1.
        -11    1    1    2    0    0 -0.60278986644E+02 -0.46935227309E+02  0.12564555745E+03  0.14704855627E+03  0.00000000000E+00 0.  1.
         11    1    1    2    0    0 -0.25572021912E+02  0.29514870100E+02  0.16649021380E+03  0.17100890958E+03  0.00000000000E+00 0. -1.
</event>
<event>
 7    1  0.2394257E-009  0.8279124E+02  0.7561462E-02  0.1321312E+00
         -2   -1    0    0    0  501 -0.00000000000E+00  0.00000000000E+00  0.18793597219E+03  0.18793597219E+03  0.00000000000E+00 0.  1.
          2   -1    0    0  501    0  0.00000000000E+00 -0.00000000000E+00 -0.69590055697E+02  0.69590055697E+02  0.00000000000E+00 0. -1.
         25    2    1    2    0    0 -0.88446425508E+01  0.26741539632E+02  0.43174157573E+02  0.13529597286E+03  0.12509058616E+03 0.  0.
          5    1    3    3  502    0  0.36526702902E+02 -0.88610200159E+01  0.63580247039E+02  0.73977279716E+02  0.41800000000E+01 0. -1.
         -5    1    3    3    0  502 -0.45371345452E+02  0.35602559648E+02 -0.20406089466E+02  0.61318693144E+02  0.41800000000E+01 0. -1.
        -11    1    1    2    0    0  0.35742923598E+02 -0.23665518994E+02  0.83536810101E+02  0.93893620755E+02  0.00000000000E+00 0.  1.
         11    1    1    2    0    0 -0.26898281047E+02 -0.30760206377E+01 -0.83650511780E+01  0.28336434276E+02  0.00000000000E+00 0. -1.
</event>
<event>
 7    1  0.2394257E-009  0.1154727E+03  0.7561462E-02  0.1250758E+00
         -1   -1    0    0    0  501 -0.00000000000E+00  0.00000000000E+00  0.16060672262E+03  0.16060672262E+03  0.00000000000E+00 0.  1.
          1   -1    0    0  501    0  0.00000000000E+00 -0.00000000000E+00 -0.84449493611E+02  0.84449493611E+02  0.00000000000E+00 0. -1.
         25    2    1    2    0    0  0.22050298502E+02 -0.16117420320E+02  0.49262772486E+02  0.13718490413E+03  0.12508753042E+03 0.  0.
          5    1    3    3  502    0  0.74138076954E+02 -0.38316743779E+01  0.28611484747E+02  0.79669477483E+02  0.41800000000E+01 0. -1.
         -5    1    3    3    0  502 -0.52087778453E+02 -0.12285745942E+02  0.20651287739E+02  0.57515426650E+02  0.41800000000E+01 0. -1.
        -11    1    1    2    0    0 -0.52513315876E+02  0.38495266166E+02  0.79641253829E+01  0.65596959950E+02  0.00000000000E+00 0. -1.
         11    1    1    2    0    0  0.30463017375E+02 -0.22377845846E+02  0.18930331135E+02  0.42274352144E+02  0.00000000000E+00 0.  1.
</event>
<event>
 7    1  0.2394257E-009  0.2636470E+03  0.7561462E-02  0.1104972E+00
         -1   -1    0    0    0  501 -0.00000000000E+00  0.00000000000E+00  0.21357388501E+03  0.21357388501E+03  0.00000000000E+00 0.  1.
          1   -1    0    0  501    0  0.00000000000E+00 -0.00000000000E+00 -0.36574286023E+03  0.36574286023E+03  0.00000000000E+00 0. -1.
         25    2    1    2    0    0  0.23333962517E+03  0.10746152029E+03 -0.92971292753E+02  0.30047773992E+03  0.12509137418E+03 0.  0.
          5    1    3    3  502    0  0.52539022005E+02  0.55500681127E+02  0.22412321639E+02  0.79752485855E+02  0.41800000000E+01 0. -1.
         -5    1    3    3    0  502  0.18080060316E+03  0.51960839159E+02 -0.11538361439E+03  0.22072525406E+03  0.41800000000E+01 0. -1.
        -11    1    1    2    0    0 -0.19565170507E+03 -0.65821158778E+02 -0.14274620732E+02  0.20691974153E+03  0.00000000000E+00 0.  1.
         11    1    1    2    0    0 -0.37687920101E+02 -0.41640361508E+02 -0.44923061743E+02  0.71919263793E+02  0.00000000000E+00 0. -1.
</event>
<event>
 7    1  0.2394257E-009  0.9775368E+02  0.7561462E-02  0.1285092E+00
         -2   -1    0    0    0  501 -0.00000000000E+00  0.00000000000E+00  0.16123491981E+02  0.16123491981E+02  0.00000000000E+00 0.  1.
          2   -1    0    0  501    0  0.00000000000E+00 -0.00000000000E+00 -0.89717711622E+03  0.89717711622E+03  0.00000000000E+00 0. -1.
         25    2    1    2    0    0 -0.15462076782E+02 -0.25313467081E+02 -0.66639338296E+03  0.67868067611E+03  0.12508985508E+03 0.  0.
          5    1    3    3  502    0  0.25603218030E+02  0.38576453878E+02 -0.16036085158E+03  0.16696329742E+03  0.41800000000E+01 0.  1.
         -5    1    3    3    0  502 -0.41065294812E+02 -0.63889920958E+02 -0.50603253138E+03  0.51171737869E+03  0.41800000000E+01 0.  1.
        -11    1    1    2    0    0 -0.24166665213E+02  0.22835738883E+02 -0.17630899195E+03  0.17941671973E+03  0.00000000000E+00 0. -1.
         11    1    1    2    0    0  0.39628741995E+02  0.24777281974E+01 -0.38351249331E+02  0.55203212356E+02  0.00000000000E+00 0.  1.
</event>
<event>
 7    1  0.2394257E-009  0.1117988E+03  0.7561462E-02  0.1257275E+00
          1   -1    0    0  501    0  0.00000000000E+00  0.00000000000E+00  0.11399499460E+03  0.11399499460E+03  0.00000000000E+00 0. -1.
         -1   -1    0    0    0  501 -0.00000000000E+00 -0.00000000000E+00 -0.12091749199E+03  0.12091749199E+03  0.00000000000E+00 0.  1.
         25    2    1    2    0    0  0.34718964112E+02 -0.10268892560E+02  0.22828454770E+02  0.13220651842E+03  0.12508624441E+03 0.  0.
          5    1    3    3  502    0  0.53810211656E+01 -0.64655019097E+02  0.26397874163E+02  0.70167991589E+02  0.41800000000E+01 0.  1.
         -5    1    3    3    0  502  0.29337942946E+02  0.54386126537E+02 -0.35694193931E+01  0.62038526826E+02  0.41800000000E+01 0.  1.
        -11    1    1    2    0    0 -0.57443591335E+02 -0.18167161636E+02 -0.27523425339E+02  0.66237080928E+02  0.00000000000E+00 0.  1.
         11    1    1    2    0    0  0.22724627224E+02  0.28436054197E+02 -0.22275268207E+01  0.36468887239E+02  0.00000000000E+00 0. -1.
</event>
<event>
 7    1  0.2394257E-009  0.1248353E+03  0.7561462E-02  0.1235327E+00
          1   -1    0    0  501    0  0.00000000000E+00  0.00000000000E+00  0.84821906567E+03  0.84821906567E+03  0.00000000000E+00 0. -1.
         -1   -1    0    0    0  501 -0.00000000000E+00 -0.00000000000E+00 -0.18783644463E+02  0.18783644463E+02  0.00000000000E+00 0.  1.
         25    2    1    2    0    0 -0.21690086022E+02  0.66033008539E+02  0.48356181965E+03  0.50429196969E+03  0.12509012440E+03 0.  0.
          5    1    3    3  502    0 -0.53646276361E+02 -0.14535079055E+02  0.16722460010E+03  0.17626891607E+03  0.41800000000E+01 0. -1.
         -5    1    3    3    0  502  0.31956190340E+02  0.80568087594E+02  0.31633721955E+03  0.32802305363E+03  0.41800000000E+01 0. -1.
        -11    1    1    2    0    0  0.39219085487E+02 -0.39618672669E+00  0.16222560795E+03  0.16689949522E+03  0.00000000000E+00 0.  1.
         11    1    1    2    0    0 -0.17528999465E+02 -0.65636821813E+02  0.18364799361E+03  0.19581124522E+03  0.00000000000E+00 0. -1.
</event>
<event>
 7    1  0.2394257E-009  0.1539035E+03  0.7561462E-02  0.1195757E+00
          2   -1    0    0  501    0  0.00000000000E+00  0.00000000000E+00  0.55347475272E+03  0.55347475272E+03  0.00000000000E+00 0. -1.
         -2   -1    0    0    0  501 -0.00000000000E+00 -0.00000000000E+00 -0.52664495647E+02  0.52664495647E+02  0.00000000000E+00 0.  1.
         25    2    1    2    0    0 -0.12590145151E+03  0.27001357703E+02  0.22417295983E+03  0.28719518424E+03  0.12508920466E+03 0.  0.
          5    1    3    3  502    0 -0.14157136572E+03 -0.93127351206E+00  0.15004169407E+03  0.20633298626E+03  0.41800000000E+01 0. -1.
         -5    1    3    3    0  502  0.15669914212E+02  0.27932631215E+02  0.74131265766E+02  0.80862197980E+02  0.41800000000E+01 0. -1.
        -11    1    1    2    0    0  0.76211483607E+02  0.21870427124E+01  0.66896802555E+02  0.10143054560E+03  0.00000000000E+00 0.  1.
         11    1    1    2    0    0  0.49689967899E+02 -0.29188400415E+02  0.20974049468E+03  0.21751351852E+03  0.00000000000E+00 0. -1.
</event>
<event>
 7    1  0.2394257E-009  0.1445125E+03  0.7561462E-02  0.1207383E+00
         -2   -1    0    0    0  501 -0.00000000000E+00  0.00000000000E+00  0.61816155922E+02  0.61816155922E+02  0.00000000000E+00 0.  1.
          2   -1    0    0  501    0  0.00000000000E+00 -0.00000000000E+00 -0.46447536732E+03  0.46447536732E+03  0.00000000000E+00 0. -1.
         25    2    1    2    0    0  0.12262999327E+03  0.40363461557E+02 -0.20769816950E+03  0.27468483937E+03  0.12508360041E+03 0.  0.
          5    1    3    3  502    0  0.23599581381E+02  0.12560787873E+02 -0.15813030804E+03  0.16042873918E+03  0.41800000000E+01 0. -1.
         -5    1    3    3    0  502  0.99030411885E+02  0.27802673684E+02 -0.49567861458E+02  0.11425610019E+03  0.41800000000E+01 0. -1.
        -11    1    1    2    0    0 -0.45041039313E+01  0.24054832874E+02 -0.28395992837E+02  0.37486722263E+02  0.00000000000E+00 0. -1.
         11    1    1    2    0    0 -0.11812588934E+03 -0.64418294431E+02 -0.16656504906E+03  0.21411996161E+03  0.00000000000E+00 0.  1.
</event>
<event>
 7    1  0.2394257E-009  0.1149688E+03  0.7561462E-02  0.1251636E+00
         -2   -1    0    0    0  501 -0.00000000000E+00  0.00000000000E+00  0.15457614359E+02  0.15457614359E+02  0.00000000000E+00 0.  1.
          2   -1    0    0  501    0  0.00000000000E+00 -0.00000000000E+00 -0.10044092461E+04  0.10044092461E+04  0.00000000000E+00 0. -1.
         25    2    1    2    0    0  0.59157178948E+02 -0.39934500493E+00 -0.57957912256E+03  0.59586844163E+03  0.12509000410E+03 0.  0.
          5    1    3    3  502    0  0.33746152840E+02 -0.52629723730E+02 -0.44276127187E+03  0.44717301676E+03  0.41800000000E+01 0. -1.
         -5    1    3    3    0  502  0.25411026108E+02  0.52230378725E+02 -0.13681785069E+03  0.14869542487E+03  0.41800000000E+01 0. -1.
        -11    1    1    2    0    0  0.13795608742E+02  0.27864797805E+02 -0.14889893257E+03  0.15211067648E+03  0.00000000000E+00 0. -1.
         11    1    1    2    0    0 -0.72952787691E+02 -0.27465452800E+02 -0.26047357664E+03  0.27188774238E+03  0.00000000000E+00 0.  1.
</event>
<event>
 7    1  0.2394257E-009  0.1156522E+03  0.7561462E-02  0.1250447E+00
          1   -1    0    0  501    0  0.00000000000E+00  0.00000000000E+00  0.53562450695E+03  0.53562450695E+03  0.00000000000E+00 0.  1.
         -1   -1    0    0    0  501 -0.00000000000E+00 -0.00000000000E+00 -0.34479817030E+02  0.34479817030E+02  0.00000000000E+00 0. -1.
         25    2    1    2    0    0  0.31833589911E+02 -0.60336845404E+02  0.36170478980E+03  0.38875667901E+03  0.12508992028E+03 0.  0.
          5    1    3    3  502    0 -0.38799744331E+02 -0.48658123280E+02  0.10410209913E+03  0.12135795221E+03  0.41800000000E+01 0.  1.
         -5    1    3    3    0  502  0.70633334243E+02 -0.11678722125E+02  0.25760269067E+03  0.26739872681E+03  0.41800000000E+01 0.  1.
        -11    1    1    2    0    0 -0.53046558124E+02  0.32473691095E+02  0.13145944558E+03  0.14543061498E+03  0.00000000000E+00 0.  1.
         11    1    1    2    0    0  0.21212968213E+02  0.27863154310E+02  0.79804545481E+01  0.35917029990E+02  0.00000000000E+00 0. -1.
</event>
<event>
 7    1  0.2394257E-009  0.1011844E+03  0.7561462E-02  0.1277825E+00
         -2   -1    0    0    0  501 -0.00000000000E+00  0.00000000000E+00  0.23065892130E+03  0.23065892130E+03  0.00000000000E+00 0.  1.
          2   -1    0    0  501    0  0.00000000000E+00 -0.00000000000E+00 -0.62859074648E+02  0.62859074648E+02  0.00000000000E+00 0. -1.
         25    2    1    2    0    0 -0.32797216168E+02  0.38549600220E+02  0.79734901352E+02  0.15673704139E+03  0.12508843505E+03 0.  0.
          5    1    3    3  502    0  0.46030294927E+02  0.10350859313E+02  0.47064156523E+02  0.66771517646E+02  0.41800000000E+01 0. -1.
         -5    1    3    3    0  502 -0.78827511096E+02  0.28198740908E+02  0.32670744829E+02  0.89965523741E+02  0.41800000000E+01 0. -1.
        -11    1    1    2    0    0  0.28119804973E+02  0.39750485652E+01  0.89579071712E+02  0.93973052156E+02  0.00000000000E+00 0.  1.
         11    1    1    2    0    0  0.46774111958E+01 -0.42524648786E+02 -0.15141264083E+01  0.42807902408E+02  0.00000000000E+00 0. -1.
</event>
<event>
 7    1  0.2394257E-009  0.1025519E+03  0.7561462E-02  0.1275019E+00
         -4   -1    0    0    0  501 -0.00000000000E+00  0.00000000000E+00  0.31358587372E+02  0.31358587372E+02  0.00000000000E+00 0.  1.
          4   -1    0    0  501    0  0.00000000000E+00 -0.00000000000E+00 -0.44957885222E+03  0.44957885222E+03  0.00000000000E+00 0. -1.
         25    2    1    2    0    0 -0.15762153562E+02  0.41270659655E+02 -0.28996403868E+03  0.31886527698E+03  0.12507680962E+03 0.  0.
          5    1    3    3  502    0 -0.32607212807E+02 -0.24458329238E+02 -0.20976788897E+03  0.21373226204E+03  0.41800000000E+01 0. -1.
         -5    1    3    3    0  502  0.16845059245E+02  0.65728988893E+02 -0.80196149709E+02  0.10513301494E+03  0.41800000000E+01 0. -1.
        -11    1    1    2    0    0 -0.39776918531E+01  0.25865402271E+02 -0.19049502861E+02  0.32368574673E+02  0.00000000000E+00 0.  1.
         11    1    1    2    0    0  0.19739845415E+02 -0.67136061926E+02 -0.10920672331E+03  0.12970358794E+03  0.00000000000E+00 0. -1.
</event>
<event>
 7    1  0.2394257E-009  0.1364859E+03  0.7561462E-02  0.1218137E+00
          3   -1    0    0  501    0  0.00000000000E+00  0.00000000000E+00  0.43232606425E+03  0.43232606425E+03  0.00000000000E+00 0. -1.
         -3   -1    0    0    0  501 -0.00000000000E+00 -0.00000000000E+00 -0.54280650082E+02  0.54280650082E+02  0.00000000000E+00 0.  1.
         25    2    1    2    0    0  0.60286176388E+02  0.83212354958E+02  0.15950393480E+03  0.22726120687E+03  0.12508969522E+03 0.  0.
          5    1    3    3  502    0  0.20325839278E+02  0.99281908913E+02  0.57814904182E+02  0.11674790244E+03  0.41800000000E+01 0.  1.
         -5    1    3    3    0  502  0.39960337110E+02 -0.16069553955E+02  0.10168903062E+03  0.11051330443E+03  0.41800000000E+01 0.  1.
        -11    1    1    2    0    0 -0.54722582907E+02 -0.10964953937E+02  0.46416161390E+02  0.72589608988E+02  0.00000000000E+00 0.  1.
         11    1    1    2    0    0 -0.55635934817E+01 -0.72247401021E+02  0.17212531798E+03  0.18675589848E+03  0.00000000000E+00 0. -1.
</event>
<event>
 7    1  0.2394257E-009  0.9575395E+02  0.7561462E-02  0.1289487E+00
         -2   -1    0    0    0  501 -0.00000000000E+00  0.00000000000E+00  0.57954307583E+02  0.57954307583E+02  0.00000000000E+00 0.  1.
          2   -1    0    0  501    0  0.00000000000E+00 -0.00000000000E+00 -0.34272807804E+03  0.34272807804E+03  0.00000000000E+00 0. -1.
         25    2    1    2    0    0 -0.29319554224E+02 -0.54512585769E+02 -0.64088019985E+02  0.15356527063E+03  0.12507501657E+03 0.  0.
          5    1    3    3  502    0  0.51932644544E+01 -0.60770141837E+02 -0.90671488056E+02  0.10935616709E+03  0.41800000000E+01 0. -1.
         -5    1    3    3    0  502 -0.34512818678E+02  0.62575560672E+01  0.26583468071E+02  0.44209103539E+02  0.41800000000E+01 0. -1.
        -11    1    1    2    0    0 -0.17951438928E+02  0.42707193094E+02 -0.44201210608E+02  0.64030504611E+02  0.00000000000E+00 0.  1.
         11    1    1    2    0    0  0.47270993152E+02  0.11805392676E+02 -0.17648453986E+03  0.18308661038E+03  0.00000000000E+00 0. -1.
</event>
<event>
 7    1  0.2394257E-009  0.7128113E+02  0.7561462E-02  0.1355790E+00
          1   -1    0    0  501    0  0.00000000000E+00  0.00000000000E+00  0.16028502575E+03  0.16028502575E+03  0.00000000000E+00 0. -1.
         -1   -1    0    0    0  501 -0.00000000000E+00 -0.00000000000E+00 -0.21170261978E+03  0.21170261978E+03  0.00000000000E+00 0.  1.
         25    2    1    2    0    0  0.38738845465E+02 -0.28394540374E+01 -0.17084681336E+03  0.21527835195E+03  0.12508946613E+03 0.  0.
          5    1    3    3  502    0  0.31117094371E+02 -0.73956194275E+01  0.10304144945E+02  0.33861726948E+02  0.41800000000E+01 0.  1.
         -5    1    3    3    0  502  0.76217510932E+01  0.45561653901E+01 -0.18115095831E+03  0.18141662500E+03  0.41800000000E+01 0.  1.
        -11    1    1    2    0    0 -0.39434790627E+02 -0.40860622001E+02  0.78056175503E+02  0.96526989367E+02  0.00000000000E+00 0. -1.
         11    1    1    2    0    0  0.69594516186E+00  0.43700076038E+02  0.41373043819E+02  0.60182304212E+02  0.00000000000E+00 0.  1.
</event>
<event>
 7    1  0.2394257E-009  0.1266604E+03  0.7561462E-02  0.1232497E+00
         -2   -1    0    0    0  501 -0.00000000000E+00  0.00000000000E+00  0.22221179366E+02  0.22221179366E+02  0.00000000000E+00 0.  1.
          2   -1    0    0  501    0  0.00000000000E+00 -0.00000000000E+00 -0.92202137554E+03  0.92202137554E+03  0.00000000000E+00 0. -1.
         25    2    1    2    0    0 -0.86271912179E+02 -0.27693714910E+02 -0.44044216954E+03  0.46674070081E+03  0.12509113640E+03 0.  0.
          5    1    3    3  502    0 -0.54387231924E+02  0.40638376281E+02 -0.12420979924E+03  0.14161566033E+03  0.41800000000E+01 0.  1.
         -5    1    3    3    0  502 -0.31884680255E+02 -0.68332091192E+02 -0.31623237030E+03  0.32512504048E+03  0.41800000000E+01 0.  1.
        -11    1    1    2    0    0  0.83252688763E+01  0.30665290452E+02 -0.40678121169E+02  0.51617629568E+02  0.00000000000E+00 0.  1.
         11    1    1    2    0    0  0.77946643303E+02 -0.29715755412E+01 -0.41867990547E+03  0.42588422453E+03  0.00000000000E+00 0. -1.
</event>
<event>
 7    1  0.2394257E-009  0.1338873E+03  0.7561462E-02  0.1221799E+00
          2   -1    0    0  501    0  0.00000000000E+00  0.00000000000E+00  0.24796129232E+04  0.24796129232E+04  0.00000000000E+00 0. -1.
         -2   -1    0    0    0  501 -0.00000000000E+00 -0.00000000000E+00 -0.15637672591E+02  0.15637672591E+02  0.00000000000E+00 0.  1.
         25    2    1    2    0    0  0.85763869213E+02 -0.40001053545E+02  0.21363715588E+04  0.21421217521E+04  0.12508652108E+03 0.  0.
          5    1    3    3  502    0  0.34421890067E+02 -0.72006618716E+02  0.16574561795E+04  0.16593818967E+04  0.41800000000E+01 0.  1.
         -5    1    3    3    0  502  0.51341979145E+02  0.32005565171E+02  0.47891537936E+03  0.48273985542E+03  0.41800000000E+01 0.  1.
        -11    1    1    2    0    0 -0.46948120013E+02  0.65631527299E+02  0.16009570372E+03  0.17928261962E+03  0.00000000000E+00 0.  1.
         11    1    1    2    0    0 -0.38815749200E+02 -0.25630473754E+02  0.16750798802E+03  0.17384622406E+03  0.00000000000E+00 0. -1.
</event>
<event>
 7    1  0.2394257E-009  0.1076263E+03  0.7561462E-02  0.1265030E+00
         -1   -1    0    0    0  501 -0.00000000000E+00  0.00000000000E+00  0.30270563381E+03  0.30270563381E+03  0.00000000000E+00 0.  1.
          1   -1    0    0  501    0  0.00000000000E+00 -0.00000000000E+00 -0.40157162848E+02  0.40157162848E+02  0.00000000000E+00 0. -1.
         25    2    1    2    0    0  0.10885570238E+02  0.21667295017E+02  0.13452057202E+03  0.18528273584E+03  0.12508373432E+03 0.  0.
          5    1    3    3  502    0  0.17029221505E+02 -0.50744122190E+02  0.46188985459E+02  0.70822701867E+02  0.41800000000E+01 0.  1.
         -5    1    3    3    0  502 -0.61436512675E+01  0.72411417208E+02  0.88331586557E+02  0.11446003397E+03  0.41800000000E+01 0.  1.
        -11    1    1    2    0    0  0.29432282104E+02 -0.35530855202E+02  0.46096967956E+02  0.65219869334E+02  0.00000000000E+00 0. -1.
         11    1    1    2    0    0 -0.40317852342E+02  0.13863560185E+02  0.81930930991E+02  0.92360191487E+02  0.00000000000E+00 0.  1.
</event>
<event>
 7    1  0.2394257E-009  0.1598083E+03  0.7561462E-02  0.1188913E+00
          2   -1    0    0  501    0  0.00000000000E+00  0.00000000000E+00  0.10918739243E+04  0.10918739243E+04  0.00000000000E+00 0. -1.
         -2   -1    0    0    0  501 -0.00000000000E+00 -0.00000000000E+00 -0.27760108065E+02  0.27760108065E+02  0.00000000000E+00 0.  1.
         25    2    1    2    0    0 -0.12157739337E+03 -0.10592742101E+02  0.74352522031E+03  0.76378681625E+03  0.12508908301E+03 0.  0.
          5    1    3    3  502    0 -0.99418407637E+02 -0.61832560064E+02  0.54933115068E+03  0.56168449397E+03  0.41800000000E+01 0.  1.
         -5    1    3    3    0  502 -0.22158985729E+02  0.51239817963E+02  0.19419406963E+03  0.20210232229E+03  0.41800000000E+01 0.  1.
        -11    1    1    2    0    0  0.32792544578E+02 -0.33905994281E+02  0.16201330035E+03  0.16874026467E+03  0.00000000000E+00 0. -1.
         11    1    1    2    0    0  0.88784848789E+02  0.44498736382E+02  0.15857529560E+03  0.18710695147E+03  0.00000000000E+00 0.  1.
</event>
<event>
 7    1  0.2394257E-009  0.9311035E+02  0.7561462E-02  0.1295490E+00
          1   -1    0    0  501    0  0.00000000000E+00  0.00000000000E+00  0.35660589634E+03  0.35660589634E+03  0.00000000000E+00 0. -1.
         -1   -1    0    0    0  501 -0.00000000000E+00 -0.00000000000E+00 -0.34603532926E+02  0.34603532926E+02  0.00000000000E+00 0.  1.
         25    2    1    2    0    0 -0.39689402900E+02 -0.19779007011E+02  0.13456053420E+03  0.18900129956E+03  0.12509394890E+03 0.  0.
          5    1    3    3  502    0 -0.69054217314E+02  0.24808811726E+02  0.10398440448E+03  0.12733495531E+03  0.41800000000E+01 0. -1.
         -5    1    3    3    0  502  0.29364814414E+02 -0.44587818737E+02  0.30576129722E+02  0.61666344257E+02  0.41800000000E+01 0. -1.
        -11    1    1    2    0    0  0.80716685171E+00  0.20272623538E+02  0.14472015713E+02  0.24921276497E+02  0.00000000000E+00 0.  1.
         11    1    1    2    0    0  0.38882236048E+02 -0.49361652729E+00  0.17296981350E+03  0.17728685320E+03  0.00000000000E+00 0. -1.
</event>
<event>
 7    1  0.2394257E-009  0.2018260E+03  0.7561462E-02  0.1148207E+00
         -1   -1    0    0    0  501 -0.00000000000E+00  0.00000000000E+00  0.19881482061E+03  0.19881482061E+03  0.00000000000E+00 0.  1.
          1   -1    0    0  501    0  0.00000000000E+00 -0.00000000000E+00 -0.27174126597E+03  0.27174126597E+03  0.00000000000E+00 0. -1.
         25    2    1    2    0    0 -0.45203841716E+02  0.18566184091E+03 -0.11235668890E+03  0.25452941636E+03  0.12508993476E+03 0.  0.
          5    1    3    3  502    0 -0.36516236161E+02  0.80815018058E+02  0.14191828837E+02  0.89907636232E+02  0.41800000000E+01 0. -1.
         -5    1    3    3    0  502 -0.86876055552E+01  0.10484682285E+03 -0.12654851773E+03  0.16462178013E+03  0.41800000000E+01 0. -1.
        -11    1    1    2    0    0  0.66620046339E+02 -0.92516317284E+02  0.38865138594E+02  0.12044915332E+03  0.00000000000E+00 0.  1.
         11    1    1    2    0    0 -0.21416204623E+02 -0.93145523626E+02  0.56510494039E+00  0.95577516894E+02  0.00000000000E+00 0. -1.
</event>
<event>
 7    1  0.2394257E-009  0.2596139E+03  0.7561462E-02  0.1107375E+00
          3   -1    0    0  501    0  0.00000000000E+00  0.00000000000E+00  0.47082932652E+02  0.47082932652E+02  0.00000000000E+00 0. -1.
         -3   -1    0    0    0  501 -0.00000000000E+00 -0.00000000000E+00 -0.15239259949E+04  0.15239259949E+04  0.00000000000E+00 0.  1.
         25    2    1    2    0    0 -0.15787262669E+03 -0.18353885290E+03 -0.86209631196E+03  0.90413931689E+03  0.12509027328E+03 0.  0.
          5    1    3    3  502    0 -0.17642877635E+03 -0.16547617785E+03 -0.81594777163E+03  0.85105682360E+03  0.41800000000E+01 0. -1.
         -5    1    3    3    0  502  0.18556149652E+02 -0.18062675050E+02 -0.46148540324E+02  0.53082493290E+02  0.41800000000E+01 0. -1.
        -11    1    1    2    0    0  0.12925674463E+03  0.10198828391E+03 -0.32230722164E+03  0.36192659644E+03  0.00000000000E+00 0.  1.
         11    1    1    2    0    0  0.28615882064E+02  0.81550568992E+02 -0.29243952868E+03  0.30494301426E+03  0.00000000000E+00 0. -1.
</event>
<event>
 7    1  0.2394257E-009  0.9568970E+02  0.7561462E-02  0.1289630E+00
          2   -1    0    0  501    0  0.00000000000E+00  0.00000000000E+00  0.27277557836E+03  0.27277557836E+03  0.00000000000E+00 0. -1.
         -2   -1    0    0    0  501 -0.00000000000E+00 -0.00000000000E+00 -0.63287452339E+02  0.63287452339E+02  0.00000000000E+00 0.  1.
         25    2    1    2    0    0  0.19490636817E+02  0.28129470844E+02  0.29606304481E+02  0.13302591359E+03  0.12509279902E+03 0.  0.
          5    1    3    3  502    0  0.54245546420E+02  0.60501485529E+02  0.12237438132E+02  0.82281445963E+02  0.41800000000E+01 0.  1.
         -5    1    3    3    0  502 -0.34754909603E+02 -0.32372014685E+02  0.17368866349E+02  0.50744467625E+02  0.41800000000E+01 0.  1.
        -11    1    1    2    0    0 -0.36879904209E+02 -0.25280017630E+02  0.17994394210E+03  0.18541582706E+03  0.00000000000E+00 0. -1.
         11    1    1    2    0    0  0.17389267392E+02 -0.28494532146E+01 -0.62120560140E-01  0.17621290050E+02  0.00000000000E+00 0.  1.
</event>
<event>
 7    1  0.2394257E-009  0.1195421E+03  0.7561462E-02  0.1243854E+00
         -3   -1    0    0    0  501 -0.00000000000E+00  0.00000000000E+00  0.21497696487E+02  0.21497696487E+02  0.00000000000E+00 0.  1.
          3   -1    0    0  501    0  0.00000000000E+00 -0.00000000000E+00 -0.11442586090E+04  0.11442586090E+04  0.00000000000E+00 0. -1.
         25    2    1    2    0    0  0.75245895332E+02  0.53707073330E+02 -0.84220784365E+03  0.85645015961E+03  0.12508568861E+03 0.  0.
          5    1    3    3  502    0 -0.22120192793E+02  0.32774820303E+02 -0.10058646922E+03  0.10816007565E+03  0.41800000000E+01 0. -1.
         -5    1    3    3    0  502  0.97366088125E+02  0.20932253027E+02 -0.74162137443E+03  0.74829008395E+03  0.41800000000E+01 0. -1.
        -11    1    1    2    0    0 -0.30229449557E+02 -0.44339310614E+02 -0.24601172578E+03  0.25179667057E+03  0.00000000000E+00 0. -1.
         11    1    1    2    0    0 -0.45016445776E+02 -0.93677627161E+01 -0.34541343072E+02  0.57509475304E+02  0.00000000000E+00 0.  1.
</event>
<event>
 7    1  0.2394257E-009  0.7982647E+02  0.7561462E-02  0.1329545E+00
         -1   -1    0    0    0  501 -0.00000000000E+00  0.00000000000E+00  0.18716554700E+03  0.18716554700E+03  0.00000000000E+00 0.  1.
          1   -1    0    0  501    0  0.00000000000E+00 -0.00000000000E+00 -0.92253063120E+02  0.92253063120E+02  0.00000000000E+00 0. -1.
         25    2    1    2    0    0 -0.23098353451E+02 -0.42176971704E+02  0.55276912680E+01  0.13412796916E+03  0.12508927159E+03 0.  0.
          5    1    3    3  502    0 -0.22849969393E+02  0.17376848809E+02  0.51276663321E+02  0.58913874233E+02  0.41800000000E+01 0.  1.
         -5    1    3    3    0  502 -0.24838405748E+00 -0.59553820512E+02 -0.45748972053E+02  0.75214094930E+02  0.41800000000E+01 0.  1.
        -11    1    1    2    0    0  0.38815694924E+02  0.19736111225E+02 -0.78699256111E+01  0.44250513984E+02  0.00000000000E+00 0. -1.
         11    1    1    2    0    0 -0.15717341473E+02  0.22440860479E+02  0.97254718218E+02  0.10104012697E+03  0.00000000000E+00 0.  1.
</event>
<event>
 7    1  0.2394257E-009  0.1406239E+03  0.7561462E-02  0.1212492E+00
         -2   -1    0    0    0  501 -0.00000000000E+00  0.00000000000E+00  0.88442488984E+02  0.88442488984E+02  0.00000000000E+00 0.  1.
          2   -1    0    0  501    0  0.00000000000E+00 -0.00000000000E+00 -0.28523347399E+03  0.28523347399E+03  0.00000000000E+00 0. -1.
         25    2    1    2    0    0 -0.59888113334E+02  0.74985740826E+02 -0.29552240123E+02  0.16040824371E+03  0.12509205533E+03 0.  0.
          5    1    3    3  502    0  0.36475804853E+02  0.30298155386E+01 -0.12310309068E+02  0.38841733113E+02  0.41800000000E+01 0.  1.
         -5    1    3    3    0  502 -0.96363918187E+02  0.71955925287E+02 -0.17241931056E+02  0.12156651060E+03  0.41800000000E+01 0.  1.
        -11    1    1    2    0    0  0.57084220923E+02 -0.91213105416E+02 -0.16450958028E+03  0.19657528045E+03  0.00000000000E+00 0. -1.
         11    1    1    2    0    0  0.28038924117E+01  0.16227364591E+02 -0.27291645998E+01  0.16692438816E+02  0.00000000000E+00 0.  1.
</event>
<event>
 7    1  0.2394257E-009  0.8844546E+02  0.7561462E-02  0.1306660E+00
          1   -1    0    0  501    0  0.00000000000E+00  0.00000000000E+00  0.27429005734E+03  0.27429005734E+03  0.00000000000E+00 0. -1.
         -1   -1    0    0    0  501 -0.00000000000E+00 -0.00000000000E+00 -0.34726226999E+02  0.34726226999E+02  0.00000000000E+00 0.  1.
         25    2    1    2    0    0  0.12840264574E+02 -0.25428195671E+02  0.16701227236E+03  0.21059732954E+03  0.12508665221E+03 0.  0.
          5    1    3    3  502    0  0.60567274599E+02 -0.53307944211E+01  0.13854038205E+03  0.15135297149E+03  0.41800000000E+01 0.  1.
         -5    1    3    3    0  502 -0.47727010025E+02 -0.20097401250E+02  0.28471890316E+02  0.59244358053E+02  0.41800000000E+01 0.  1.
        -11    1    1    2    0    0 -0.22015064513E+02 -0.12262897746E+02  0.16030785969E+02  0.29866834875E+02  0.00000000000E+00 0.  1.
         11    1    1    2    0    0  0.91747999394E+01  0.37691093417E+02  0.56520772005E+02  0.68552119916E+02  0.00000000000E+00 0. -1.
</event>
<event>
 7    1  0.2394257E-009  0.7738182E+02  0.7561462E-02  0.1336650E+00
          1   -1    0    0  501    0  0.00000000000E+00  0.00000000000E+00  0.17226974650E+03  0.17226974650E+03  0.00000000000E+00 0. -1.
         -1   -1    0    0    0  501 -0.00000000000E+00 -0.00000000000E+00 -0.94687858696E+02  0.94687858696E+02  0.00000000000E+00 0.  1.
         25    2    1    2    0    0  0.63560853356E+02  0.28431067134E+02  0.45602719438E+02  0.15024967102E+03  0.12508816077E+03 0.  0.
          5    1    3    3  502    0  0.38912286911E+02 -0.74293515983E+01  0.83422539169E+02  0.92445409725E+02  0.41800000000E+01 0. -1.
         -5    1    3    3    0  502  0.24648566445E+02  0.35860418733E+02 -0.37819819731E+02  0.57804261296E+02  0.41800000000E+01 0. -1.
        -11    1    1    2    0    0 -0.41807000792E+02 -0.26217240549E+02  0.62205189841E+02  0.79401855523E+02  0.00000000000E+00 0. -1.
         11    1    1    2    0    0 -0.21753852564E+02 -0.22138265851E+01 -0.30226021481E+02  0.37306078648E+02  0.00000000000E+00 0.  1.
</event>
<event>
 7    1  0.2394257E-009  0.1244835E+03  0.7561462E-02  0.1235879E+00
         -2   -1    0    0    0  501 -0.00000000000E+00  0.00000000000E+00  0.20640233839E+03  0.20640233839E+03  0.00000000000E+00 0.  1.
          2   -1    0    0  501    0  0.00000000000E+00 -0.00000000000E+00 -0.81131095543E+02  0.81131095543E+02  0.00000000000E+00 0. -1.
         25    2    1    2    0    0 -0.18329616652E+02 -0.65079910520E+02  0.84168523360E+02  0.16523770534E+03  0.12509112415E+03 0.  0.
          5    1    3    3  502    0 -0.39404639988E+02  0.26360476392E+02  0.36011686830E+02  0.59681775748E+02  0.41800000000E+01 0. -1.
         -5    1    3    3    0  502  0.21075023336E+02 -0.91440386911E+02  0.48156836530E+02  0.10555592959E+03  0.41800000000E+01 0. -1.
        -11    1    1    2    0    0 -0.18706035987E+02 -0.11793830483E+02 -0.83894433619E+01  0.23651490011E+02  0.00000000000E+00 0. -1.
         11    1    1    2    0    0  0.37035652639E+02  0.76873741003E+02  0.49492162848E+02  0.98644238583E+02  0.00000000000E+00 0.  1.
</event>
<event>
 7    1  0.2394257E-009  0.2212209E+03  0.7561462E-02  0.1132976E+00
         -2   -1    0    0    0  501 -0.00000000000E+00  0.00000000000E+00  0.54867344608E+03  0.54867344608E+03  0.00000000000E+00 0.  1.
          2   -1    0    0  501    0  0.00000000000E+00 -0.00000000000E+00 -0.11123163010E+03  0.11123163010E+03  0.00000000000E+00 0. -1.
         25    2    1    2    0    0 -0.19163662885E+03 -0.10538465689E+02  0.36330200600E+03  0.42950306842E+03  0.12509548932E+03 0.  0.
          5    1    3    3  502    0 -0.80559328089E+00  0.32173067977E+02  0.67263244908E+02  0.74683142670E+02  0.41800000000E+01 0.  1.
         -5    1    3    3    0  502 -0.19083103557E+03 -0.42711533666E+02  0.29603876109E+03  0.35481992575E+03  0.41800000000E+01 0.  1.
        -11    1    1    2    0    0  0.35743323354E+02 -0.36966114516E+02  0.14752419067E+00  0.51420818257E+02  0.00000000000E+00 0. -1.
         11    1    1    2    0    0  0.15589330550E+03  0.47504580205E+02  0.73992285792E+02  0.17898118950E+03  0.00000000000E+00 0.  1.
</event>
<event>
 7    1  0.2394257E-009  0.8088392E+02  0.7561462E-02  0.1326562E+00
         -2   -1    0    0    0  501 -0.00000000000E+00  0.00000000000E+00  0.37878039597E+02  0.37878039597E+02  0.00000000000E+00 0.  1.
          2   -1    0    0  501    0  0.00000000000E+00 -0.00000000000E+00 -0.35058079055E+03  0.35058079055E+03  0.00000000000E+00 0. -1.
         25    2    1    2    0    0  0.15270706762E+02  0.67343855387E+01 -0.11700883264E+03  0.17209803163E+03  0.12509244239E+03 0.  0.
          5    1    3    3  502    0 -0.22071473499E+02 -0.29944350524E+02 -0.11345212013E+03  0.11946828045E+03  0.41800000000E+01 0.  1.
         -5    1    3    3    0  502  0.37342180261E+02  0.36678736063E+02 -0.35567125056E+01  0.52629751184E+02  0.41800000000E+01 0.  1.
        -11    1    1    2    0    0  0.21370659262E+02 -0.23296707392E+02 -0.23124878331E+02  0.39168886254E+02  0.00000000000E+00 0.  1.
         11    1    1    2    0    0 -0.36641366024E+02  0.16562321854E+02 -0.17256903998E+03  0.17719191226E+03  0.00000000000E+00 0. -1.
</event>
<event>
 7    1  0.2394257E-009  0.1180479E+03  0.7561462E-02  0.1246353E+00
          2   -1    0    0  501    0  0.00000000000E+00  0.00000000000E+00  0.26122232730E+03  0.26122232730E+03  0.00000000000E+00 0. -1.
         -2   -1    0    0    0  501 -0.00000000000E+00 -0.00000000000E+00 -0.18042655542E+03  0.18042655542E+03  0.00000000000E+00 0.  1.
         25    2    1    2    0    0 -0.84539360711E+02  0.34280983831E+02  0.20823934729E+03  0.25948572949E+03  0.12508848343E+03 0.  0.
          5    1    3    3  502    0 -0.77515504806E+02  0.47058116675E+02  0.56359318728E+02  0.10685019905E+03  0.41800000000E+01 0.  1.
         -5    1    3    3    0  502 -0.70238559049E+01 -0.12777132843E+02  0.15188002857E+03  0.15263553044E+03  0.41800000000E+01 0.  1.
        -11    1    1    2    0    0  0.15481096074E+02  0.31296805323E+02 -0.33222235605E+02  0.48196175135E+02  0.00000000000E+00 0.  1.
         11    1    1    2    0    0  0.69058264637E+02 -0.65577789154E+02 -0.94221339804E+02  0.13396697809E+03  0.00000000000E+00 0. -1.
</event>
<event>
 7    1  0.2394257E-009  0.1326761E+03  0.7561462E-02  0.1223538E+00
          1   -1    0    0  501    0  0.00000000000E+00  0.00000000000E+00  0.11619575465E+03  0.11619575465E+03  0.00000000000E+00 0. -1.
         -1   -1    0    0    0  501 -0.00000000000E+00 -0.00000000000E+00 -0.20449299208E+03  0.20449299208E+03  0.00000000000E+00 0.  1.
         25    2    1    2    0    0  0.10019110015E+03 -0.12806337295E+02 -0.63388335003E+02  0.17282577304E+03  0.12509359691E+03 0.  0.
          5    1    3    3  502    0  0.26853473384E+02 -0.34001636814E+02  0.29453297626E+02  0.52556536033E+02  0.41800000000E+01 0. -1.
         -5    1    3    3    0  502  0.73337626762E+02  0.21195299519E+02 -0.92841632629E+02  0.12026923701E+03  0.41800000000E+01 0. -1.
        -11    1    1    2    0    0  0.10499972958E+02  0.31417724780E+02 -0.10186804002E+02  0.34656800750E+02  0.00000000000E+00 0.  1.
         11    1    1    2    0    0 -0.11069107310E+03 -0.18611387485E+02 -0.14722098427E+02  0.11320617294E+03  0.00000000000E+00 0. -1.
</event>
<event>
 7    1  0.2394257E-009  0.1437774E+03  0.7561462E-02  0.1208335E+00
         -2   -1    0    0    0  501 -0.00000000000E+00  0.00000000000E+00  0.15326074544E+03  0.15326074544E+03  0.00000000000E+00 0. -1.
          2   -1    0    0  501    0  0.00000000000E+00 -0.00000000000E+00 -0.16789813027E+03  0.16789813027E+03  0.00000000000E+00 0.  1.
         25    2    1    2    0    0 -0.64907049753E+02  0.80815032307E+02 -0.64567650265E+02  0.17481994917E+03  0.12509611749E+03 0.  0.
          5    1    3    3  502    0  0.16912852196E+02 -0.16208629801E+02  0.11881413459E+02  0.26597079449E+02  0.41800000000E+01 0. -1.
         -5    1    3    3    0  502 -0.81819901950E+02  0.97023662108E+02 -0.76449063724E+02  0.14822286972E+03  0.41800000000E+01 0. -1.
        -11    1    1    2    0    0 -0.20303292084E+02 -0.33862237642E+02  0.21615442437E+02  0.45012244549E+02  0.00000000000E+00 0.  1.
         11    1    1    2    0    0  0.85210341838E+02 -0.46952794666E+02  0.28314823001E+02  0.10132668200E+03  0.00000000000E+00 0. -1.
</event>
<event>
 7    1  0.2394257E-009  0.9870540E+02  0.7561462E-02  0.1283042E+00
         -1   -1    0    0    0  501 -0.00000000000E+00  0.00000000000E+00  0.48281517834E+02  0.48281517834E+02  0.00000000000E+00 0.  1.
          1   -1    0    0  501    0  0.00000000000E+00 -0.00000000000E+00 -0.34627508794E+03  0.34627508794E+03  0.00000000000E+00 0. -1.
         25    2    1    2    0    0 -0.21958407118E+02  0.63163403128E+02 -0.19690363858E+03  0.24267557171E+03  0.12509437669E+03 0.  0.
          5    1    3    3  502    0 -0.48600466462E+02  0.55320889803E+02 -0.41247131426E+02  0.84505647384E+02  0.41800000000E+01 0.  1.
         -5    1    3    3    0  502  0.26642059344E+02  0.78425133243E+01 -0.15565650715E+03  0.15816992432E+03  0.41800000000E+01 0.  1.
        -11    1    1    2    0    0  0.46737140148E+02 -0.37777523291E+02 -0.19942247478E+02  0.63318202515E+02  0.00000000000E+00 0.  1.
         11    1    1    2    0    0 -0.24778733030E+02 -0.25385879836E+02 -0.81147684048E+02  0.88562831549E+02  0.00000000000E+00 0. -1.
</event>
<event>
 7    1  0.2394257E-009  0.1053445E+03  0.7561462E-02  0.1269442E+00
         -2   -1    0    0    0  501 -0.00000000000E+00  0.00000000000E+00  0.24068129774E+02  0.24068129774E+02  0.00000000000E+00 0.  1.
          2   -1    0    0  501    0  0.00000000000E+00 -0.00000000000E+00 -0.55312581859E+03  0.55312581859E+03  0.00000000000E+00 0. -1.
         25    2    1    2    0    0  0.27377103634E+02  0.27624136253E+02 -0.27652125568E+03  0.30598337960E+03  0.12509686262E+03 0.  0.
          5    1    3    3  502    0  0.25475274988E+02 -0.44860447570E+02 -0.16473306969E+03  0.17267282948E+03  0.41800000000E+01 0. -1.
         -5    1    3    3    0  502  0.19018286460E+01  0.72484583823E+02 -0.11178818599E+03  0.13331055011E+03  0.41800000000E+01 0. -1.
        -11    1    1    2    0    0 -0.42511780303E+02  0.11760350526E+02 -0.62190206338E+02  0.76244206818E+02  0.00000000000E+00 0.  1.
         11    1    1    2    0    0  0.15134676669E+02 -0.39384486779E+02 -0.19034622680E+03  0.19496636195E+03  0.00000000000E+00 0. -1.
</event>
<event>
 7    1  0.2394257E-009  0.1455537E+03  0.7561462E-02  0.1206045E+00
         -1   -1    0    0    0  501 -0.00000000000E+00  0.00000000000E+00  0.12461352783E+03  0.12461352783E+03  0.00000000000E+00 0.  1.
          1   -1    0    0  501    0  0.00000000000E+00 -0.00000000000E+00 -0.22415710235E+03  0.22415710235E+03  0.00000000000E+00 0. -1.
         25    2    1    2    0    0 -0.99900320736E+02  0.61833025644E+02 -0.10231438788E+03  0.19979779440E+03  0.12509007769E+03 0.  0.
          5    1    3    3  502    0 -0.24802221724E+02  0.62457416893E+02 -0.10477047709E+03  0.12454077404E+03  0.41800000000E+01 0.  1.
         -5    1    3    3    0  502 -0.75098099011E+02 -0.62439124913E+00  0.24560892119E+01  0.75257020362E+02  0.41800000000E+01 0.  1.
        -11    1    1    2    0    0  0.37084029359E+02 -0.75641425618E+02  0.68960855959E+01  0.84524591094E+02  0.00000000000E+00 0.  1.
         11    1    1    2    0    0  0.62816291377E+02  0.13808399974E+02 -0.41252722377E+01  0.64448244687E+02  0.00000000000E+00 0. -1.
</event>
<event>
 7    1  0.2394257E-009  0.8692069E+02  0.7561462E-02  0.1310485E+00
         -2   -1    0    0    0  501 -0.00000000000E+00  0.00000000000E+00  0.11648024801E+02  0.11648024801E+02  0.00000000000E+00 0.  1.
          2   -1    0    0  501    0  0.00000000000E+00 -0.00000000000E+00 -0.11769915363E+04  0.11769915363E+04  0.00000000000E+00 0. -1.
         25    2    1    2    0    0  0.19652455386E+02  0.72248632164E+01 -0.86110063232E+03  0.87039090398E+03  0.12509040372E+03 0.  0.
          5    1    3    3  502    0  0.39834927862E+02  0.31919164032E+02 -0.14886035142E+03  0.15742468401E+03  0.41800000000E+01 0. -1.
         -5    1    3    3    0  502 -0.20182472476E+02 -0.24694300816E+02 -0.71224028090E+03  0.71296621998E+03  0.41800000000E+01 0. -1.
        -11    1    1    2    0    0 -0.31798157375E+02 -0.42541816754E+02 -0.21587677964E+03  0.22231444616E+03  0.00000000000E+00 0.  1.
         11    1    1    2    0    0  0.12145701989E+02  0.35316953538E+02 -0.88366099565E+02  0.95934210980E+02  0.00000000000E+00 0. -1.
</event>
<event>
 7    1  0.2394257E-009  0.1092451E+03  0.7561462E-02  0.1261974E+00
         -1   -1    0    0    0  501 -0.00000000000E+00  0.00000000000E+00  0.23043149622E+02  0.23043149622E+02  0.00000000000E+00 0.  1.
          1   -1    0    0  501    0  0.00000000000E+00 -0.00000000000E+00 -0.57319351145E+03  0.57319351145E+03  0.00000000000E+00 0. -1.
         25    2    1    2    0    0 -0.15441322373E+02  0.36063320079E+02 -0.33106122044E+03  0.35607315637E+03  0.12509022150E+03 0.  0.
          5    1    3    3  502    0 -0.55306070635E+02  0.58516728552E+02 -0.25254554625E+03  0.26510317671E+03  0.41800000000E+01 0.  1.
         -5    1    3    3    0  502  0.39864748262E+02 -0.22453408473E+02 -0.78515674184E+02  0.90969979656E+02  0.41800000000E+01 0.  1.
        -11    1    1    2    0    0 -0.32669911082E+02 -0.28228767382E+02 -0.61029533592E+02  0.74758212716E+02  0.00000000000E+00 0.  1.
         11    1    1    2    0    0  0.48111233455E+02 -0.78345526973E+01 -0.15805960780E+03  0.16540529199E+03  0.00000000000E+00 0. -1.
</event>
<event>
 7    1  0.2394257E-009  0.1071634E+03  0.7561462E-02  0.1265915E+00
          1   -1    0    0  501    0  0.00000000000E+00  0.00000000000E+00  0.29402545727E+03  0.29402545727E+03  0.00000000000E+00 0. -1.
         -1   -1    0    0    0  501 -0.00000000000E+00 -0.00000000000E+00 -0.55069717971E+02  0.55069717971E+02  0.00000000000E+00 0.  1.
         25    2    1    2    0    0 -0.16416868106E+02  0.10824753336E+02  0.22411096560E+03  0.25741258729E+03  0.12509526910E+03 0.  0.
          5    1    3    3  502    0 -0.64833999764E+01  0.67738794077E+02  0.13280656362E+03  0.14928373802E+03  0.41800000000E+01 0.  1.
         -5    1    3    3    0  502 -0.99334681297E+01 -0.56914040741E+02  0.91304401981E+02  0.10812884927E+03  0.41800000000E+01 0.  1.
        -11    1    1    2    0    0  0.38179956558E+01 -0.48422247439E+02  0.18241919739E+02  0.51885053470E+02  0.00000000000E+00 0. -1.
         11    1    1    2    0    0  0.12598872450E+02  0.37597494102E+02 -0.33971460361E+01  0.39797534484E+02  0.00000000000E+00 0.  1.
</event>
<event>
 7    1  0.2394257E-009  0.9887654E+02  0.7561462E-02  0.1282676E+00
          1   -1    0    0  501    0  0.00000000000E+00  0.00000000000E+00  0.74014161049E+03  0.74014161049E+03  0.00000000000E+00 0. -1.
         -1   -1    0    0    0  501 -0.00000000000E+00 -0.00000000000E+00 -0.18064928912E+02  0.18064928912E+02  0.00000000000E+00 0.  1.
         25    2    1    2    0    0  0.37851915645E+02 -0.13877343466E+02  0.41598277358E+03  0.43625129604E+03  0.12509267445E+03 0.  0.
          5    1    3    3  502    0  0.34041486585E+02  0.39059163770E+02  0.33710160708E+03  0.34108562998E+03  0.41800000000E+01 0.  1.
         -5    1    3    3    0  502  0.38104290597E+01 -0.52936507237E+02  0.78881166504E+02  0.95165666062E+02  0.41800000000E+01 0.  1.
        -11    1    1    2    0    0 -0.52641364629E+02  0.37522713538E+02  0.26138688750E+03  0.26926227411E+03  0.00000000000E+00 0. -1.
         11    1    1    2    0    0  0.14789448984E+02 -0.23645370072E+02  0.44707020493E+02  0.52692969250E+02  0.00000000000E+00 0.  1.
</event>
<event>
 7    1  0.2394257E-009  0.1234369E+03  0.7561462E-02  0.1237532E+00
         -2   -1    0    0    0  501 -0.00000000000E+00  0.00000000000E+00  0.37057905859E+02  0.37057905859E+02  0.00000000000E+00 0. -1.
          2   -1    0    0  501    0  0.00000000000E+00 -0.00000000000E+00 -0.13959512633E+04  0.13959512633E+04  0.00000000000E+00 0.  1.
         25    2    1    2    0    0 -0.76542127555E+02 -0.96151704872E+02 -0.12165854079E+04  0.12291587698E+04  0.12508948376E+03 0.  0.
          5    1    3    3  502    0 -0.68857918864E+02 -0.80239324761E+02 -0.44681144075E+03  0.45917066350E+03  0.41800000000E+01 0. -1.
         -5    1    3    3    0  502 -0.76842086914E+01 -0.15912380111E+02 -0.76977396717E+03  0.76998810629E+03  0.41800000000E+01 0. -1.
        -11    1    1    2    0    0  0.18021743861E+02  0.22961829321E+02  0.46498563894E+01  0.29557571314E+02  0.00000000000E+00 0. -1.
         11    1    1    2    0    0  0.58520383694E+02  0.73189875551E+02 -0.14695780586E+03  0.17429282801E+03  0.00000000000E+00 0.  1.
</event>
<event>
 7    1  0.2394257E-009  0.1080798E+03  0.7561462E-02  0.1264168E+00
         -1   -1    0    0    0  501 -0.00000000000E+00  0.00000000000E+00  0.41553356432E+02  0.41553356432E+02  0.00000000000E+00 0.  1.
          1   -1    0    0  501    0  0.00000000000E+00 -0.00000000000E+00 -0.30880650200E+03  0.30880650200E+03  0.00000000000E+00 0. -1.
         25    2    1    2    0    0 -0.20470631459E+02 -0.23138326507E+02 -0.14519780808E+03  0.19412862616E+03  0.12509632736E+03 0.  0.
          5    1    3    3  502    0 -0.44460856097E+02  0.35499784107E+02 -0.34945269002E+02  0.66900273708E+02  0.41800000000E+01 0.  1.
         -5    1    3    3    0  502  0.23990224638E+02 -0.58638110614E+02 -0.11025253908E+03  0.12722835246E+03  0.41800000000E+01 0.  1.
        -11    1    1    2    0    0  0.37525473526E+02  0.50778504884E+02 -0.65255929320E+02  0.90801729241E+02  0.00000000000E+00 0. -1.
         11    1    1    2    0    0 -0.17054842067E+02 -0.27640178377E+02 -0.56799408162E+02  0.65429503026E+02  0.00000000000E+00 0.  1.
</event>
<event>
 7    1  0.2394257E-009  0.1441277E+03  0.7561462E-02  0.1207880E+00
         -1   -1    0    0    0  501 -0.00000000000E+00  0.00000000000E+00  0.59185873773E+02  0.59185873773E+02  0.00000000000E+00 0.  1.
          1   -1    0    0  501    0  0.00000000000E+00 -0.00000000000E+00 -0.46960559435E+03  0.46960559435E+03  0.00000000000E+00 0. -1.
         25    2    1    2    0    0 -0.12432217462E+03 -0.59679269575E+01 -0.24021399208E+03  0.29806375454E+03  0.12509044940E+03 0.  0.
          5    1    3    3  502    0 -0.63153348590E+02 -0.25380273026E+02 -0.23686436283E+02  0.72187418300E+02  0.41800000000E+01 0.  1.
         -5    1    3    3    0  502 -0.61168826029E+02  0.19412346068E+02 -0.21652755579E+03  0.22587633624E+03  0.41800000000E+01 0.  1.
        -11    1    1    2    0    0  0.11673527932E+03  0.38054995122E+02 -0.13566583714E+03  0.18297684951E+03  0.00000000000E+00 0.  1.
         11    1    1    2    0    0  0.75868952990E+01 -0.32087068165E+02 -0.34539891368E+02  0.47750864070E+02  0.00000000000E+00 0. -1.
</event>
<event>
 7    1  0.2394257E-009  0.1395558E+03  0.7561462E-02  0.1213928E+00
         -1   -1    0    0    0  501 -0.00000000000E+00  0.00000000000E+00  0.33527247323E+02  0.33527247323E+02  0.00000000000E+00 0.  1.
          1   -1    0    0  501    0  0.00000000000E+00 -0.00000000000E+00 -0.92160597359E+03  0.92160597359E+03  0.00000000000E+00 0. -1.
         25    2    1    2    0    0  0.11639334795E+03 -0.33408198237E+01 -0.27117927150E+03  0.32053784631E+03  0.12509093132E+03 0.  0.
          5    1    3    3  502    0  0.85463098879E+02  0.31970957339E+02 -0.25474511759E+03  0.27062636738E+03  0.41800000000E+01 0. -1.
         -5    1    3    3    0  502  0.30930249073E+02 -0.35311777163E+02 -0.16434153909E+02  0.49911478928E+02  0.41800000000E+01 0. -1.
        -11    1    1    2    0    0 -0.12693417958E+03  0.11294016998E+02 -0.59868729781E+03  0.61209992756E+03  0.00000000000E+00 0. -1.
         11    1    1    2    0    0  0.10540831627E+02 -0.79531971742E+01 -0.18212156957E+02  0.22495447044E+02  0.00000000000E+00 0.  1.
</event>
<event>
 7    1  0.2394257E-009  0.1610320E+03  0.7561462E-02  0.1187537E+00
         -2   -1    0    0    0  501 -0.00000000000E+00  0.00000000000E+00  0.52683668093E+02  0.52683668093E+02  0.00000000000E+00 0.  1.
          2   -1    0    0  501    0  0.00000000000E+00 -0.00000000000E+00 -0.68954218291E+03  0.68954218291E+03  0.00000000000E+00 0. -1.
         25    2    1    2    0    0  0.12402512669E+03 -0.81734899579E+02 -0.42908014161E+03  0.47097733900E+03  0.12508820916E+03 0.  0.
          5    1    3    3  502    0  0.96274267875E+01 -0.23518220413E+02 -0.24599812413E+03  0.24734256309E+03  0.41800000000E+01 0.  1.
         -5    1    3    3    0  502  0.11439769990E+03 -0.58216679166E+02 -0.18308201748E+03  0.22363477592E+03  0.41800000000E+01 0.  1.
        -11    1    1    2    0    0 -0.12007107502E+03  0.40883150943E+02 -0.12120874074E+03  0.17544245188E+03  0.00000000000E+00 0.  1.
         11    1    1    2    0    0 -0.39540516617E+01  0.40851748636E+02 -0.86569632466E+02  0.95806060124E+02  0.00000000000E+00 0. -1.
</event>
<event>
 7    1  0.2394257E-009  0.1163480E+03  0.7561462E-02  0.1249246E+00
         -1   -1    0    0    0  501 -0.00000000000E+00  0.00000000000E+00  0.10091536944E+03  0.10091536944E+03  0.00000000000E+00 0.  1.
          1   -1    0    0  501    0  0.00000000000E+00 -0.00000000000E+00 -0.17671556132E+03  0.17671556132E+03  0.00000000000E+00 0. -1.
         25    2    1    2    0    0 -0.48327197207E+02  0.26333075112E+02  0.16398764870E+02  0.13762541160E+03  0.12507152191E+03 0.  0.
          5    1    3    3  502    0 -0.31696479532E+02  0.74388985723E+02 -0.74363065811E+01  0.81309034352E+02  0.41800000000E+01 0. -1.
         -5    1    3    3    0  502 -0.16630717675E+02 -0.48055910612E+02  0.23835071451E+02  0.56316377247E+02  0.41800000000E+01 0. -1.
        -11    1    1    2    0    0  0.47876526124E+02  0.21773654573E+02 -0.68538665754E+02  0.86393301190E+02  0.00000000000E+00 0. -1.
         11    1    1    2    0    0  0.45067108208E+00 -0.48106729685E+02 -0.23660290993E+02  0.53612217966E+02  0.00000000000E+00 0.  1.
</event>
<event>
 7    1  0.2394257E-009  0.1069198E+03  0.7561462E-02  0.1266383E+00
         -1   -1    0    0    0  501 -0.00000000000E+00  0.00000000000E+00  0.40858590491E+03  0.40858590491E+03  0.00000000000E+00 0.  1.
          1   -1    0    0  501    0  0.00000000000E+00 -0.00000000000E+00 -0.33753887421E+02  0.33753887421E+02  0.00000000000E+00 0. -1.
         25    2    1    2    0    0  0.37947899347E+02  0.20650859507E+02  0.17980421676E+03  0.22324935241E+03  0.12507684008E+03 0.  0.
          5    1    3    3  502    0  0.23058705358E+02  0.65444678821E+02  0.51614106803E+02  0.86580588470E+02  0.41800000000E+01 0.  1.
         -5    1    3    3    0  502  0.14889193989E+02 -0.44793819314E+02  0.12819010996E+03  0.13666876394E+03  0.41800000000E+01 0.  1.
        -11    1    1    2    0    0  0.76925381043E+01  0.28702502290E+02  0.86169770369E+02  0.91149537056E+02  0.00000000000E+00 0.  1.
         11    1    1    2    0    0 -0.45640437451E+02 -0.49353361796E+02  0.10885803036E+03  0.12794090286E+03  0.00000000000E+00 0. -1.
</event>
<event>
 7    1  0.2394257E-009  0.8099324E+02  0.7561462E-02  0.1326256E+00
          3   -1    0    0  501    0  0.00000000000E+00  0.00000000000E+00  0.54269874885E+03  0.54269874885E+03  0.00000000000E+00 0. -1.
         -3   -1    0    0    0  501 -0.00000000000E+00 -0.00000000000E+00 -0.34890381936E+02  0.34890381936E+02  0.00000000000E+00 0.  1.
         25    2    1    2    0    0 -0.28471113480E+02  0.10994965362E+02  0.45059287700E+03  0.46862889842E+03  0.12509040757E+03 0.  0.
          5    1    3    3  502    0 -0.59178763560E+02 -0.20860032721E+02  0.38030283258E+03  0.38546722804E+03  0.41800000000E+01 0.  1.
         -5    1    3    3    0  502  0.30707650080E+02  0.31854998083E+02  0.70290044413E+02  0.83161670378E+02  0.41800000000E+01 0.  1.
        -11    1    1    2    0    0  0.18324930218E+02 -0.28816442217E+02  0.74619933665E+02  0.82062932617E+02  0.00000000000E+00 0. -1.
         11    1    1    2    0    0  0.10146183261E+02  0.17821476855E+02 -0.17404443745E+02  0.26897299756E+02  0.00000000000E+00 0.  1.
</event>
<event>
 7    1  0.2394257E-009  0.8597313E+02  0.7561462E-02  0.1312907E+00
          2   -1    0    0  501    0  0.00000000000E+00  0.00000000000E+00  0.39291635492E+03  0.39291635492E+03  0.00000000000E+00 0. -1.
         -2   -1    0    0    0  501 -0.00000000000E+00 -0.00000000000E+00 -0.29868151812E+02  0.29868151812E+02  0.00000000000E+00 0.  1.
         25    2    1    2    0    0  0.60826930946E+01 -0.31879315458E+00  0.22252533849E+03  0.25534610970E+03  0.12508800375E+03 0.  0.
          5    1    3    3  502    0  0.57466186513E+02  0.23097365519E+02  0.75177245407E+02  0.97493289580E+02  0.41800000000E+01 0. -1.
         -5    1    3    3    0  502 -0.51383493418E+02 -0.23416158673E+02  0.14734809309E+03  0.15785282012E+03  0.41800000000E+01 0. -1.
        -11    1    1    2    0    0 -0.42173483417E+01 -0.26264252195E+02  0.23332778870E+01  0.26702830488E+02  0.00000000000E+00 0.  1.
         11    1    1    2    0    0 -0.18653447529E+01  0.26583045349E+02  0.13818958673E+03  0.14073556654E+03  0.00000000000E+00 0. -1.
</event>
<event>
 7    1  0.2394257E-009  0.1065116E+03  0.7561462E-02  0.1267170E+00
          2   -1    0    0  501    0  0.00000000000E+00  0.00000000000E+00  0.13142320023E+03  0.13142320023E+03  0.00000000000E+00 0. -1.
         -2   -1    0    0    0  501 -0.00000000000E+00 -0.00000000000E+00 -0.94724272367E+02  0.94724272367E+02  0.00000000000E+00 0.  1.
         25    2    1    2    0    0 -0.96680741471E+01 -0.26245596690E+02  0.21565787782E+01  0.12819816913E+03  0.12509123364E+03 0.  0.
          5    1    3    3  502    0 -0.64030407182E+02 -0.34634521622E+02 -0.12601522895E+01  0.72928070834E+02  0.41800000000E+01 0.  1.
         -5    1    3    3    0  502  0.54362333035E+02  0.83889249315E+01  0.34167310677E+01  0.55270098296E+02  0.41800000000E+01 0.  1.
        -11    1    1    2    0    0  0.15905426273E+02 -0.26997462411E+02  0.31230187171E+02  0.44239915826E+02  0.00000000000E+00 0. -1.
         11    1    1    2    0    0 -0.62373521255E+01  0.53243059101E+02  0.33121619121E+01  0.53709387639E+02  0.00000000000E+00 0.  1.
</event>
<event>
 7    1  0.2394257E-009  0.1411270E+03  0.7561462E-02  0.1211820E+00
          1   -1    0    0  501    0  0.00000000000E+00  0.00000000000E+00  0.12047568585E+03  0.12047568585E+03  0.00000000000E+00 0. -1.
         -1   -1    0    0    0  501 -0.00000000000E+00 -0.00000000000E+00 -0.28199372098E+03  0.28199372098E+03  0.00000000000E+00 0.  1.
         25    2    1    2    0    0 -0.71201606833E+02  0.95872408977E+02 -0.18266440802E+03  0.25154348316E+03  0.12508657141E+03 0.  0.
          5    1    3    3  502    0  0.13945586863E+01 -0.92078356921E+01 -0.97373990589E+02  0.97907586403E+02  0.41800000000E+01 0. -1.
         -5    1    3    3    0  502 -0.72596165519E+02  0.10508024467E+03 -0.85290417429E+02  0.15363589676E+03  0.41800000000E+01 0. -1.
        -11    1    1    2    0    0  0.70200271069E+01  0.14767453487E+02  0.16056682191E+02  0.22916708011E+02  0.00000000000E+00 0. -1.
         11    1    1    2    0    0  0.64181579726E+02 -0.11063986246E+03  0.50896907032E+01  0.12800921566E+03  0.00000000000E+00 0.  1.
</event>
<event>
 7    1  0.2394257E-009  0.1359307E+03  0.7561462E-02  0.1218912E+00
          1   -1    0    0  501    0  0.00000000000E+00  0.00000000000E+00  0.24413965282E+03  0.24413965282E+03  0.00000000000E+00 0. -1.
         -1   -1    0    0    0  501 -0.00000000000E+00 -0.00000000000E+00 -0.10794948682E+03  0.10794948682E+03  0.00000000000E+00 0.  1.
         25    2    1    2    0    0  0.11693029221E+03 -0.14674261343E+02  0.33828181958E+02  0.17515797509E+03  0.12509173897E+03 0.  0.
          5    1    3    3  502    0  0.12983141845E+03 -0.17957993615E+02  0.60988740558E+02  0.14462290837E+03  0.41800000000E+01 0. -1.
         -5    1    3    3    0  502 -0.12901126238E+02  0.32837322721E+01 -0.27160558600E+02  0.30535066715E+02  0.41800000000E+01 0. -1.
        -11    1    1    2    0    0 -0.11106661420E+03  0.25956148428E+02  0.52660285790E+02  0.12562889847E+03  0.00000000000E+00 0.  1.
         11    1    1    2    0    0 -0.58636780109E+01 -0.11281887085E+02  0.49701698252E+02  0.51302266082E+02  0.00000000000E+00 0. -1.
</event>
<event>
 7    1  0.2394257E-009  0.1191092E+03  0.7561462E-02  0.1244574E+00
          1   -1    0    0  501    0  0.00000000000E+00  0.00000000000E+00  0.37157666779E+03  0.37157666779E+03  0.00000000000E+00 0. -1.
         -1   -1    0    0    0  501 -0.00000000000E+00 -0.00000000000E+00 -0.42920802775E+02  0.42920802775E+02  0.00000000000E+00 0.  1.
         25    2    1    2    0    0 -0.62286266243E+02  0.23307872489E+02  0.17816376978E+03  0.22762316652E+03  0.12508853341E+03 0.  0.
          5    1    3    3  502    0  0.36143907944E+02  0.13165416248E+02  0.76291940278E+02  0.85543221928E+02  0.41800000000E+01 0.  1.
         -5    1    3    3    0  502 -0.98430174187E+02  0.10142456241E+02  0.10187182950E+03  0.14207994459E+03  0.41800000000E+01 0.  1.
        -11    1    1    2    0    0  0.79304644574E+02 -0.12391686807E+02  0.79169285787E+02  0.11274110326E+03  0.00000000000E+00 0.  1.
         11    1    1    2    0    0 -0.17018378332E+02 -0.10916185682E+02  0.71322809447E+02  0.74133200783E+02  0.00000000000E+00 0. -1.
</event>
<event>
 7    1  0.2394257E-009  0.9611732E+02  0.7561462E-02  0.1288679E+00
         -2   -1    0    0    0  501 -0.00000000000E+00  0.00000000000E+00  0.19938886224E+03  0.19938886224E+03  0.00000000000E+00 0.  1.
          2   -1    0    0  501    0  0.00000000000E+00 -0.00000000000E+00 -0.74944450750E+02  0.74944450750E+02  0.00000000000E+00 0. -1.
         25    2    1    2    0    0  0.35452219451E+02 -0.43653003413E+02  0.77520656073E+02  0.15753619436E+03  0.12508299583E+03 0.  0.
          5    1    3    3  502    0  0.37849915702E+02  0.38232795753E+02  0.20913379493E+02  0.57872313169E+02  0.41800000000E+01 0.  1.
         -5    1    3    3    0  502 -0.23976962510E+01 -0.81885799166E+02  0.56607276580E+02  0.99663881191E+02  0.41800000000E+01 0.  1.
        -11    1    1    2    0    0 -0.22057509947E+02  0.26334198984E+02 -0.24434685672E+02  0.42155398766E+02  0.00000000000E+00 0. -1.
         11    1    1    2    0    0 -0.13394709504E+02  0.17318804428E+02  0.71358441089E+02  0.74641719863E+02  0.00000000000E+00 0.  1.
</event>
<event>
 7    1  0.2394257E-009  0.1270969E+03  0.7561462E-02  0.1231828E+00
         -1   -1    0    0    0  501 -0.00000000000E+00  0.00000000000E+00  0.25208433007E+02  0.25208433007E+02  0.00000000000E+00 0.  1.
          1   -1    0    0  501    0  0.00000000000E+00 -0.00000000000E+00 -0.76292893560E+03  0.76292893560E+03  0.00000000000E+00 0. -1.
         25    2    1    2    0    0  0.82192225489E+02  0.16133658143E+02 -0.47328440461E+03  0.49664999862E+03  0.12508891488E+03 0.  0.
          5    1    3    3  502    0  0.80549125968E+01 -0.39914045605E+02 -0.27004351461E+03  0.27312814728E+03  0.41800000000E+01 0. -1.
         -5    1    3    3    0  502  0.74137312892E+02  0.56047703749E+02 -0.20324089000E+03  0.22352185134E+03  0.41800000000E+01 0. -1.
        -11    1    1    2    0    0  0.28988871580E+00  0.27100313837E+02 -0.38231622540E+02  0.46863290618E+02  0.00000000000E+00 0. -1.
         11    1    1    2    0    0 -0.82482114204E+02 -0.43233971980E+02 -0.22620447544E+03  0.24462407937E+03  0.00000000000E+00 0.  1.
</event>
<event>
 7    1  0.2394257E-009  0.1308646E+03  0.7561462E-02  0.1226178E+00
         -1   -1    0    0    0  501 -0.00000000000E+00  0.00000000000E+00  0.39382137202E+03  0.39382137202E+03  0.00000000000E+00 0.  1.
          1   -1    0    0  501    0  0.00000000000E+00 -0.00000000000E+00 -0.65076183821E+02  0.65076183821E+02  0.00000000000E+00 0. -1.
         25    2    1    2    0    0  0.95040683341E+02  0.55028938932E+02  0.11683244225E+03  0.20337236713E+03  0.12509829952E+03 0.  0.
          5    1    3    3  502    0  0.27812832191E+02  0.52079464492E+02  0.12215616934E+03  0.13574029013E+03  0.41800000000E+01 0. -1.
         -5    1    3    3    0  502  0.67227851151E+02  0.29494744393E+01 -0.53237270913E+01  0.67632077005E+02  0.41800000000E+01 0. -1.
        -11    1    1    2    0    0 -0.35502338191E+01 -0.42646256067E+02  0.10989741545E+03  0.11793536043E+03  0.00000000000E+00 0.  1.
         11    1    1    2    0    0 -0.91490449522E+02 -0.12382682865E+02  0.10201533050E+03  0.13758982828E+03  0.00000000000E+00 0. -1.
</event>
<event>
 7    1  0.2662026E-009  0.1055050E+03  0.7561462E-02  0.1269128E+00
         -1   -1    0    0    0  501 -0.00000000000E+00  0.00000000000E+00  0.43602292665E+02  0.43602292665E+02  0.00000000000E+00 0.  1.
          1   -1    0    0  501    0  0.00000000000E+00 -0.00000000000E+00 -0.40750864495E+03  0.40750864495E+03  0.00000000000E+00 0. -1.
         25    2    1    2    0    0  0.50098662874E+02 -0.48856190658E+02 -0.14569438819E+03  0.20438238707E+03  0.12509397270E+03 0.  0.
          5    1    3    3  502    0 -0.12324548090E+02  0.23354154606E+02 -0.89789721331E+02  0.93685524387E+02  0.41800000000E+01 0. -1.
         -5    1    3    3    0  502  0.62423210964E+02 -0.72210345264E+02 -0.55904666862E+02  0.11069686268E+03  0.41800000000E+01 0. -1.
        -11    1    1    2    0    0 -0.48613825879E+01  0.42817920995E+02 -0.28644479875E+02  0.51744696600E+02  0.00000000000E+00 0.  1.
         11    1    1    2    0    0 -0.45237280286E+02  0.60382696629E+01 -0.18956748422E+03  0.19498385395E+03  0.00000000000E+00 0. -1.
</event>
<event>
 7    1  0.2394257E-009  0.8422659E+02  0.7561462E-02  0.1317468E+00
          2   -1    0    0  501    0  0.00000000000E+00  0.00000000000E+00  0.93093119559E+02  0.93093119559E+02  0.00000000000E+00 0. -1.
         -2   -1    0    0    0  501 -0.00000000000E+00 -0.00000000000E+00 -0.17389676855E+03  0.17389676855E+03  0.00000000000E+00 0.  1.
         25    2    1    2    0    0 -0.25496640835E+02  0.23188824766E+02 -0.10428036062E+03  0.16646417570E+03  0.12509247737E+03 0.  0.
          5    1    3    3  502    0 -0.34340856568E+02  0.53461191774E+02 -0.69376439962E+01  0.64054638864E+02  0.41800000000E+01 0.  1.
         -5    1    3    3    0  502  0.88442157336E+01 -0.30272367008E+02 -0.97342716622E+02  0.10240953684E+03  0.41800000000E+01 0.  1.
        -11    1    1    2    0    0 -0.79850396679E+01 -0.36177989522E+02 -0.21604996287E+02  0.42888036198E+02  0.00000000000E+00 0.  1.
         11    1    1    2    0    0  0.33481680503E+02  0.12989164756E+02  0.45081707914E+02  0.57637676209E+02  0.00000000000E+00 0. -1.
</event>
<event>
 7    1  0.2416833E-009  0.1126915E+03  0.7561462E-02  0.1255665E+00
          1   -1    0    0  501    0  0.00000000000E+00  0.00000000000E+00  0.10099105732E+03  0.10099105732E+03  0.00000000000E+00 0. -1.
         -1   -1    0    0    0  501 -0.00000000000E+00 -0.00000000000E+00 -0.23901979694E+03  0.23901979694E+03  0.00000000000E+00 0.  1.
         25    2    1    2    0    0 -0.60015068049E+02  0.51406601104E+02 -0.15909101215E+03  0.21725849302E+03  0.12508739190E+03 0.  0.
          5    1    3    3  502    0  0.33300821378E+02  0.39507566432E+02 -0.40230120187E+02  0.65618042336E+02  0.41800000000E+01 0.  1.
         -5    1    3    3    0  502 -0.93315889426E+02  0.11899034672E+02 -0.11886089196E+03  0.15164045068E+03  0.41800000000E+01 0.  1.
        -11    1    1    2    0    0  0.21212733832E+02 -0.13558373126E+02  0.53820922295E+02  0.59418021131E+02  0.00000000000E+00 0.  1.
         11    1    1    2    0    0  0.38802334217E+02 -0.37848227979E+02 -0.32758649772E+02  0.63334340106E+02  0.00000000000E+00 0. -1.
</event>
<event>
 7    1  0.2394257E-009  0.7020465E+02  0.7561462E-02  0.1359399E+00
         -1   -1    0    0    0  501 -0.00000000000E+00  0.00000000000E+00  0.13732926194E+02  0.13732926194E+02  0.00000000000E+00 0.  1.
          1   -1    0    0  501    0  0.00000000000E+00 -0.00000000000E+00 -0.94352122988E+03  0.94352122988E+03  0.00000000000E+00 0. -1.
         25    2    1    2    0    0 -0.13155179119E+02  0.15107197577E+02 -0.69116178637E+03  0.70267619404E+03  0.12509169669E+03 0.  0.
          5    1    3    3  502    0  0.16783017996E+02 -0.20657749900E+01 -0.89580034669E+01  0.19587121929E+02  0.41800000000E+01 0. -1.
         -5    1    3    3    0  502 -0.29938197115E+02  0.17172972567E+02 -0.68220378290E+03  0.68308907211E+03  0.41800000000E+01 0. -1.
        -11    1    1    2    0    0  0.18823948447E+02  0.33961552179E+02 -0.92137215222E+02  0.99984971323E+02  0.00000000000E+00 0.  1.
         11    1    1    2    0    0 -0.56687693281E+01 -0.49068749756E+02 -0.14648930209E+03  0.15459299070E+03  0.00000000000E+00 0. -1.
</event>
<event>
 7    1  0.2394257E-009  0.1219455E+03  0.7561462E-02  0.1239922E+00
          2   -1    0    0  501    0  0.00000000000E+00  0.00000000000E+00  0.75819821528E+03  0.75819821528E+03  0.00000000000E+00 0. -1.
         -2   -1    0    0    0  501 -0.00000000000E+00 -0.00000000000E+00 -0.31752920844E+02  0.31752920844E+02  0.00000000000E+00 0.  1.
         25    2    1    2    0    0  0.43835108979E+02 -0.98069400188E+02  0.32091879655E+03  0.36079812223E+03  0.12508911621E+03 0.  0.
          5    1    3    3  502    0  0.27596984680E+02 -0.44726537574E+02  0.22730739307E+02  0.57412678358E+02  0.41800000000E+01 0.  1.
         -5    1    3    3    0  502  0.16238124299E+02 -0.53342862614E+02  0.29818805724E+03  0.30338544387E+03  0.41800000000E+01 0.  1.
        -11    1    1    2    0    0 -0.61748255574E+02  0.99693199372E+02  0.30000561617E+03  0.32211015321E+03  0.00000000000E+00 0.  1.
         11    1    1    2    0    0  0.17913146595E+02 -0.16237991846E+01  0.10552088172E+03  0.10704286068E+03  0.00000000000E+00 0. -1.
</event>
<event>
 7    1  0.2394257E-009  0.1321482E+03  0.7561462E-02  0.1224303E+00
          2   -1    0    0  501    0  0.00000000000E+00  0.00000000000E+00  0.23769914476E+03  0.23769914476E+03  0.00000000000E+00 0. -1.
         -2   -1    0    0    0  501 -0.00000000000E+00 -0.00000000000E+00 -0.87281449981E+02  0.87281449981E+02  0.00000000000E+00 0.  1.
         25    2    1    2    0    0  0.25251635342E+02  0.80861899188E+02  0.12759498252E+03  0.19774719404E+03  0.12508869398E+03 0.  0.
          5    1    3    3  502    0  0.51161519177E+02  0.97716828395E+02  0.65740027989E+02  0.12847296710E+03  0.41800000000E+01 0.  1.
         -5    1    3    3    0  502 -0.25909883834E+02 -0.16854929208E+02  0.61854954528E+02  0.69274226943E+02  0.41800000000E+01 0.  1.
        -11    1    1    2    0    0 -0.52257288015E+02 -0.19663978349E+02  0.22882946866E+02  0.60341738892E+02  0.00000000000E+00 0. -1.
         11    1    1    2    0    0  0.27005652673E+02 -0.61197920838E+02 -0.60234600248E-01  0.66891661808E+02  0.00000000000E+00 0.  1.
</event>
<event>
 7    1  0.2394257E-009  0.1453999E+03  0.7561462E-02  0.1206242E+00
         -2   -1    0    0    0  501 -0.00000000000E+00  0.00000000000E+00  0.26538905119E+02  0.26538905119E+02  0.00000000000E+00 0.  1.
          2   -1    0    0  501    0  0.00000000000E+00 -0.00000000000E+00 -0.89023024005E+03  0.89023024005E+03  0.00000000000E+00 0. -1.
         25    2    1    2    0    0 -0.48665101202E+02 -0.90554759687E+02 -0.36090188165E+03  0.39555626749E+03  0.12508451541E+03 0.  0.
          5    1    3    3  502    0 -0.33577022261E+02  0.21801660593E+02 -0.15850056900E+03  0.16353174494E+03  0.41800000000E+01 0.  1.
         -5    1    3    3    0  502 -0.15088078940E+02 -0.11235642028E+03 -0.20240131265E+03  0.23202452255E+03  0.41800000000E+01 0.  1.
        -11    1    1    2    0    0  0.74747173870E+02  0.78428710607E+02 -0.38407790701E+03  0.39906646226E+03  0.00000000000E+00 0.  1.
         11    1    1    2    0    0 -0.26082072668E+02  0.12126049080E+02 -0.11871154628E+03  0.12214641542E+03  0.00000000000E+00 0. -1.
</event>
<event>
 7    1  0.2394257E-009  0.1554482E+03  0.7561462E-02  0.1193934E+00
         -4   -1    0    0    0  501 -0.00000000000E+00  0.00000000000E+00  0.72798542076E+03  0.72798542076E+03  0.00000000000E+00 0.  1.
          4   -1    0    0  501    0  0.00000000000E+00 -0.00000000000E+00 -0.39314652809E+02  0.39314652809E+02  0.00000000000E+00 0. -1.
         25    2    1    2    0    0  0.11411677926E+03 -0.60141656804E+02  0.39292446312E+03  0.43206145355E+03  0.12509119769E+03 0.  0.
          5    1    3    3  502    0  0.76576408943E+02  0.20359125844E+02  0.11098477970E+03  0.13643142650E+03  0.41800000000E+01 0.  1.
         -5    1    3    3    0  502  0.37540370314E+02 -0.80500782648E+02  0.28193968341E+03  0.29563002705E+03  0.41800000000E+01 0.  1.
        -11    1    1    2    0    0 -0.72557380861E+02  0.69007499655E+02  0.12978343101E+03  0.16392177247E+03  0.00000000000E+00 0. -1.
         11    1    1    2    0    0 -0.41559398396E+02 -0.88658428510E+01  0.16596287382E+03  0.17131684754E+03  0.00000000000E+00 0.  1.
</event>
<event>
 7    1  0.2394257E-009  0.9257940E+02  0.7561462E-02  0.1296723E+00
         -2   -1    0    0    0  501 -0.00000000000E+00  0.00000000000E+00  0.40447533658E+02  0.40447533658E+02  0.00000000000E+00 0.  1.
          2   -1    0    0  501    0  0.00000000000E+00 -0.00000000000E+00 -0.34520574851E+03  0.34520574851E+03  0.00000000000E+00 0. -1.
         25    2    1    2    0    0 -0.23831186984E+02  0.30030852880E+02 -0.11960755490E+03  0.17726895936E+03  0.12509412122E+03 0.  0.
          5    1    3    3  502    0 -0.50380957722E+02  0.35969866446E+02 -0.82866837969E+01  0.62595636601E+02  0.41800000000E+01 0. -1.
         -5    1    3    3    0  502  0.26549770739E+02 -0.59390135661E+01 -0.11132087110E+03  0.11467332275E+03  0.41800000000E+01 0. -1.
        -11    1    1    2    0    0 -0.10451287353E+02 -0.53196479989E+02 -0.10764788968E+03  0.12052868141E+03  0.00000000000E+00 0. -1.
         11    1    1    2    0    0  0.34282474337E+02  0.23165627109E+02 -0.77502770275E+02  0.87855641403E+02  0.00000000000E+00 0.  1.
</event>
<event>
 7    1  0.2394257E-009  0.8077418E+02  0.7561462E-02  0.1326869E+00
         -1   -1    0    0    0  501 -0.00000000000E+00  0.00000000000E+00  0.32710783591E+03  0.32710783591E+03  0.00000000000E+00 0.  1.
          1   -1    0    0  501    0  0.00000000000E+00 -0.00000000000E+00 -0.56005330018E+02  0.56005330018E+02  0.00000000000E+00 0. -1.
         25    2    1    2    0    0  0.74747264271E+02  0.20172520479E+02  0.18187514970E+03  0.23392382960E+03  0.12509078254E+03 0.  0.
          5    1    3    3  502    0  0.26420023603E+02 -0.81147549565E+01 -0.13210900470E+02  0.30917101844E+02  0.41800000000E+01 0. -1.
         -5    1    3    3    0  502  0.48327240668E+02  0.28287275435E+02  0.19508605017E+03  0.20300672775E+03  0.41800000000E+01 0. -1.
        -11    1    1    2    0    0 -0.13742306648E+02 -0.44429437012E+01  0.84813824595E+02  0.86034734748E+02  0.00000000000E+00 0.  1.
         11    1    1    2    0    0 -0.61004957623E+02 -0.15729576777E+02  0.44135315991E+01  0.63154601585E+02  0.00000000000E+00 0. -1.
</event>
<event>
 7    1  0.2394257E-009  0.1486253E+03  0.7561462E-02  0.1202172E+00
         -2   -1    0    0    0  501 -0.00000000000E+00  0.00000000000E+00  0.45749875706E+02  0.45749875706E+02  0.00000000000E+00 0.  1.
          2   -1    0    0  501    0  0.00000000000E+00 -0.00000000000E+00 -0.54041396262E+03  0.54041396262E+03  0.00000000000E+00 0. -1.
         25    2    1    2    0    0  0.10778764182E+03  0.13552666248E+02 -0.20500332459E+03  0.26358212272E+03  0.12508925546E+03 0.  0.
          5    1    3    3  502    0  0.11782864976E+03 -0.24755771208E+02 -0.12167467650E+03  0.17122686183E+03  0.41800000000E+01 0. -1.
         -5    1    3    3    0  502 -0.10041007935E+02  0.38308437456E+02 -0.83328648094E+02  0.92355260889E+02  0.41800000000E+01 0. -1.
        -11    1    1    2    0    0 -0.41567031500E+02 -0.47018473668E+02 -0.91217203283E+02  0.11072096978E+03  0.00000000000E+00 0.  1.
         11    1    1    2    0    0 -0.66220610325E+02  0.33465807420E+02 -0.19844355904E+03  0.21186074583E+03  0.00000000000E+00 0. -1.
</event>
<event>
 7    1  0.2394257E-009  0.1220015E+03  0.7561462E-02  0.1239831E+00
          2   -1    0    0  501    0  0.00000000000E+00  0.00000000000E+00  0.15693332227E+03  0.15693332227E+03  0.00000000000E+00 0. -1.
         -2   -1    0    0    0  501 -0.00000000000E+00 -0.00000000000E+00 -0.12896211221E+03  0.12896211221E+03  0.00000000000E+00 0.  1.
         25    2    1    2    0    0  0.59172842282E+02  0.16377261722E+02 -0.57477415643E+02  0.15073678642E+03  0.12509310735E+03 0.  0.
          5    1    3    3  502    0  0.87413923757E+02 -0.23211010968E+02 -0.37223311365E+02  0.97892759721E+02  0.41800000000E+01 0. -1.
         -5    1    3    3    0  502 -0.28241081475E+02  0.39588272690E+02 -0.20254104277E+02  0.52844026697E+02  0.41800000000E+01 0. -1.
        -11    1    1    2    0    0  0.21807845591E+02 -0.80543550998E+01  0.17022136796E+02  0.28813328626E+02  0.00000000000E+00 0. -1.
         11    1    1    2    0    0 -0.80980687872E+02 -0.83229066218E+01  0.68426488908E+02  0.10634531944E+03  0.00000000000E+00 0.  1.
</event>
<event>
 7    1  0.2394257E-009  0.3915436E+03  0.7561462E-02  0.1046748E+00
          2   -1    0    0  501    0  0.00000000000E+00  0.00000000000E+00  0.10587268915E+04  0.10587268915E+04  0.00000000000E+00 0. -1.
         -2   -1    0    0    0  501 -0.00000000000E+00 -0.00000000000E+00 -0.17702006798E+03  0.17702006798E+03  0.00000000000E+00 0.  1.
         25    2    1    2    0    0  0.13068083164E+03  0.35689507614E+03  0.19358595267E+03  0.44449422817E+03  0.12509205680E+03 0.  0.
          5    1    3    3  502    0  0.19456246491E+02  0.21602120192E+03  0.13558004753E+03  0.25581854291E+03  0.41800000000E+01 0. -1.
         -5    1    3    3    0  502  0.11122458515E+03  0.14087387422E+03  0.58005905143E+02  0.18867568527E+03  0.41800000000E+01 0. -1.
        -11    1    1    2    0    0 -0.84901946924E+02 -0.13086063476E+03  0.22363182761E+03  0.27266103617E+03  0.00000000000E+00 0. -1.
         11    1    1    2    0    0 -0.45778884715E+02 -0.22603444139E+03  0.46448904321E+03  0.51859169511E+03  0.00000000000E+00 0.  1.
</event>
<event>
 7    1  0.2394257E-009  0.1211045E+03  0.7561462E-02  0.1241286E+00
          2   -1    0    0  501    0  0.00000000000E+00  0.00000000000E+00  0.72308266842E+03  0.72308266842E+03  0.00000000000E+00 0. -1.
         -2   -1    0    0    0  501 -0.00000000000E+00 -0.00000000000E+00 -0.24200507757E+02  0.24200507757E+02  0.00000000000E+00 0.  1.
         25    2    1    2    0    0  0.54802321020E+02  0.51465928478E+02  0.38946421811E+03  0.41591015582E+03  0.12508734684E+03 0.  0.
          5    1    3    3  502    0  0.93019151916E+01 -0.31052195147E+02  0.30305189998E+02  0.44571755524E+02  0.41800000000E+01 0.  1.
         -5    1    3    3    0  502  0.45500405828E+02  0.82518123626E+02  0.35915902812E+03  0.37133840030E+03  0.41800000000E+01 0.  1.
        -11    1    1    2    0    0  0.14467125814E+02  0.13825289472E+02  0.89976797780E+02  0.92175162040E+02  0.00000000000E+00 0. -1.
         11    1    1    2    0    0 -0.69269446834E+02 -0.65291217950E+02  0.21944114477E+03  0.23919785832E+03  0.00000000000E+00 0.  1.
</event>
<event>
 7    1  0.2394257E-009  0.1100576E+03  0.7561462E-02  0.1260463E+00
         -2   -1    0    0    0  501 -0.00000000000E+00  0.00000000000E+00  0.65076935195E+02  0.65076935195E+02  0.00000000000E+00 0.  1.
          2   -1    0    0  501    0  0.00000000000E+00 -0.00000000000E+00 -0.22094528511E+03  0.22094528511E+03  0.00000000000E+00 0. -1.
         25    2    1    2    0    0  0.43378460794E+02  0.40974860027E+02 -0.98382788824E+02  0.16996424030E+03  0.12509212536E+03 0.  0.
          5    1    3    3  502    0  0.86153606163E+02  0.25270771189E+02 -0.47966349682E+02  0.10187884389E+03  0.41800000000E+01 0.  1.
         -5    1    3    3    0  502 -0.42775145369E+02  0.15704088837E+02 -0.50416439142E+02  0.68085396403E+02  0.41800000000E+01 0.  1.
        -11    1    1    2    0    0  0.12749601042E+02 -0.21630776420E+02  0.92307786075E+01  0.26751637127E+02  0.00000000000E+00 0.  1.
         11    1    1    2    0    0 -0.56128061837E+02 -0.19344083606E+02 -0.66716339697E+02  0.89306342880E+02  0.00000000000E+00 0. -1.
</event>
<event>
 7    1  0.2394257E-009  0.1066544E+03  0.7561462E-02  0.1266894E+00
         -1   -1    0    0    0  501 -0.00000000000E+00  0.00000000000E+00  0.15879645934E+03  0.15879645934E+03  0.00000000000E+00 0.  1.
          1   -1    0    0  501    0  0.00000000000E+00 -0.00000000000E+00 -0.86680595984E+02  0.86680595984E+02  0.00000000000E+00 0. -1.
         25    2    1    2    0    0 -0.44436368984E+02  0.58512853272E+01  0.68716743946E+02  0.14959437838E+03  0.12509060203E+03 0.  0.
          5    1    3    3  502    0 -0.87709009560E+02 -0.27221000365E+01  0.52880058412E+02  0.10253805715E+03  0.41800000000E+01 0.  1.
         -5    1    3    3    0  502  0.43272640576E+02  0.85733853636E+01  0.15836685534E+02  0.47056321230E+02  0.41800000000E+01 0.  1.
        -11    1    1    2    0    0  0.32897411679E+02  0.29359585641E+02 -0.23622887509E+02  0.50022652653E+02  0.00000000000E+00 0.  1.
         11    1    1    2    0    0  0.11538957305E+02 -0.35210870969E+02  0.27022006918E+02  0.45860024291E+02  0.00000000000E+00 0. -1.
</event>
<event>
 7    1  0.2394257E-009  0.2173700E+03  0.7561462E-02  0.1135859E+00
         -4   -1    0    0    0  501 -0.00000000000E+00  0.00000000000E+00  0.32028683130E+03  0.32028683130E+03  0.00000000000E+00 0.  1.
          4   -1    0    0  501    0  0.00000000000E+00 -0.00000000000E+00 -0.17893499569E+03  0.17893499569E+03  0.00000000000E+00 0. -1.
         25    2    1    2    0    0  0.19650684390E+03 -0.39366162636E+02  0.14764175037E+03  0.27858571394E+03  0.12508908466E+03 0.  0.
          5    1    3    3  502    0  0.15087470389E+03 -0.81286986965E+02  0.88941260837E+02  0.19312889686E+03  0.41800000000E+01 0. -1.
         -5    1    3    3    0  502  0.45632140013E+02  0.41920824329E+02  0.58700489529E+02  0.85456817081E+02  0.41800000000E+01 0. -1.
        -11    1    1    2    0    0 -0.74267255807E+02  0.23744310736E+02 -0.46772318160E+02  0.90923414605E+02  0.00000000000E+00 0.  1.
         11    1    1    2    0    0 -0.12223958809E+03  0.15621851899E+02  0.40482403406E+02  0.12971269845E+03  0.00000000000E+00 0. -1.
</event>
<event>
 7    1  0.2394257E-009  0.7502514E+02  0.7561462E-02  0.1343793E+00
          2   -1    0    0  501    0  0.00000000000E+00  0.00000000000E+00  0.78286593580E+02  0.78286593580E+02  0.00000000000E+00 0.  1.
         -2   -1    0    0    0  501 -0.00000000000E+00 -0.00000000000E+00 -0.21279397189E+03  0.21279397189E+03  0.00000000000E+00 0. -1.
         25    2    1    2    0    0  0.28079481702E+02  0.64296694827E+01 -0.87176912036E+00  0.12836796985E+03  0.12509107786E+03 0.  0.
          5    1    3    3  502    0  0.37557748803E+02  0.22403793766E+02  0.54391375397E+02  0.69917155176E+02  0.41800000000E+01 0.  1.
         -5    1    3    3    0  502 -0.94782671017E+01 -0.15974124284E+02 -0.55263144518E+02  0.58450814672E+02  0.41800000000E+01 0.  1.
        -11    1    1    2    0    0  0.54297116954E+01  0.34078330882E+02 -0.26976679048E+02  0.43801319812E+02  0.00000000000E+00 0.  1.
         11    1    1    2    0    0 -0.33509193397E+02 -0.40508000365E+02 -0.10665893014E+03  0.11891127581E+03  0.00000000000E+00 0. -1.
</event>
<event>
 7    1  0.3445575E-009  0.1901673E+03  0.7561462E-02  0.1158311E+00
         -1   -1    0    0    0  501 -0.00000000000E+00  0.00000000000E+00  0.11605513346E+03  0.11605513346E+03  0.00000000000E+00 0.  1.
          1   -1    0    0  501    0  0.00000000000E+00 -0.00000000000E+00 -0.39004006064E+03  0.39004006064E+03  0.00000000000E+00 0. -1.
         25    2    1    2    0    0 -0.16099077635E+03  0.86222926453E+02 -0.14017157351E+03  0.26200622837E+03  0.12508705197E+03 0.  0.
          5    1    3    3  502    0 -0.71453618022E+02  0.12839946298E+02 -0.12576050442E+03  0.14527099029E+03  0.41800000000E+01 0.  1.
         -5    1    3    3    0  502 -0.89537158324E+02  0.73382980155E+02 -0.14411069092E+02  0.11673523808E+03  0.41800000000E+01 0.  1.
        -11    1    1    2    0    0  0.38780706235E+02 -0.51988414306E+02 -0.79471410211E+01  0.65344437013E+02  0.00000000000E+00 0.  1.
         11    1    1    2    0    0  0.12221007011E+03 -0.34234512147E+02 -0.12586621265E+03  0.17874452872E+03  0.00000000000E+00 0. -1.
</event>
<event>
 7    1  0.2394257E-009  0.1648367E+03  0.7561462E-02  0.1183342E+00
         -1   -1    0    0    0  501 -0.00000000000E+00  0.00000000000E+00  0.23437115299E+03  0.23437115299E+03  0.00000000000E+00 0.  1.
          1   -1    0    0  501    0  0.00000000000E+00 -0.00000000000E+00 -0.13105562025E+03  0.13105562025E+03  0.00000000000E+00 0. -1.
         25    2    1    2    0    0 -0.10808702294E+01 -0.13566700351E+03  0.77745684348E+02  0.20024805139E+03  0.12509271174E+03 0.  0.
          5    1    3    3  502    0  0.23841312735E+02  0.16689014330E+02  0.19048533966E+02  0.35032134370E+02  0.41800000000E+01 0.  1.
         -5    1    3    3    0  502 -0.24922182965E+02 -0.15235601784E+03  0.58697150382E+02  0.16521591702E+03  0.41800000000E+01 0.  1.
        -11    1    1    2    0    0  0.24695983846E+02  0.37748558181E+02 -0.25950892905E+02  0.52041273096E+02  0.00000000000E+00 0. -1.
         11    1    1    2    0    0 -0.23615113617E+02  0.97918445325E+02  0.51520741303E+02  0.11313744875E+03  0.00000000000E+00 0.  1.
</event>
<event>
 7    1  0.2394257E-009  0.1764723E+03  0.7561462E-02  0.1171261E+00
         -1   -1    0    0    0  501 -0.00000000000E+00  0.00000000000E+00  0.49039987711E+02  0.49039987711E+02  0.00000000000E+00 0.  1.
          1   -1    0    0  501    0  0.00000000000E+00 -0.00000000000E+00 -0.10020290981E+04  0.10020290981E+04  0.00000000000E+00 0. -1.
         25    2    1    2    0    0  0.16355088500E+03  0.37124552340E+02 -0.71752485399E+03  0.74740471597E+03  0.12507905099E+03 0.  0.
          5    1    3    3  502    0  0.11709733541E+03 -0.92054089380E+01 -0.61119393998E+03  0.62239218358E+03  0.41800000000E+01 0.  1.
         -5    1    3    3    0  502  0.46453549587E+02  0.46329961278E+02 -0.10633091401E+03  0.12501253239E+03  0.41800000000E+01 0.  1.
        -11    1    1    2    0    0 -0.90573681046E+02 -0.33611286107E+02 -0.60324566652E+02  0.11389628437E+03  0.00000000000E+00 0.  1.
         11    1    1    2    0    0 -0.72977203955E+02 -0.35132662328E+01 -0.17513968977E+03  0.18976808548E+03  0.00000000000E+00 0. -1.
</event>
<event>
 7    1  0.2679939E-009  0.1413287E+03  0.7561462E-02  0.1211552E+00
         -2   -1    0    0    0  501 -0.00000000000E+00  0.00000000000E+00  0.39703649067E+02  0.39703649067E+02  0.00000000000E+00 0.  1.
          2   -1    0    0  501    0  0.00000000000E+00 -0.00000000000E+00 -0.54165649447E+03  0.54165649447E+03  0.00000000000E+00 0. -1.
         25    2    1    2    0    0 -0.78048624995E+02 -0.59755429710E+02 -0.27421913957E+03  0.31702697376E+03  0.12509063250E+03 0.  0.
          5    1    3    3  502    0 -0.17660215616E+02  0.37345423481E+02 -0.10340160108E+03  0.11142678034E+03  0.41800000000E+01 0. -1.
         -5    1    3    3    0  502 -0.60388409378E+02 -0.97100853191E+02 -0.17081753849E+03  0.20560019342E+03  0.41800000000E+01 0. -1.
        -11    1    1    2    0    0  0.19093665669E+02  0.64787685304E+02 -0.77131523098E+02  0.10252455360E+03  0.00000000000E+00 0.  1.
         11    1    1    2    0    0  0.58954959326E+02 -0.50322555937E+01 -0.15060218273E+03  0.16180861618E+03  0.00000000000E+00 0. -1.
</event>
<event>
 7    1  0.2471346E-009  0.1242306E+03  0.7561462E-02  0.1236277E+00
          2   -1    0    0  501    0  0.00000000000E+00  0.00000000000E+00  0.69912174084E+03  0.69912174084E+03  0.00000000000E+00 0. -1.
         -2   -1    0    0    0  501 -0.00000000000E+00 -0.00000000000E+00 -0.30040022216E+02  0.30040022216E+02  0.00000000000E+00 0.  1.
         25    2    1    2    0    0 -0.74587472093E+01 -0.71406245526E+02  0.52235469622E+03  0.54190100500E+03  0.12509110977E+03 0.  0.
          5    1    3    3  502    0 -0.33628902557E+02  0.18772785445E+02  0.71177847747E+02  0.81037515821E+02  0.41800000000E+01 0.  1.
         -5    1    3    3    0  502  0.26170155348E+02 -0.90179030971E+02  0.45117684847E+03  0.46086348918E+03  0.41800000000E+01 0.  1.
        -11    1    1    2    0    0 -0.33580799652E+02  0.24549712328E+00  0.51701896252E+02  0.61650761959E+02  0.00000000000E+00 0.  1.
         11    1    1    2    0    0  0.41039546862E+02  0.71160748403E+02  0.95025126155E+02  0.12560999610E+03  0.00000000000E+00 0. -1.
</event>
<event>
 7    1  0.2394257E-009  0.1054622E+03  0.7561462E-02  0.1269212E+00
         -4   -1    0    0    0  501 -0.00000000000E+00  0.00000000000E+00  0.36807172778E+03  0.36807172778E+03  0.00000000000E+00 0. -1.
          4   -1    0    0  501    0  0.00000000000E+00 -0.00000000000E+00 -0.33411422120E+02  0.33411422120E+02  0.00000000000E+00 0.  1.
         25    2    1    2    0    0 -0.10838815874E+02  0.31525992338E+02  0.17482172844E+03  0.21752971041E+03  0.12508065420E+03 0.  0.
          5    1    3    3  502    0 -0.60920636117E+02 -0.73373042336E+01  0.57931189557E+02  0.84490561968E+02  0.41800000000E+01 0.  1.
         -5    1    3    3    0  502  0.50081820242E+02  0.38863296572E+02  0.11689053888E+03  0.13303914844E+03  0.41800000000E+01 0.  1.
        -11    1    1    2    0    0 -0.27420864716E+02 -0.38231947053E+02  0.56313164559E+02  0.73380911005E+02  0.00000000000E+00 0.  1.
         11    1    1    2    0    0  0.38259680590E+02  0.67059547151E+01  0.10352541266E+03  0.11057252848E+03  0.00000000000E+00 0. -1.
</event>
<event>
 7    1  0.2394257E-009  0.1444355E+03  0.7561462E-02  0.1207482E+00
          2   -1    0    0  501    0  0.00000000000E+00  0.00000000000E+00  0.85285615219E+02  0.85285615219E+02  0.00000000000E+00 0. -1.
         -2   -1    0    0    0  501 -0.00000000000E+00 -0.00000000000E+00 -0.30010555838E+03  0.30010555838E+03  0.00000000000E+00 0.  1.
         25    2    1    2    0    0 -0.24680757578E+02  0.11314349239E+03 -0.13316850620E+03  0.21631563251E+03  0.12509201478E+03 0.  0.
          5    1    3    3  502    0  0.40795913543E+02  0.90276730371E+02 -0.62484331150E+02  0.11720050617E+03  0.41800000000E+01 0.  1.
         -5    1    3    3    0  502 -0.65476671121E+02  0.22866762018E+02 -0.70684175052E+02  0.99115126338E+02  0.41800000000E+01 0.  1.
        -11    1    1    2    0    0  0.31064062845E+02 -0.69480468793E+02  0.17531585231E+00  0.76108752977E+02  0.00000000000E+00 0.  1.
         11    1    1    2    0    0 -0.63833052667E+01 -0.43663023596E+02 -0.81826752814E+02  0.92966788112E+02  0.00000000000E+00 0. -1.
</event>
<event>
 7    1  0.2394257E-009  0.7479640E+02  0.7561462E-02  0.1344503E+00
         -1   -1    0    0    0  501 -0.00000000000E+00  0.00000000000E+00  0.19394813994E+03  0.19394813994E+03  0.00000000000E+00 0.  1.
          1   -1    0    0  501    0  0.00000000000E+00 -0.00000000000E+00 -0.71911376903E+02  0.71911376903E+02  0.00000000000E+00 0. -1.
         25    2    1    2    0    0  0.14570205803E+02  0.24738081895E+02  0.11230696237E+03  0.17054180105E+03  0.12508952200E+03 0.  0.
          5    1    3    3  502    0  0.51503741722E+02 -0.71922650269E+01  0.10969700052E+03  0.12147126578E+03  0.41800000000E+01 0. -1.
         -5    1    3    3    0  502 -0.36933535919E+02  0.31930346922E+02  0.26099618509E+01  0.49070535262E+02  0.41800000000E+01 0. -1.
        -11    1    1    2    0    0 -0.22456565822E+02 -0.83711784300E-03  0.45721283319E+02  0.50938522726E+02  0.00000000000E+00 0.  1.
         11    1    1    2    0    0  0.78863600189E+01 -0.24737244778E+02 -0.35991482657E+02  0.44379193068E+02  0.00000000000E+00 0. -1.
</event>
<event>
 7    1  0.2394257E-009  0.1014361E+03  0.7561462E-02  0.1277305E+00
         -1   -1    0    0    0  501 -0.00000000000E+00  0.00000000000E+00  0.11165313500E+03  0.11165313500E+03  0.00000000000E+00 0. -1.
          1   -1    0    0  501    0  0.00000000000E+00 -0.00000000000E+00 -0.14482938863E+03  0.14482938863E+03  0.00000000000E+00 0.  1.
         25    2    1    2    0    0 -0.25985682939E+02 -0.25150436340E+02  0.37498060509E+02  0.13550379998E+03  0.12508946839E+03 0.  0.
          5    1    3    3  502    0 -0.41042536293E+02 -0.56376328629E+02 -0.15954019603E+02  0.71657402664E+02  0.41800000000E+01 0. -1.
         -5    1    3    3    0  502  0.15056853353E+02  0.31225892289E+02  0.53452080112E+02  0.63846397318E+02  0.41800000000E+01 0. -1.
        -11    1    1    2    0    0 -0.98085170771E+01  0.52273727863E+02 -0.40931097136E+02  0.67112624332E+02  0.00000000000E+00 0.  1.
         11    1    1    2    0    0  0.35794200016E+02 -0.27123291522E+02 -0.29743217003E+02  0.53866099316E+02  0.00000000000E+00 0. -1.
</event>
<event>
 7    1  0.2394257E-009  0.1770736E+03  0.7561462E-02  0.1170666E+00
         -2   -1    0    0    0  501 -0.00000000000E+00  0.00000000000E+00  0.24733769985E+02  0.24733769985E+02  0.00000000000E+00 0.  1.
          2   -1    0    0  501    0  0.00000000000E+00 -0.00000000000E+00 -0.16691519903E+04  0.16691519903E+04  0.00000000000E+00 0. -1.
         25    2    1    2    0    0 -0.69128048147E+02  0.14418762705E+03 -0.59408661482E+03  0.62781519039E+03  0.12507697043E+03 0.  0.
          5    1    3    3  502    0 -0.47752296569E+02  0.32596977786E+02 -0.38922543060E+03  0.39351842780E+03  0.41800000000E+01 0.  1.
         -5    1    3    3    0  502 -0.21375751577E+02  0.11159064927E+03 -0.20486118422E+03  0.23429676259E+03  0.41800000000E+01 0.  1.
        -11    1    1    2    0    0 -0.18255640058E+02 -0.64446145193E+01 -0.10584239688E+03  0.10759839417E+03  0.00000000000E+00 0.  1.
         11    1    1    2    0    0  0.87383688205E+02 -0.13774301253E+03 -0.94448920865E+03  0.95847217577E+03  0.00000000000E+00 0. -1.
</event>
<event>
 7    1  0.2394257E-009  0.6779772E+02  0.7561462E-02  0.1367746E+00
          1   -1    0    0  501    0  0.00000000000E+00  0.00000000000E+00  0.10250785764E+03  0.10250785764E+03  0.00000000000E+00 0. -1.
         -1   -1    0    0    0  501 -0.00000000000E+00 -0.00000000000E+00 -0.14271962334E+03  0.14271962334E+03  0.00000000000E+00 0.  1.
         25    2    1    2    0    0 -0.13703633225E+02  0.30617363638E+02  0.19747455360E+02  0.13100428873E+03  0.12508776580E+03 0.  0.
          5    1    3    3  502    0  0.39557818602E+02  0.27774934078E+02 -0.30746898481E+02  0.57437898132E+02  0.41800000000E+01 0. -1.
         -5    1    3    3    0  502 -0.53261451827E+02  0.28424295597E+01  0.50494353841E+02  0.73566390603E+02  0.41800000000E+01 0. -1.
        -11    1    1    2    0    0  0.62801418094E+01 -0.15909779238E+02 -0.83642380801E+02  0.85373351361E+02  0.00000000000E+00 0.  1.
         11    1    1    2    0    0  0.74234914151E+01 -0.14707584400E+02  0.23683159746E+02  0.28849840888E+02  0.00000000000E+00 0. -1.
</event>
<event>
 7    1  0.2394257E-009  0.9317800E+02  0.7561462E-02  0.1295333E+00
         -1   -1    0    0    0  501 -0.00000000000E+00  0.00000000000E+00  0.98759982592E+02  0.98759982592E+02  0.00000000000E+00 0.  1.
          1   -1    0    0  501    0  0.00000000000E+00 -0.00000000000E+00 -0.11873863595E+03  0.11873863595E+03  0.00000000000E+00 0. -1.
         25    2    1    2    0    0  0.31093095502E+02 -0.63908591036E+01 -0.52093582841E+02  0.13915553762E+03  0.12507157394E+03 0.  0.
          5    1    3    3  502    0  0.67929748049E+02 -0.26163823755E+02 -0.62313850776E+02  0.95913944461E+02  0.41800000000E+01 0.  1.
         -5    1    3    3    0  502 -0.36836652546E+02  0.19772964652E+02  0.10220267935E+02  0.43241593155E+02  0.41800000000E+01 0.  1.
        -11    1    1    2    0    0  0.20653648267E+01  0.30410940313E+02  0.12534703297E+02  0.32957697270E+02  0.00000000000E+00 0. -1.
         11    1    1    2    0    0 -0.33158460329E+02 -0.24020081209E+02  0.19580226181E+02  0.45385383661E+02  0.00000000000E+00 0.  1.
</event>
<event>
 7    1  0.2394257E-009  0.9254734E+02  0.7561462E-02  0.1296798E+00
          1   -1    0    0  501    0  0.00000000000E+00  0.00000000000E+00  0.23105162718E+03  0.23105162718E+03  0.00000000000E+00 0. -1.
         -1   -1    0    0    0  501 -0.00000000000E+00 -0.00000000000E+00 -0.10746866533E+03  0.10746866533E+03  0.00000000000E+00 0.  1.
         25    2    1    2    0    0  0.25937971259E+02  0.37557595591E+02  0.17836848535E+03  0.22258733871E+03  0.12508579234E+03 0.  0.
          5    1    3    3  502    0 -0.26628505557E+02 -0.61892732115E+01  0.14267584522E+03  0.14533153003E+03  0.41800000000E+01 0.  1.
         -5    1    3    3    0  502  0.52566476816E+02  0.43746868802E+02  0.35692640137E+02  0.77255808680E+02  0.41800000000E+01 0.  1.
        -11    1    1    2    0    0  0.24928308951E+02  0.12238781613E+01 -0.44676330552E+02  0.51175120680E+02  0.00000000000E+00 0.  1.
         11    1    1    2    0    0 -0.50866280211E+02 -0.38781473752E+02 -0.10109192953E+02  0.64757833125E+02  0.00000000000E+00 0. -1.
</event>
<event>
 7    1  0.2394257E-009  0.1286765E+03  0.7561462E-02  0.1229433E+00
          2   -1    0    0  501    0  0.00000000000E+00  0.00000000000E+00  0.57298091833E+03  0.57298091833E+03  0.00000000000E+00 0. -1.
         -2   -1    0    0    0  501 -0.00000000000E+00 -0.00000000000E+00 -0.43909488358E+02  0.43909488358E+02  0.00000000000E+00 0.  1.
         25    2    1    2    0    0 -0.76382705319E+02  0.15198668900E+02  0.11540670415E+03  0.18716790873E+03  0.12509117270E+03 0.  0.
          5    1    3    3  502    0 -0.10149716782E+03 -0.14114845191E+02  0.10542070165E+03  0.14707787280E+03  0.41800000000E+01 0.  1.
         -5    1    3    3    0  502  0.25114462502E+02  0.29313514092E+02  0.99860025001E+01  0.40090035933E+02  0.41800000000E+01 0.  1.
        -11    1    1    2    0    0  0.43625993787E+02 -0.51218963522E+02  0.25747564579E+03  0.26612087054E+03  0.00000000000E+00 0.  1.
         11    1    1    2    0    0  0.32756711532E+02  0.36020294621E+02  0.15618908002E+03  0.16360162741E+03  0.00000000000E+00 0. -1.
</event>
<event>
 7    1  0.2394257E-009  0.1026079E+03  0.7561462E-02  0.1274905E+00
          1   -1    0    0  501    0  0.00000000000E+00  0.00000000000E+00  0.96874693984E+03  0.96874693984E+03  0.00000000000E+00 0. -1.
         -1   -1    0    0    0  501 -0.00000000000E+00 -0.00000000000E+00 -0.15217671502E+02  0.15217671502E+02  0.00000000000E+00 0.  1.
         25    2    1    2    0    0 -0.31111464944E+02  0.88159415165E+01  0.73865140956E+03  0.74986940398E+03  0.12511024778E+03 0.  0.
          5    1    3    3  502    0  0.40871434195E+01  0.54869764974E+02  0.18169688499E+03  0.18989109054E+03  0.41800000000E+01 0. -1.
         -5    1    3    3    0  502 -0.35198608363E+02 -0.46053823457E+02  0.55695452457E+03  0.55997831344E+03  0.41800000000E+01 0. -1.
        -11    1    1    2    0    0 -0.28281631450E+02  0.93897891734E+01  0.86236408516E+02  0.91239996558E+02  0.00000000000E+00 0.  1.
         11    1    1    2    0    0  0.59393096393E+02 -0.18205730690E+02  0.12864145026E+03  0.14285521081E+03  0.00000000000E+00 0. -1.
</event>
<event>
 7    1  0.2394257E-009  0.1101823E+03  0.7561462E-02  0.1260233E+00
          1   -1    0    0  501    0  0.00000000000E+00  0.00000000000E+00  0.25630340510E+02  0.25630340510E+02  0.00000000000E+00 0. -1.
         -1   -1    0    0    0  501 -0.00000000000E+00 -0.00000000000E+00 -0.73678165349E+03  0.73678165349E+03  0.00000000000E+00 0.  1.
         25    2    1    2    0    0 -0.53726727898E+02 -0.64959727006E+02 -0.39857773140E+03  0.42616655030E+03  0.12508954076E+03 0.  0.
          5    1    3    3  502    0  0.12057146895E+02 -0.21966117900E+02 -0.64368865199E+01  0.26206698283E+02  0.41800000000E+01 0. -1.
         -5    1    3    3    0  502 -0.65783874793E+02 -0.42993609106E+02 -0.39214084488E+03  0.39995985202E+03  0.41800000000E+01 0. -1.
        -11    1    1    2    0    0 -0.16865212737E+02  0.36389906594E+02 -0.57939128367E+02  0.70467036965E+02  0.00000000000E+00 0. -1.
         11    1    1    2    0    0  0.70591940636E+02  0.28569820412E+02 -0.25463445322E+03  0.26577840673E+03  0.00000000000E+00 0.  1.
</event>
<event>
 7    1  0.2394257E-009  0.1353247E+03  0.7561462E-02  0.1219762E+00
         -1   -1    0    0    0  501 -0.00000000000E+00  0.00000000000E+00  0.33929147009E+03  0.33929147009E+03  0.00000000000E+00 0.  1.
          1   -1    0    0  501    0  0.00000000000E+00 -0.00000000000E+00 -0.77393123348E+02  0.77393123348E+02  0.00000000000E+00 0. -1.
         25    2    1    2    0    0 -0.10073546279E+03 -0.17917304577E+02  0.16483548697E+03  0.23084221273E+03  0.12509486859E+03 0.  0.
          5    1    3    3  502    0  0.11685128450E+02 -0.34647189157E+02  0.89492723430E+01  0.37875213780E+02  0.41800000000E+01 0.  1.
         -5    1    3    3    0  502 -0.11242059124E+03  0.16729884580E+02  0.15588621463E+03  0.19296699895E+03  0.41800000000E+01 0.  1.
        -11    1    1    2    0    0  0.87279434712E+02 -0.11238556783E+02  0.11822801484E+03  0.14738340604E+03  0.00000000000E+00 0.  1.
         11    1    1    2    0    0  0.13456028081E+02  0.29155861360E+02 -0.21165155069E+02  0.38458974668E+02  0.00000000000E+00 0. -1.
</event>
<event>
 7    1  0.2397376E-009  0.1899043E+03  0.7561462E-02  0.1158548E+00
          1   -1    0    0  501    0  0.00000000000E+00  0.00000000000E+00  0.77409994105E+03  0.77409994105E+03  0.00000000000E+00 0. -1.
         -1   -1    0    0    0  501 -0.00000000000E+00 -0.00000000000E+00 -0.56883621917E+02  0.56883621917E+02  0.00000000000E+00 0.  1.
         25    2    1    2    0    0 -0.12796195889E+03 -0.12359906578E+03  0.33028795880E+03  0.39545948501E+03  0.12508827512E+03 0.  0.
          5    1    3    3  502    0 -0.87095150139E+02 -0.22378570316E+02  0.72857490824E+02  0.11581041385E+03  0.41800000000E+01 0.  1.
         -5    1    3    3    0  502 -0.40866808753E+02 -0.10122049547E+03  0.25743046798E+03  0.27964907116E+03  0.41800000000E+01 0.  1.
        -11    1    1    2    0    0  0.52611257956E+02  0.72204760625E+02  0.28533661726E+03  0.29899574758E+03  0.00000000000E+00 0. -1.
         11    1    1    2    0    0  0.75350700936E+02  0.51394305157E+02  0.10159174307E+03  0.13652833037E+03  0.00000000000E+00 0.  1.
</event>
<event>
 7    1  0.2394257E-009  0.7374336E+02  0.7561462E-02  0.1347807E+00
          2   -1    0    0  501    0  0.00000000000E+00  0.00000000000E+00  0.86257789212E+03  0.86257789212E+03  0.00000000000E+00 0. -1.
         -2   -1    0    0    0  501 -0.00000000000E+00 -0.00000000000E+00 -0.17494864671E+02  0.17494864671E+02  0.00000000000E+00 0.  1.
         25    2    1    2    0    0  0.19860520367E+02 -0.37992931346E+02  0.61679268387E+03  0.63080859376E+03  0.12509342102E+03 0.  0.
          5    1    3    3  502    0  0.54206855264E+01 -0.30369992644E+02  0.28293157081E+02  0.42067748007E+02  0.41800000000E+01 0. -1.
         -5    1    3    3    0  502  0.14439834841E+02 -0.76229387018E+01  0.58849952679E+03  0.58874084575E+03  0.41800000000E+01 0. -1.
        -11    1    1    2    0    0 -0.50974743435E+02  0.44553980721E+02  0.14234081241E+03  0.15762102824E+03  0.00000000000E+00 0. -1.
         11    1    1    2    0    0  0.31114223069E+02 -0.65610493743E+01  0.85949531172E+02  0.91643134793E+02  0.00000000000E+00 0.  1.
</event>
<event>
 7    1  0.2394257E-009  0.9913616E+02  0.7561462E-02  0.1282123E+00
          2   -1    0    0  501    0  0.00000000000E+00  0.00000000000E+00  0.58195913757E+03  0.58195913757E+03  0.00000000000E+00 0. -1.
         -2   -1    0    0    0  501 -0.00000000000E+00 -0.00000000000E+00 -0.66324830002E+02  0.66324830002E+02  0.00000000000E+00 0.  1.
         25    2    1    2    0    0  0.19468408857E+02 -0.88211270171E+02  0.49655541586E+03  0.51997587269E+03  0.12508948807E+03 0.  0.
          5    1    3    3  502    0  0.17174121731E+02 -0.28522944219E+01  0.19201535110E+01  0.18006816215E+02  0.41800000000E+01 0. -1.
         -5    1    3    3    0  502  0.22942871263E+01 -0.85358975749E+02  0.49463526235E+03  0.50196905647E+03  0.41800000000E+01 0. -1.
        -11    1    1    2    0    0 -0.20377447167E+02  0.27854516856E+02 -0.33617225478E+02  0.48179168851E+02  0.00000000000E+00 0.  1.
         11    1    1    2    0    0  0.90903830961E+00  0.60356753315E+02  0.52696117184E+02  0.80128926035E+02  0.00000000000E+00 0. -1.
</event>
<event>
 7    1  0.2394257E-009  0.1389003E+03  0.7561462E-02  0.1214816E+00
         -2   -1    0    0    0  501 -0.00000000000E+00  0.00000000000E+00  0.14927418948E+03  0.14927418948E+03  0.00000000000E+00 0.  1.
          2   -1    0    0  501    0  0.00000000000E+00 -0.00000000000E+00 -0.21859303818E+03  0.21859303818E+03  0.00000000000E+00 0. -1.
         25    2    1    2    0    0  0.10476486382E+03  0.21360331317E+02  0.62169137591E+02  0.17590947331E+03  0.12508877122E+03 0.  0.
          5    1    3    3  502    0  0.96041118613E+02 -0.17667660263E+02  0.85120707695E+02  0.12961114907E+03  0.41800000000E+01 0.  1.
         -5    1    3    3    0  502  0.87237452049E+01  0.39027991580E+02 -0.22951570104E+02  0.46298324240E+02  0.41800000000E+01 0.  1.
        -11    1    1    2    0    0 -0.90217805208E+02  0.23051322128E+02 -0.86972031681E+02  0.12741565886E+03  0.00000000000E+00 0. -1.
         11    1    1    2    0    0 -0.14547058610E+02 -0.44411653445E+02 -0.44515954612E+02  0.64542095496E+02  0.00000000000E+00 0.  1.
</event>
<event>
 7    1  0.2394257E-009  0.9628353E+02  0.7561462E-02  0.1288311E+00
          1   -1    0    0  501    0  0.00000000000E+00  0.00000000000E+00  0.62872182688E+03  0.62872182688E+03  0.00000000000E+00 0. -1.
         -1   -1    0    0    0  501 -0.00000000000E+00 -0.00000000000E+00 -0.19046702702E+02  0.19046702702E+02  0.00000000000E+00 0.  1.
         25    2    1    2    0    0  0.96393926329E+01 -0.34425607186E+01  0.34480878785E+03  0.36694515704E+03  0.12510347310E+03 0.  0.
          5    1    3    3  502    0  0.75453220194E+01  0.48902342454E+02  0.27563600769E+03  0.28007329776E+03  0.41800000000E+01 0.  1.
         -5    1    3    3    0  502  0.20940706135E+01 -0.52344903173E+02  0.69172780166E+02  0.86871859286E+02  0.41800000000E+01 0.  1.
        -11    1    1    2    0    0 -0.49810977170E+02  0.56136935250E+01  0.11115768675E+03  0.12193719008E+03  0.00000000000E+00 0.  1.
         11    1    1    2    0    0  0.40171584537E+02 -0.21711328064E+01  0.15370864957E+03  0.15888618246E+03  0.00000000000E+00 0. -1.
</event>
<event>
 7    1  0.2394257E-009  0.9198664E+02  0.7561462E-02  0.1298111E+00
         -2   -1    0    0    0  501 -0.00000000000E+00  0.00000000000E+00  0.45131325671E+02  0.45131325671E+02  0.00000000000E+00 0.  1.
          2   -1    0    0  501    0  0.00000000000E+00 -0.00000000000E+00 -0.29830543619E+03  0.29830543619E+03  0.00000000000E+00 0. -1.
         25    2    1    2    0    0 -0.24969810712E+02 -0.28542278804E+02 -0.16433506087E+03  0.20998011736E+03  0.12508990498E+03 0.  0.
          5    1    3    3  502    0 -0.47884033769E+01  0.48058463122E+02 -0.84616578234E+02  0.97519138617E+02  0.41800000000E+01 0. -1.
         -5    1    3    3    0  502 -0.20181407335E+02 -0.76600741926E+02 -0.79718482639E+02  0.11246097874E+03  0.41800000000E+01 0. -1.
        -11    1    1    2    0    0  0.16040586598E+02 -0.84406647556E+01 -0.93396422406E+02  0.95139040137E+02  0.00000000000E+00 0. -1.
         11    1    1    2    0    0  0.89292241144E+01  0.36982943560E+02  0.45573727614E+01  0.38317604363E+02  0.00000000000E+00 0.  1.
</event>
<event>
 7    1  0.2394257E-009  0.1035331E+03  0.7561462E-02  0.1273037E+00
          2   -1    0    0  501    0  0.00000000000E+00  0.00000000000E+00  0.94320677004E+01  0.94320677004E+01  0.00000000000E+00 0. -1.
         -2   -1    0    0    0  501 -0.00000000000E+00 -0.00000000000E+00 -0.14528383158E+04  0.14528383158E+04  0.00000000000E+00 0.  1.
         25    2    1    2    0    0 -0.12181734244E+02 -0.21100116774E+02 -0.10676881973E+04  0.10752667929E+04  0.12508788806E+03 0.  0.
          5    1    3    3  502    0 -0.37301251062E-01  0.46090410422E+02 -0.68128503166E+03  0.68285510476E+03  0.41800000000E+01 0.  1.
         -5    1    3    3    0  502 -0.12144432993E+02 -0.67190527195E+02 -0.38640316564E+03  0.39241168817E+03  0.41800000000E+01 0.  1.
        -11    1    1    2    0    0  0.51015993309E+02  0.99620659982E+01 -0.19343374689E+03  0.20029600288E+03  0.00000000000E+00 0.  1.
         11    1    1    2    0    0 -0.38834259065E+02  0.11138050776E+02 -0.18228430388E+03  0.18670758767E+03  0.00000000000E+00 0. -1.
</event>
<event>
 7    1  0.2394257E-009  0.8794578E+02  0.7561462E-02  0.1307904E+00
         -1   -1    0    0    0  501 -0.00000000000E+00  0.00000000000E+00  0.14426684703E+02  0.14426684703E+02  0.00000000000E+00 0.  1.
          1   -1    0    0  501    0  0.00000000000E+00 -0.00000000000E+00 -0.82821644490E+03  0.82821644490E+03  0.00000000000E+00 0. -1.
         25    2    1    2    0    0  0.12559769741E+01 -0.31616292834E+02 -0.46365519420E+03  0.48127461418E+03  0.12509175709E+03 0.  0.
          5    1    3    3  502    0  0.26221740296E+02  0.19884098730E+02 -0.36966905495E+03  0.37115446869E+03  0.41800000000E+01 0.  1.
         -5    1    3    3    0  502 -0.24965763322E+02 -0.51500391563E+02 -0.93986139252E+02  0.11012014548E+03  0.41800000000E+01 0.  1.
        -11    1    1    2    0    0  0.38309773421E+02  0.23502803143E+02 -0.12975716026E+03  0.13732057796E+03  0.00000000000E+00 0.  1.
         11    1    1    2    0    0 -0.39565750395E+02  0.81134896904E+01 -0.22037740575E+03  0.22404793747E+03  0.00000000000E+00 0. -1.
</event>
<event>
 7    1  0.2394257E-009  0.2075619E+03  0.7561462E-02  0.1143511E+00
         -1   -1    0    0    0  501 -0.00000000000E+00  0.00000000000E+00  0.18911625571E+03  0.18911625571E+03  0.00000000000E+00 0.  1.
          1   -1    0    0  501    0  0.00000000000E+00 -0.00000000000E+00 -0.34252960434E+03  0.34252960434E+03  0.00000000000E+00 0. -1.
         25    2    1    2    0    0 -0.88097278879E+02 -0.15728726877E+03  0.69972424125E+02  0.23031397432E+03  0.12509185092E+03 0.  0.
          5    1    3    3  502    0  0.26881966138E+02 -0.62671004194E+02  0.37187055803E+02  0.77785888113E+02  0.41800000000E+01 0. -1.
         -5    1    3    3    0  502 -0.11497924502E+03 -0.94616264573E+02  0.32785368322E+02  0.15252808621E+03  0.41800000000E+01 0. -1.
        -11    1    1    2    0    0  0.68477583980E+02  0.40797592093E+02 -0.12161187519E+03  0.14540657212E+03  0.00000000000E+00 0.  1.
         11    1    1    2    0    0  0.19619694899E+02  0.11648967667E+03 -0.10177389756E+03  0.15592531361E+03  0.00000000000E+00 0. -1.
</event>
<event>
 7    1  0.2394257E-009  0.1393633E+03  0.7561462E-02  0.1214188E+00
         -1   -1    0    0    0  501 -0.00000000000E+00  0.00000000000E+00  0.10203061384E+03  0.10203061384E+03  0.00000000000E+00 0.  1.
          1   -1    0    0  501    0  0.00000000000E+00 -0.00000000000E+00 -0.21587083326E+03  0.21587083326E+03  0.00000000000E+00 0. -1.
         25    2    1    2    0    0 -0.20268139609E+01 -0.96748705128E+02 -0.18789117416E+02  0.15927360935E+03  0.12510248513E+03 0.  0.
          5    1    3    3  502    0 -0.60946795966E+02 -0.43076037924E+02  0.77866969285E+01  0.75154254908E+02  0.41800000000E+01 0. -1.
         -5    1    3    3    0  502  0.58919982005E+02 -0.53672667204E+02 -0.26575814345E+02  0.84119354445E+02  0.41800000000E+01 0. -1.
        -11    1    1    2    0    0  0.38584861474E+02  0.33435623286E+02 -0.23057577129E+02  0.56021284370E+02  0.00000000000E+00 0. -1.
         11    1    1    2    0    0 -0.36558047513E+02  0.63313081842E+02 -0.71993524878E+02  0.10260655337E+03  0.00000000000E+00 0.  1.
</event>
<event>
 7    1  0.2394257E-009  0.1032592E+03  0.7561462E-02  0.1273588E+00
         -2   -1    0    0    0  501 -0.00000000000E+00  0.00000000000E+00  0.74939462436E+03  0.74939462436E+03  0.00000000000E+00 0.  1.
          2   -1    0    0  501    0  0.00000000000E+00 -0.00000000000E+00 -0.22254729668E+02  0.22254729668E+02  0.00000000000E+00 0. -1.
         25    2    1    2    0    0 -0.55528212367E+02 -0.30418346048E+02  0.48514449539E+03  0.50499786893E+03  0.12509599544E+03 0.  0.
          5    1    3    3  502    0 -0.65494193658E+02 -0.24176920056E+01  0.10618829859E+03  0.12485496304E+03  0.41800000000E+01 0.  1.
         -5    1    3    3    0  502  0.99659812906E+01 -0.28000654042E+02  0.37895619680E+03  0.38014290590E+03  0.41800000000E+01 0.  1.
        -11    1    1    2    0    0 -0.23777066191E+02  0.19557456928E+02  0.51172078295E+02  0.59719549523E+02  0.00000000000E+00 0.  1.
         11    1    1    2    0    0  0.79305278559E+02  0.10860889119E+02  0.19082332100E+03  0.20693193557E+03  0.00000000000E+00 0. -1.
</event>
<event>
 7    1  0.2394257E-009  0.1402195E+03  0.7561462E-02  0.1213034E+00
          3   -1    0    0  501    0  0.00000000000E+00  0.00000000000E+00  0.98529394414E+03  0.98529394414E+03  0.00000000000E+00 0. -1.
         -3   -1    0    0    0  501 -0.00000000000E+00 -0.00000000000E+00 -0.20028300289E+02  0.20028300289E+02  0.00000000000E+00 0.  1.
         25    2    1    2    0    0  0.78894607063E+02  0.27428453868E+02  0.54090064446E+03  0.56142476390E+03  0.12509028433E+03 0.  0.
          5    1    3    3  502    0 -0.22885280829E+02 -0.26267975921E+02  0.13806028368E+03  0.14244948918E+03  0.41800000000E+01 0. -1.
         -5    1    3    3    0  502  0.10177988789E+03  0.53696429789E+02  0.40284036078E+03  0.41897527472E+03  0.41800000000E+01 0. -1.
        -11    1    1    2    0    0 -0.88149670559E+02 -0.53101371780E+02  0.33151783430E+03  0.34712273703E+03  0.00000000000E+00 0. -1.
         11    1    1    2    0    0  0.92550634960E+01  0.25672917911E+02  0.92847165092E+02  0.96774743503E+02  0.00000000000E+00 0.  1.
</event>
<event>
 7    1  0.2394257E-009  0.2959896E+03  0.7561462E-02  0.1087263E+00
         -2   -1    0    0    0  501 -0.00000000000E+00  0.00000000000E+00  0.12605181007E+03  0.12605181007E+03  0.00000000000E+00 0.  1.
          2   -1    0    0  501    0  0.00000000000E+00 -0.00000000000E+00 -0.74665749879E+03  0.74665749879E+03  0.00000000000E+00 0. -1.
         25    2    1    2    0    0  0.73049241544E+02 -0.27395073986E+03 -0.28011982298E+03  0.41773161696E+03  0.12508952404E+03 0.  0.
          5    1    3    3  502    0  0.78206028210E+01 -0.20412947546E+03 -0.23671978286E+03  0.31270390560E+03  0.41800000000E+01 0. -1.
         -5    1    3    3    0  502  0.65228638723E+02 -0.69821264397E+02 -0.43400040125E+02  0.10502771137E+03  0.41800000000E+01 0. -1.
        -11    1    1    2    0    0 -0.73861614570E+02  0.14198603156E+03 -0.24273494429E+03  0.29075045046E+03  0.00000000000E+00 0. -1.
         11    1    1    2    0    0  0.81237302616E+00  0.13196470830E+03 -0.97750921445E+02  0.16422724144E+03  0.00000000000E+00 0.  1.
</event>
<event>
 7    1  0.2394257E-009  0.1148854E+03  0.7561462E-02  0.1251781E+00
          3   -1    0    0  501    0  0.00000000000E+00  0.00000000000E+00  0.41276480503E+02  0.41276480503E+02  0.00000000000E+00 0. -1.
         -3   -1    0    0    0  501 -0.00000000000E+00 -0.00000000000E+00 -0.33832769518E+03  0.33832769518E+03  0.00000000000E+00 0.  1.
         25    2    1    2    0    0  0.28925764613E+02  0.19794548263E+02 -0.13438441298E+03  0.18691333515E+03  0.12509556510E+03 0.  0.
          5    1    3    3  502    0  0.51561442715E+02 -0.38243433434E+02 -0.47711824154E+02  0.80093902014E+02  0.41800000000E+01 0.  1.
         -5    1    3    3    0  502 -0.22635678102E+02  0.58037981696E+02 -0.86672588827E+02  0.10681943314E+03  0.41800000000E+01 0.  1.
        -11    1    1    2    0    0  0.18961749399E+02  0.28991130951E+02 -0.48043794913E+02  0.59230396282E+02  0.00000000000E+00 0.  1.
         11    1    1    2    0    0 -0.47887514012E+02 -0.48785679213E+02 -0.11462300678E+03  0.13346044424E+03  0.00000000000E+00 0. -1.
</event>
<event>
 7    1  0.2394257E-009  0.2374861E+03  0.7561462E-02  0.1121479E+00
         -1   -1    0    0    0  501 -0.00000000000E+00  0.00000000000E+00  0.10294211536E+03  0.10294211536E+03  0.00000000000E+00 0.  1.
          1   -1    0    0  501    0  0.00000000000E+00 -0.00000000000E+00 -0.60470382956E+03  0.60470382956E+03  0.00000000000E+00 0. -1.
         25    2    1    2    0    0  0.21549598401E+03  0.56625193276E+02 -0.22297487595E+03  0.33912901997E+03  0.12508303340E+03 0.  0.
          5    1    3    3  502    0  0.35340055014E+02 -0.19438813533E+02  0.25112623307E+01  0.40627155924E+02  0.41800000000E+01 0. -1.
         -5    1    3    3    0  502  0.18015592899E+03  0.76064006809E+02 -0.22548613828E+03  0.29850186405E+03  0.41800000000E+01 0. -1.
        -11    1    1    2    0    0 -0.18760125839E+03 -0.14317511989E+02 -0.19787291405E+03  0.27304379395E+03  0.00000000000E+00 0. -1.
         11    1    1    2    0    0 -0.27894725612E+02 -0.42307681286E+02 -0.80913924203E+02  0.95473130999E+02  0.00000000000E+00 0.  1.
</event>
<event>
 7    1  0.2394257E-009  0.2047826E+03  0.7561462E-02  0.1145766E+00
          2   -1    0    0  501    0  0.00000000000E+00  0.00000000000E+00  0.15099722530E+03  0.15099722530E+03  0.00000000000E+00 0. -1.
         -2   -1    0    0    0  501 -0.00000000000E+00 -0.00000000000E+00 -0.71394208707E+03  0.71394208707E+03  0.00000000000E+00 0.  1.
         25    2    1    2    0    0  0.18356806773E+03  0.97006633514E+01 -0.61416525110E+03  0.65317457765E+03  0.12508690927E+03 0.  0.
          5    1    3    3  502    0  0.18321477593E+03  0.42783089342E+02 -0.50017837931E+03  0.53440988986E+03  0.41800000000E+01 0.  1.
         -5    1    3    3    0  502  0.35329179169E+00 -0.33082425990E+02 -0.11398687179E+03  0.11876468779E+03  0.41800000000E+01 0.  1.
        -11    1    1    2    0    0 -0.47895496054E+02 -0.20132325238E+02  0.54973762845E+02  0.75639960756E+02  0.00000000000E+00 0. -1.
         11    1    1    2    0    0 -0.13567257167E+03  0.10431661886E+02 -0.37533735119E+01  0.13612477396E+03  0.00000000000E+00 0.  1.
</event>
<event>
 7    1  0.2394257E-009  0.1144060E+03  0.7561462E-02  0.1252621E+00
         -2   -1    0    0    0  501 -0.00000000000E+00  0.00000000000E+00  0.67486967774E+03  0.67486967774E+03  0.00000000000E+00 0.  1.
          2   -1    0    0  501    0  0.00000000000E+00 -0.00000000000E+00 -0.20221362397E+02  0.20221362397E+02  0.00000000000E+00 0. -1.
         25    2    1    2    0    0 -0.37579271677E+02  0.26694412939E+02  0.40360654933E+03  0.42505434435E+03  0.12509258831E+03 0.  0.
          5    1    3    3  502    0  0.35089955958E+02 -0.24814104579E+02  0.15664076667E+03  0.16248337447E+03  0.41800000000E+01 0.  1.
         -5    1    3    3    0  502 -0.72669227635E+02  0.51508517517E+02  0.24696578266E+03  0.26257096989E+03  0.41800000000E+01 0.  1.
        -11    1    1    2    0    0  0.70344908397E+01 -0.54622335304E+02  0.17499847005E+03  0.18345993594E+03  0.00000000000E+00 0. -1.
         11    1    1    2    0    0  0.30544780837E+02  0.27927922365E+02  0.76043295964E+02  0.86576759844E+02  0.00000000000E+00 0.  1.
</event>
<event>
 7    1  0.2394257E-009  0.1166085E+03  0.7561462E-02  0.1248799E+00
          2   -1    0    0  501    0  0.00000000000E+00  0.00000000000E+00  0.22701235852E+03  0.22701235852E+03  0.00000000000E+00 0. -1.
         -2   -1    0    0    0  501 -0.00000000000E+00 -0.00000000000E+00 -0.81391681184E+02  0.81391681184E+02  0.00000000000E+00 0.  1.
         25    2    1    2    0    0  0.26473649203E+02  0.57192543141E+02  0.13392546678E+03  0.19379124813E+03  0.12508867297E+03 0.  0.
          5    1    3    3  502    0  0.67943853379E+02  0.60471603439E+01  0.95518346619E+02  0.11744855172E+03  0.41800000000E+01 0. -1.
         -5    1    3    3    0  502 -0.41470204176E+02  0.51145382797E+02  0.38407120161E+02  0.76342696409E+02  0.41800000000E+01 0. -1.
        -11    1    1    2    0    0 -0.21148029534E+00  0.18643115461E+02 -0.20886003690E+02  0.27997064635E+02  0.00000000000E+00 0.  1.
         11    1    1    2    0    0 -0.26262168908E+02 -0.75835658603E+02  0.32581214243E+02  0.86615726938E+02  0.00000000000E+00 0. -1.
</event>
<event>
 7    1  0.2394257E-009  0.1000636E+03  0.7561462E-02  0.1280162E+00
          3   -1    0    0  501    0  0.00000000000E+00  0.00000000000E+00  0.81444139504E+02  0.81444139504E+02  0.00000000000E+00 0. -1.
         -3   -1    0    0    0  501 -0.00000000000E+00 -0.00000000000E+00 -0.17826251120E+03  0.17826251120E+03  0.00000000000E+00 0.  1.
         25    2    1    2    0    0  0.16046722460E+02 -0.33924618430E+02 -0.16234681980E+02  0.13160079365E+03  0.12508727734E+03 0.  0.
          5    1    3    3  502    0  0.32238092248E+02 -0.73294081397E+02 -0.31555921713E+02  0.86165918754E+02  0.41800000000E+01 0. -1.
         -5    1    3    3    0  502 -0.16191369789E+02  0.39369462967E+02  0.15321239733E+02  0.45434874897E+02  0.41800000000E+01 0. -1.
        -11    1    1    2    0    0 -0.16945231778E+02 -0.18300460825E+02  0.71985656782E+01  0.25958950176E+02  0.00000000000E+00 0. -1.
         11    1    1    2    0    0  0.89850931824E+00  0.52225079255E+02 -0.87782255392E+02  0.10214690687E+03  0.00000000000E+00 0.  1.
</event>
<event>
 7    1  0.2394257E-009  0.1055772E+03  0.7561462E-02  0.1268987E+00
         -2   -1    0    0    0  501 -0.00000000000E+00  0.00000000000E+00  0.74512931274E+03  0.74512931274E+03  0.00000000000E+00 0.  1.
          2   -1    0    0  501    0  0.00000000000E+00 -0.00000000000E+00 -0.28016116078E+02  0.28016116078E+02  0.00000000000E+00 0. -1.
         25    2    1    2    0    0 -0.42218330544E+02 -0.71254053293E+02  0.24386177480E+03  0.28631430859E+03  0.12509112899E+03 0.  0.
          5    1    3    3  502    0 -0.15046195612E+02 -0.67509719844E+02  0.24868008657E+03  0.25815345850E+03  0.41800000000E+01 0.  1.
         -5    1    3    3    0  502 -0.27172134932E+02 -0.37443334488E+01 -0.48183117738E+01  0.28160850095E+02  0.41800000000E+01 0.  1.
        -11    1    1    2    0    0 -0.11563795560E+01  0.70729199850E+02  0.28526548286E+03  0.29390534639E+03  0.00000000000E+00 0.  1.
         11    1    1    2    0    0  0.43374710100E+02  0.52485344288E+00  0.18798593900E+03  0.19292577383E+03  0.00000000000E+00 0. -1.
</event>
<event>
 7    1  0.2394257E-009  0.8960427E+02  0.7561462E-02  0.1303813E+00
          1   -1    0    0  501    0  0.00000000000E+00  0.00000000000E+00  0.73858283598E+02  0.73858283598E+02  0.00000000000E+00 0. -1.
         -1   -1    0    0    0  501 -0.00000000000E+00 -0.00000000000E+00 -0.19170811073E+03  0.19170811073E+03  0.00000000000E+00 0.  1.
         25    2    1    2    0    0 -0.44948167052E+02 -0.14514300443E+02 -0.72588154743E+02  0.15214142870E+03  0.12508785504E+03 0.  0.
          5    1    3    3  502    0  0.13430932062E+02 -0.33709334656E+02  0.19458848459E+02  0.41386330621E+02  0.41800000000E+01 0.  1.
         -5    1    3    3    0  502 -0.58379099113E+02  0.19195034213E+02 -0.92047003202E+02  0.11075509808E+03  0.41800000000E+01 0.  1.
        -11    1    1    2    0    0  0.40767909822E+02  0.38897429770E+02  0.58407798039E+01  0.56649335589E+02  0.00000000000E+00 0. -1.
         11    1    1    2    0    0  0.41802572300E+01 -0.24383129327E+02 -0.51102452193E+02  0.56775630040E+02  0.00000000000E+00 0.  1.
</event>
<event>
 7    1  0.2394257E-009  0.1439428E+03  0.7561462E-02  0.1208120E+00
         -1   -1    0    0    0  501 -0.00000000000E+00  0.00000000000E+00  0.24342206680E+03  0.24342206680E+03  0.00000000000E+00 0.  1.
          1   -1    0    0  501    0  0.00000000000E+00 -0.00000000000E+00 -0.11531961834E+03  0.11531961834E+03  0.00000000000E+00 0. -1.
         25    2    1    2    0    0 -0.11912903643E+03  0.96276327020E+01  0.10896507201E+03  0.20446552660E+03  0.12509334922E+03 0.  0.
          5    1    3    3  502    0 -0.53871252685E+02 -0.27325470183E+02  0.11410947336E+03  0.12917909079E+03  0.41800000000E+01 0. -1.
         -5    1    3    3    0  502 -0.65257783747E+02  0.36953102885E+02 -0.51444013501E+01  0.75286435814E+02  0.41800000000E+01 0. -1.
        -11    1    1    2    0    0  0.98017302498E+02  0.34009223214E+02  0.20615096022E+02  0.10577807446E+03  0.00000000000E+00 0.  1.
         11    1    1    2    0    0  0.21111733934E+02 -0.43636855916E+02 -0.14777195675E+01  0.48498084076E+02  0.00000000000E+00 0. -1.
</event>
<event>
 7    1  0.2394257E-009  0.9558208E+02  0.7561462E-02  0.1289870E+00
         -2   -1    0    0    0  501 -0.00000000000E+00  0.00000000000E+00  0.10957062442E+03  0.10957062442E+03  0.00000000000E+00 0.  1.
          2   -1    0    0  501    0  0.00000000000E+00 -0.00000000000E+00 -0.11868814640E+03  0.11868814640E+03  0.00000000000E+00 0. -1.
         25    2    1    2    0    0 -0.14413339252E+02  0.21761060886E+02 -0.29480180724E+02  0.13114160735E+03  0.12509097491E+03 0.  0.
          5    1    3    3  502    0  0.12283767821E+02 -0.47424138223E+02 -0.28561050801E+02  0.56860758533E+02  0.41800000000E+01 0.  1.
         -5    1    3    3    0  502 -0.26697107072E+02  0.69185199109E+02 -0.91912992298E+00  0.74280848822E+02  0.41800000000E+01 0.  1.
        -11    1    1    2    0    0  0.39159143197E+02 -0.10553539975E+02 -0.22493562031E+02  0.46376459921E+02  0.00000000000E+00 0. -1.
         11    1    1    2    0    0 -0.24745803945E+02 -0.11207520911E+02  0.42856220768E+02  0.50740703546E+02  0.00000000000E+00 0.  1.
</event>
<event>
 7    1  0.2394257E-009  0.1608326E+03  0.7561462E-02  0.1187760E+00
         -2   -1    0    0    0  501 -0.00000000000E+00  0.00000000000E+00  0.53251321472E+02  0.53251321472E+02  0.00000000000E+00 0.  1.
          2   -1    0    0  501    0  0.00000000000E+00 -0.00000000000E+00 -0.78607141948E+03  0.78607141948E+03  0.00000000000E+00 0. -1.
         25    2    1    2    0    0  0.11773555626E+03 -0.71091378256E+02 -0.16600340530E+03  0.24924380069E+03  0.12509874637E+03 0.  0.
          5    1    3    3  502    0  0.12895015978E+03 -0.76889398224E+02 -0.96594539879E+02  0.17857239653E+03  0.41800000000E+01 0. -1.
         -5    1    3    3    0  502 -0.11214603524E+02  0.57980199684E+01 -0.69408865419E+02  0.70671404164E+02  0.41800000000E+01 0. -1.
        -11    1    1    2    0    0 -0.88039387697E+02  0.79488681716E+01 -0.39216471317E+03  0.40200408026E+03  0.00000000000E+00 0.  1.
         11    1    1    2    0    0 -0.29696168558E+02  0.63142510084E+02 -0.17465197954E+03  0.18807486000E+03  0.00000000000E+00 0. -1.
</event>
<event>
 7    1  0.2394257E-009  0.1378042E+03  0.7561462E-02  0.1216315E+00
          1   -1    0    0  501    0  0.00000000000E+00  0.00000000000E+00  0.60143698147E+03  0.60143698147E+03  0.00000000000E+00 0. -1.
         -1   -1    0    0    0  501 -0.00000000000E+00 -0.00000000000E+00 -0.52143043934E+02  0.52143043934E+02  0.00000000000E+00 0.  1.
         25    2    1    2    0    0 -0.44408775761E+02  0.12316162574E+03  0.19345147934E+03  0.26497252029E+03  0.12508411662E+03 0.  0.
          5    1    3    3  502    0 -0.28601509721E+02  0.10815561359E+03  0.54961023463E+02  0.12471515389E+03  0.41800000000E+01 0.  1.
         -5    1    3    3    0  502 -0.15807266040E+02  0.15006012151E+02  0.13849045588E+03  0.14025736640E+03  0.41800000000E+01 0.  1.
        -11    1    1    2    0    0 -0.12557812431E+02 -0.24749659874E+02  0.20480219451E+02  0.34491791860E+02  0.00000000000E+00 0.  1.
         11    1    1    2    0    0  0.56966588192E+02 -0.98411965870E+02  0.33536223874E+03  0.35411571325E+03  0.00000000000E+00 0. -1.
</event>
<event>
 7    1  0.2394257E-009  0.2216476E+03  0.7561462E-02  0.1132661E+00
          1   -1    0    0  501    0  0.00000000000E+00  0.00000000000E+00  0.44987704514E+03  0.44987704514E+03  0.00000000000E+00 0. -1.
         -1   -1    0    0    0  501 -0.00000000000E+00 -0.00000000000E+00 -0.11609375067E+03  0.11609375067E+03  0.00000000000E+00 0.  1.
         25    2    1    2    0    0 -0.18156383521E+03 -0.85425477614E+02  0.17916829918E+03  0.29666176232E+03  0.12507591019E+03 0.  0.
          5    1    3    3  502    0 -0.19308970458E+03 -0.54839924943E+02  0.16825282346E+03  0.26194949205E+03  0.41800000000E+01 0. -1.
         -5    1    3    3    0  502  0.11525869371E+02 -0.30585552671E+02  0.10915475714E+02  0.34712270266E+02  0.41800000000E+01 0. -1.
        -11    1    1    2    0    0  0.93517392935E+02  0.10766508499E+02  0.11187953385E+03  0.14621371543E+03  0.00000000000E+00 0. -1.
         11    1    1    2    0    0  0.88046442270E+02  0.74658969115E+02  0.42735461442E+02  0.12309531807E+03  0.00000000000E+00 0.  1.
</event>
<event>
 7    1  0.2394257E-009  0.2233654E+03  0.7561462E-02  0.1131399E+00
         -1   -1    0    0    0  501 -0.00000000000E+00  0.00000000000E+00  0.56191448141E+02  0.56191448141E+02  0.00000000000E+00 0.  1.
          1   -1    0    0  501    0  0.00000000000E+00 -0.00000000000E+00 -0.96574937860E+03  0.96574937860E+03  0.00000000000E+00 0. -1.
         25    2    1    2    0    0  0.74700362688E+02 -0.19171215734E+03 -0.42275684416E+03  0.48652208043E+03  0.12508672990E+03 0.  0.
          5    1    3    3  502    0  0.34849533911E+02 -0.66504276327E+01 -0.18753368253E+02  0.40346987773E+02  0.41800000000E+01 0.  1.
         -5    1    3    3    0  502  0.39850828777E+02 -0.18506172971E+03 -0.40400347591E+03  0.44617509265E+03  0.41800000000E+01 0.  1.
        -11    1    1    2    0    0 -0.48234469950E+02  0.27903279197E+02 -0.98922625049E+02  0.11353784756E+03  0.00000000000E+00 0.  1.
         11    1    1    2    0    0 -0.26465892738E+02  0.16380887815E+03 -0.38787846124E+03  0.42188089876E+03  0.00000000000E+00 0. -1.
</event>
<event>
 7    1  0.2394257E-009  0.1336618E+03  0.7561462E-02  0.1222121E+00
         -2   -1    0    0    0  501 -0.00000000000E+00  0.00000000000E+00  0.11572239409E+02  0.11572239409E+02  0.00000000000E+00 0.  1.
          2   -1    0    0  501    0  0.00000000000E+00 -0.00000000000E+00 -0.24726915106E+04  0.24726915106E+04  0.00000000000E+00 0. -1.
         25    2    1    2    0    0 -0.19226284947E+02 -0.10758309073E+03 -0.18139983826E+04  0.18215874884E+04  0.12508826627E+03 0.  0.
          5    1    3    3  502    0 -0.45389395474E+02 -0.89665720266E+02 -0.17057373678E+04  0.17087005528E+04  0.41800000000E+01 0. -1.
         -5    1    3    3    0  502  0.26163110527E+02 -0.17917370460E+02 -0.10826101478E+03  0.11288693564E+03  0.41800000000E+01 0. -1.
        -11    1    1    2    0    0  0.42863830494E+02  0.26730219118E+02 -0.14521466859E+03  0.15375016277E+03  0.00000000000E+00 0.  1.
         11    1    1    2    0    0 -0.23637545547E+02  0.80852871608E+02 -0.50190622001E+03  0.50892609885E+03  0.00000000000E+00 0. -1.
</event>
<event>
 7    1  0.2394257E-009  0.1589958E+03  0.7561462E-02  0.1189835E+00
         -3   -1    0    0    0  501 -0.00000000000E+00  0.00000000000E+00  0.44356624423E+03  0.44356624423E+03  0.00000000000E+00 0.  1.
          3   -1    0    0  501    0  0.00000000000E+00 -0.00000000000E+00 -0.87290151568E+02  0.87290151568E+02  0.00000000000E+00 0. -1.
         25    2    1    2    0    0 -0.70475108905E+02 -0.12587350825E+03  0.29079740284E+03  0.34788169448E+03  0.12509061836E+03 0.  0.
          5    1    3    3  502    0 -0.76443858486E+02 -0.86266596734E+02  0.28466777971E+03  0.30714622970E+03  0.41800000000E+01 0. -1.
         -5    1    3    3    0  502  0.59687495815E+01 -0.39606911518E+02  0.61296231319E+01  0.40735464786E+02  0.41800000000E+01 0. -1.
        -11    1    1    2    0    0  0.37989406571E+02  0.63436902961E+01  0.41849366604E+02  0.56875362885E+02  0.00000000000E+00 0.  1.
         11    1    1    2    0    0  0.32485702334E+02  0.11952981796E+03  0.23629323216E+02  0.12609933843E+03  0.00000000000E+00 0. -1.
</event>
<event>
 7    1  0.2394257E-009  0.1307950E+03  0.7561462E-02  0.1226281E+00
          1   -1    0    0  501    0  0.00000000000E+00  0.00000000000E+00  0.85417404041E+03  0.85417404041E+03  0.00000000000E+00 0. -1.
         -1   -1    0    0    0  501 -0.00000000000E+00 -0.00000000000E+00 -0.21378929786E+02  0.21378929786E+02  0.00000000000E+00 0.  1.
         25    2    1    2    0    0 -0.75422889583E+02 -0.98851217664E+00  0.39471351026E+03  0.42087427324E+03  0.12508720666E+03 0.  0.
          5    1    3    3  502    0 -0.30353669961E+01  0.52400551216E+02  0.19146293447E+03  0.19857129424E+03  0.41800000000E+01 0.  1.
         -5    1    3    3    0  502 -0.72387522586E+02 -0.53389063392E+02  0.20325057578E+03  0.22230297900E+03  0.41800000000E+01 0.  1.
        -11    1    1    2    0    0 -0.17408922197E+02 -0.17000928020E+02  0.55778505129E+02  0.60855104634E+02  0.00000000000E+00 0. -1.
         11    1    1    2    0    0  0.92831811779E+02  0.17989440197E+02  0.38230309524E+03  0.39382359232E+03  0.00000000000E+00 0.  1.
</event>
<event>
 7    1  0.2394257E-009  0.2181370E+03  0.7561462E-02  0.1135280E+00
          1   -1    0    0  501    0  0.00000000000E+00  0.00000000000E+00  0.10274984588E+04  0.10274984588E+04  0.00000000000E+00 0. -1.
         -1   -1    0    0    0  501 -0.00000000000E+00 -0.00000000000E+00 -0.52415831689E+02  0.52415831689E+02  0.00000000000E+00 0.  1.
         25    2    1    2    0    0  0.20087616849E+03  0.28427677165E+02  0.57009986530E+03  0.61791647699E+03  0.12509016039E+03 0.  0.
          5    1    3    3  502    0  0.13805594685E+03  0.53060061274E+02  0.49605182832E+03  0.51764824286E+03  0.41800000000E+01 0.  1.
         -5    1    3    3    0  502  0.62820221645E+02 -0.24632384109E+02  0.74048036981E+02  0.10026823413E+03  0.41800000000E+01 0.  1.
        -11    1    1    2    0    0 -0.58928670478E+02 -0.49808326390E+02  0.16905954414E+03  0.18583483809E+03  0.00000000000E+00 0. -1.
         11    1    1    2    0    0 -0.14194749801E+03  0.21380649225E+02  0.23592321771E+03  0.27616297545E+03  0.00000000000E+00 0.  1.
</event>
<event>
 7    1  0.2598372E-009  0.1006987E+03  0.7561462E-02  0.1278834E+00
          2   -1    0    0  501    0  0.00000000000E+00  0.00000000000E+00  0.89957185128E+03  0.89957185128E+03  0.00000000000E+00 0. -1.
         -2   -1    0    0    0  501 -0.00000000000E+00 -0.00000000000E+00 -0.22566240720E+02  0.22566240720E+02  0.00000000000E+00 0.  1.
         25    2    1    2    0    0 -0.18923939853E+02 -0.33959517608E+02  0.74803461903E+03  0.75941742145E+03  0.12509062475E+03 0.  0.
          5    1    3    3  502    0 -0.44196838160E+02  0.23816090261E+02  0.53053894331E+03  0.53292551959E+03  0.41800000000E+01 0. -1.
         -5    1    3    3    0  502  0.25272898307E+02 -0.57775607868E+02  0.21749567572E+03  0.22649190187E+03  0.41800000000E+01 0. -1.
        -11    1    1    2    0    0  0.49897464233E+02  0.23223642412E+02  0.40386972704E+02  0.68265672691E+02  0.00000000000E+00 0.  1.
         11    1    1    2    0    0 -0.30973524380E+02  0.10735875196E+02  0.88584018830E+02  0.94454997861E+02  0.00000000000E+00 0. -1.
</event>
<event>
 7    1  0.2394257E-009  0.1518477E+03  0.7561462E-02  0.1198221E+00
          2   -1    0    0  501    0  0.00000000000E+00  0.00000000000E+00  0.28116868714E+02  0.28116868714E+02  0.00000000000E+00 0. -1.
         -2   -1    0    0    0  501 -0.00000000000E+00 -0.00000000000E+00 -0.86310292688E+03  0.86310292688E+03  0.00000000000E+00 0.  1.
         25    2    1    2    0    0  0.10373846616E+03  0.39866580481E+02 -0.41863795722E+03  0.45083910167E+03  0.12508853972E+03 0.  0.
          5    1    3    3  502    0  0.10350411448E+03 -0.21369675769E+02 -0.27480084556E+03  0.29445329320E+03  0.41800000000E+01 0.  1.
         -5    1    3    3    0  502  0.23435168580E+00  0.61236256251E+02 -0.14383711166E+03  0.15638580847E+03  0.41800000000E+01 0.  1.
        -11    1    1    2    0    0 -0.43469427075E+02  0.23233155424E+02 -0.22100927171E+03  0.22643866451E+03  0.00000000000E+00 0.  1.
         11    1    1    2    0    0 -0.60269039087E+02 -0.63099735906E+02 -0.19533882923E+03  0.21394202941E+03  0.00000000000E+00 0. -1.
</event>
<event>
 7    1  0.2394257E-009  0.1264244E+03  0.7561462E-02  0.1232860E+00
         -1   -1    0    0    0  501 -0.00000000000E+00  0.00000000000E+00  0.12071224919E+02  0.12071224919E+02  0.00000000000E+00 0.  1.
          1   -1    0    0  501    0  0.00000000000E+00 -0.00000000000E+00 -0.13623536044E+04  0.13623536044E+04  0.00000000000E+00 0. -1.
         25    2    1    2    0    0 -0.59344996007E+02  0.26143583512E+02 -0.80755300074E+03  0.81975228778E+03  0.12508656531E+03 0.  0.
          5    1    3    3  502    0 -0.29259656890E+01 -0.47154155882E+02 -0.23192320253E+03  0.23672329831E+03  0.41800000000E+01 0. -1.
         -5    1    3    3    0  502 -0.56419030318E+02  0.73297739395E+02 -0.57562979821E+03  0.58302898947E+03  0.41800000000E+01 0. -1.
        -11    1    1    2    0    0  0.32756740411E+02  0.33912642520E+02 -0.18170804786E+03  0.18772556039E+03  0.00000000000E+00 0.  1.
         11    1    1    2    0    0  0.26588255596E+02 -0.60056226032E+02 -0.36102133090E+03  0.36694698117E+03  0.00000000000E+00 0. -1.
</event>
<event>
 7    1  0.2505138E-009  0.1743848E+03  0.7561462E-02  0.1173351E+00
         -2   -1    0    0    0  501 -0.00000000000E+00  0.00000000000E+00  0.43452195438E+02  0.43452195438E+02  0.00000000000E+00 0.  1.
          2   -1    0    0  501    0  0.00000000000E+00 -0.00000000000E+00 -0.76778950582E+03  0.76778950582E+03  0.00000000000E+00 0. -1.
         25    2    1    2    0    0  0.14546543829E+03  0.86386203125E+01 -0.42432418880E+03  0.46576073960E+03  0.12508888778E+03 0.  0.
          5    1    3    3  502    0  0.13343496679E+03  0.44259725240E+02 -0.24509221660E+03  0.28258004296E+03  0.41800000000E+01 0. -1.
         -5    1    3    3    0  502  0.12030471507E+02 -0.35621104927E+02 -0.17923197220E+03  0.18318069664E+03  0.41800000000E+01 0. -1.
        -11    1    1    2    0    0 -0.53272580101E+02 -0.46420494455E+02 -0.10621977557E+03  0.12757535349E+03  0.00000000000E+00 0. -1.
         11    1    1    2    0    0 -0.92192858193E+02  0.37781874142E+02 -0.19379334601E+03  0.21790560817E+03  0.00000000000E+00 0.  1.
</event>
<event>
 7    1  0.2394257E-009  0.3985574E+03  0.7561462E-02  0.1044280E+00
          2   -1    0    0  501    0  0.00000000000E+00  0.00000000000E+00  0.14105999283E+04  0.14105999283E+04  0.00000000000E+00 0. -1.
         -2   -1    0    0    0  501 -0.00000000000E+00 -0.00000000000E+00 -0.17605080997E+03  0.17605080997E+03  0.00000000000E+00 0.  1.
         25    2    1    2    0    0  0.36335323770E+03  0.13866463462E+03  0.15716857905E+03  0.43772672365E+03  0.12509702682E+03 0.  0.
          5    1    3    3  502    0  0.14677340934E+03  0.12198259752E+03  0.64049471796E+02  0.20135042842E+03  0.41800000000E+01 0.  1.
         -5    1    3    3    0  502  0.21657982835E+03  0.16682037102E+02  0.93119107253E+02  0.23637629523E+03  0.41800000000E+01 0.  1.
        -11    1    1    2    0    0 -0.17047031298E+03 -0.68333894963E+02  0.38176484050E+03  0.42364376810E+03  0.00000000000E+00 0. -1.
         11    1    1    2    0    0 -0.19288292471E+03 -0.70330739662E+02  0.69561569878E+03  0.72528024651E+03  0.00000000000E+00 0.  1.
</event>
<event>
 7    1  0.2394257E-009  0.1614402E+03  0.7561462E-02  0.1187080E+00
          1   -1    0    0  501    0  0.00000000000E+00  0.00000000000E+00  0.71906531320E+02  0.71906531320E+02  0.00000000000E+00 0. -1.
         -1   -1    0    0    0  501 -0.00000000000E+00 -0.00000000000E+00 -0.47485411247E+03  0.47485411247E+03  0.00000000000E+00 0.  1.
         25    2    1    2    0    0 -0.25776829533E+02 -0.14707631474E+03 -0.21245015449E+03  0.28823291445E+03  0.12508899844E+03 0.  0.
          5    1    3    3  502    0 -0.31386574217E+02 -0.15567069442E+02 -0.12563958643E+03  0.13049991866E+03  0.41800000000E+01 0. -1.
         -5    1    3    3    0  502  0.56097446835E+01 -0.13150924529E+03 -0.86810568061E+02  0.15773299579E+03  0.41800000000E+01 0. -1.
        -11    1    1    2    0    0  0.38305907436E+02  0.97198451051E+02 -0.65359742619E+02  0.12323464361E+03  0.00000000000E+00 0.  1.
         11    1    1    2    0    0 -0.12529077903E+02  0.49877863685E+02 -0.12513768404E+03  0.13529308573E+03  0.00000000000E+00 0. -1.
</event>
<event>
 7    1  0.2394257E-009  0.1260150E+03  0.7561462E-02  0.1233491E+00
          2   -1    0    0  501    0  0.00000000000E+00  0.00000000000E+00  0.29997907715E+03  0.29997907715E+03  0.00000000000E+00 0. -1.
         -2   -1    0    0    0  501 -0.00000000000E+00 -0.00000000000E+00 -0.61546085666E+02  0.61546085666E+02  0.00000000000E+00 0.  1.
         25    2    1    2    0    0 -0.44933864032E+02  0.64407732543E+02  0.96163562665E+02  0.17624741337E+03  0.12509321240E+03 0.  0.
          5    1    3    3  502    0  0.14939005535E+02  0.79928002423E+02  0.33322701506E+02  0.87974623008E+02  0.41800000000E+01 0. -1.
         -5    1    3    3    0  502 -0.59872869567E+02 -0.15520269880E+02  0.62840861159E+02  0.88272790363E+02  0.41800000000E+01 0. -1.
        -11    1    1    2    0    0 -0.41467711984E+01 -0.59106271411E+02  0.11377301851E+03  0.12827722625E+03  0.00000000000E+00 0. -1.
         11    1    1    2    0    0  0.49080635230E+02 -0.53014611320E+01  0.28496410308E+02  0.57000523201E+02  0.00000000000E+00 0.  1.
</event>
<event>
 7    1  0.2394257E-009  0.8461905E+02  0.7561462E-02  0.1316432E+00
          2   -1    0    0  501    0  0.00000000000E+00  0.00000000000E+00  0.70989732410E+03  0.70989732410E+03  0.00000000000E+00 0. -1.
         -2   -1    0    0    0  501 -0.00000000000E+00 -0.00000000000E+00 -0.20039059857E+02  0.20039059857E+02  0.00000000000E+00 0.  1.
         25    2    1    2    0    0  0.26356696739E+02 -0.31475026537E+02  0.46167019356E+03  0.48007488153E+03  0.12508865453E+03 0.  0.
          5    1    3    3  502    0  0.42556598927E+01 -0.45095652338E+02  0.44825121814E+03  0.45055338803E+03  0.41800000000E+01 0. -1.
         -5    1    3    3    0  502  0.22101036847E+02  0.13620625802E+02  0.13418975418E+02  0.29521493495E+02  0.41800000000E+01 0. -1.
        -11    1    1    2    0    0 -0.57649586298E+02  0.77157480096E+01  0.98903764767E+02  0.11473866939E+03  0.00000000000E+00 0.  1.
         11    1    1    2    0    0  0.31292889559E+02  0.23759278527E+02  0.12928430591E+03  0.13512283304E+03  0.00000000000E+00 0. -1.
</event>
<event>
 7    1  0.2394257E-009  0.1101565E+03  0.7561462E-02  0.1260280E+00
          2   -1    0    0  501    0  0.00000000000E+00  0.00000000000E+00  0.11628902010E+03  0.11628902010E+03  0.00000000000E+00 0. -1.
         -2   -1    0    0    0  501 -0.00000000000E+00 -0.00000000000E+00 -0.14435968321E+03  0.14435968321E+03  0.00000000000E+00 0.  1.
         25    2    1    2    0    0  0.48294144595E+02  0.37712216838E+02 -0.49335865112E+02  0.14777182611E+03  0.12509176354E+03 0.  0.
          5    1    3    3  502    0 -0.29105373803E+02  0.29601222492E+02  0.17362864806E+02  0.45191776149E+02  0.41800000000E+01 0.  1.
         -5    1    3    3    0  502  0.77399518398E+02  0.81109943459E+01 -0.66698729918E+02  0.10258004996E+03  0.41800000000E+01 0.  1.
        -11    1    1    2    0    0 -0.26624323601E+02  0.23629273298E+02  0.30865739184E+02  0.47115719449E+02  0.00000000000E+00 0. -1.
         11    1    1    2    0    0 -0.21669820994E+02 -0.61341490136E+02 -0.96005371910E+01  0.65761157749E+02  0.00000000000E+00 0.  1.
</event>
<event>
 7    1  0.2533119E-009  0.1617895E+03  0.7561462E-02  0.1186691E+00
          4   -1    0    0  501    0  0.00000000000E+00  0.00000000000E+00  0.34016517650E+03  0.34016517650E+03  0.00000000000E+00 0.  1.
         -4   -1    0    0    0  501 -0.00000000000E+00 -0.00000000000E+00 -0.91200057930E+02  0.91200057930E+02  0.00000000000E+00 0. -1.
         25    2    1    2    0    0  0.50855605771E+02  0.12303464800E+03  0.86662287471E+02  0.20219176081E+03  0.12508932338E+03 0.  0.
          5    1    3    3  502    0 -0.89672796798E-02  0.12377276630E+03  0.33070126204E+02  0.12818269542E+03  0.41800000000E+01 0. -1.
         -5    1    3    3    0  502  0.50864573051E+02 -0.73811830523E+00  0.53592161268E+02  0.74009065388E+02  0.41800000000E+01 0. -1.
        -11    1    1    2    0    0 -0.54619282500E+02 -0.45554771233E+02  0.12331514544E+03  0.14235564020E+03  0.00000000000E+00 0.  1.
         11    1    1    2    0    0  0.37636767292E+01 -0.77479876764E+02  0.38987685657E+02  0.86817833414E+02  0.00000000000E+00 0. -1.
</event>
<event>
 7    1  0.2394257E-009  0.8432304E+02  0.7561462E-02  0.1317212E+00
         -2   -1    0    0    0  501 -0.00000000000E+00  0.00000000000E+00  0.75391847896E+02  0.75391847896E+02  0.00000000000E+00 0.  1.
          2   -1    0    0  501    0  0.00000000000E+00 -0.00000000000E+00 -0.39296687718E+03  0.39296687718E+03  0.00000000000E+00 0. -1.
         25    2    1    2    0    0  0.40030427138E+02 -0.20127068399E+02 -0.34388297953E+03  0.36866030820E+03  0.12508950895E+03 0.  0.
          5    1    3    3  502    0  0.73804448192E+02  0.14447982456E+02 -0.26971494795E+03  0.28003475913E+03  0.41800000000E+01 0.  1.
         -5    1    3    3    0  502 -0.33774021054E+02 -0.34575050855E+02 -0.74168031577E+02  0.88625549069E+02  0.41800000000E+01 0.  1.
        -11    1    1    2    0    0 -0.19669204364E+02  0.95021349054E+01 -0.31020911663E+02  0.37940283716E+02  0.00000000000E+00 0. -1.
         11    1    1    2    0    0 -0.20361222774E+02  0.10624933494E+02  0.57328861907E+02  0.61758133165E+02  0.00000000000E+00 0.  1.
</event>
<event>
 7    1  0.2394257E-009  0.1130571E+03  0.7561462E-02  0.1255011E+00
         -1   -1    0    0    0  501 -0.00000000000E+00  0.00000000000E+00  0.23371716054E+02  0.23371716054E+02  0.00000000000E+00 0.  1.
          1   -1    0    0  501    0  0.00000000000E+00 -0.00000000000E+00 -0.60557073578E+03  0.60557073578E+03  0.00000000000E+00 0. -1.
         25    2    1    2    0    0 -0.41851045167E+02  0.17578234476E+02 -0.27712550298E+03  0.30742050570E+03  0.12509323969E+03 0.  0.
          5    1    3    3  502    0 -0.83701212343E+02  0.11473542969E+02 -0.13716458427E+03  0.16114940495E+03  0.41800000000E+01 0. -1.
         -5    1    3    3    0  502  0.41850167175E+02  0.61046915077E+01 -0.13996091871E+03  0.14627110076E+03  0.41800000000E+01 0. -1.
        -11    1    1    2    0    0 -0.17718292208E+02 -0.33034258468E+02 -0.82879780244E+02  0.90962948966E+02  0.00000000000E+00 0. -1.
         11    1    1    2    0    0  0.59569337376E+02  0.15456023991E+02 -0.22219373650E+03  0.23055899716E+03  0.00000000000E+00 0.  1.
</event>
<event>
 7    1  0.2394257E-009  0.2480047E+03  0.7561462E-02  0.1114572E+00
         -1   -1    0    0    0  501 -0.00000000000E+00  0.00000000000E+00  0.58102184903E+02  0.58102184903E+02  0.00000000000E+00 0.  1.
          1   -1    0    0  501    0  0.00000000000E+00 -0.00000000000E+00 -0.15344314393E+04  0.15344314393E+04  0.00000000000E+00 0. -1.
         25    2    1    2    0    0 -0.16022478123E+03  0.16648486157E+03 -0.11625162255E+04  0.11918390423E+04  0.12508852250E+03 0.  0.
          5    1    3    3  502    0 -0.87194131306E+02  0.25398809404E+02 -0.25998064372E+03  0.27541845174E+03  0.41800000000E+01 0.  1.
         -5    1    3    3    0  502 -0.73030649928E+02  0.14108605217E+03 -0.90253558182E+03  0.91642059056E+03  0.41800000000E+01 0.  1.
        -11    1    1    2    0    0  0.84068970114E+02 -0.28863615890E+02 -0.14405401716E+03  0.16926978443E+03  0.00000000000E+00 0. -1.
         11    1    1    2    0    0  0.76155811119E+02 -0.13762124568E+03 -0.16975901166E+03  0.23142479744E+03  0.00000000000E+00 0.  1.
</event>
<event>
 7    1  0.3108458E-009  0.1083870E+03  0.7561462E-02  0.1263586E+00
         -2   -1    0    0    0  501 -0.00000000000E+00  0.00000000000E+00  0.92172100678E+02  0.92172100678E+02  0.00000000000E+00 0.  1.
          2   -1    0    0  501    0  0.00000000000E+00 -0.00000000000E+00 -0.20399910739E+03  0.20399910739E+03  0.00000000000E+00 0. -1.
         25    2    1    2    0    0  0.75998749078E+00  0.73752577355E+02 -0.10354608104E+03  0.17835282621E+03  0.12509164429E+03 0.  0.
          5    1    3    3  502    0 -0.94061186948E+01  0.10484352299E+03 -0.52814191032E+02  0.11784502771E+03  0.41800000000E+01 0. -1.
         -5    1    3    3    0  502  0.10166106186E+02 -0.31090945633E+02 -0.50731890008E+02  0.60507798499E+02  0.41800000000E+01 0. -1.
        -11    1    1    2    0    0 -0.11745943892E+02 -0.58410013914E+02 -0.46246552398E+02  0.75421751054E+02  0.00000000000E+00 0. -1.
         11    1    1    2    0    0  0.10985956402E+02 -0.15342563441E+02  0.37965626726E+02  0.42396630806E+02  0.00000000000E+00 0.  1.
</event>
<event>
 7    1  0.2394257E-009  0.1171374E+03  0.7561462E-02  0.1247896E+00
         -4   -1    0    0    0  501 -0.00000000000E+00  0.00000000000E+00  0.14233531612E+03  0.14233531612E+03  0.00000000000E+00 0.  1.
          4   -1    0    0  501    0  0.00000000000E+00 -0.00000000000E+00 -0.98756215767E+02  0.98756215767E+02  0.00000000000E+00 0. -1.
         25    2    1    2    0    0 -0.45458876870E+02  0.10444587517E+02  0.25134230832E+02  0.13584669989E+03  0.12508795872E+03 0.  0.
          5    1    3    3  502    0  0.29499213559E+02 -0.33664661214E+02 -0.90002616917E+00  0.44964379929E+02  0.41800000000E+01 0.  1.
         -5    1    3    3    0  502 -0.74958090429E+02  0.44109248731E+02  0.26034257001E+02  0.90882319964E+02  0.41800000000E+01 0.  1.
        -11    1    1    2    0    0  0.35271956194E+02 -0.50117865258E+02  0.19371343373E+02  0.64274102529E+02  0.00000000000E+00 0.  1.
         11    1    1    2    0    0  0.10186920676E+02  0.39673277741E+02 -0.92647384699E+00  0.40970729471E+02  0.00000000000E+00 0. -1.
</event>
<event>
 7    1  0.2394257E-009  0.1127047E+03  0.7561462E-02  0.1255642E+00
         -2   -1    0    0    0  501 -0.00000000000E+00  0.00000000000E+00  0.27674496450E+02  0.27674496450E+02  0.00000000000E+00 0.  1.
          2   -1    0    0  501    0  0.00000000000E+00 -0.00000000000E+00 -0.10418098936E+04  0.10418098936E+04  0.00000000000E+00 0. -1.
         25    2    1    2    0    0 -0.21171259943E+02  0.42892735886E+02 -0.91104713665E+03  0.92083752291E+03  0.12508736688E+03 0.  0.
          5    1    3    3  502    0  0.31045569490E+02 -0.20965878902E+02 -0.50900877193E+03  0.51040258401E+03  0.41800000000E+01 0. -1.
         -5    1    3    3    0  502 -0.52216829433E+02  0.63858614787E+02 -0.40203836472E+03  0.41043493890E+03  0.41800000000E+01 0. -1.
        -11    1    1    2    0    0  0.50095382996E+02 -0.54434738050E+02 -0.58767943855E+02  0.94479412197E+02  0.00000000000E+00 0.  1.
         11    1    1    2    0    0 -0.28924123053E+02  0.11542002164E+02 -0.44320316656E+02  0.54167454960E+02  0.00000000000E+00 0. -1.
</event>
<event>
 7    1  0.2394257E-009  0.1368965E+03  0.7561462E-02  0.1217567E+00
          3   -1    0    0  501    0  0.00000000000E+00  0.00000000000E+00  0.11899475865E+03  0.11899475865E+03  0.00000000000E+00 0. -1.
         -3   -1    0    0    0  501 -0.00000000000E+00 -0.00000000000E+00 -0.17633257032E+03  0.17633257032E+03  0.00000000000E+00 0.  1.
         25    2    1    2    0    0 -0.49775046459E+02  0.83569065021E+02 -0.14515084991E+02  0.15912285737E+03  0.12509217468E+03 0.  0.
          5    1    3    3  502    0 -0.44019568214E+01 -0.32600681857E+02  0.21403425942E+01  0.33230033823E+02  0.41800000000E+01 0.  1.
         -5    1    3    3    0  502 -0.45373089637E+02  0.11616974688E+03 -0.16655427585E+02  0.12589282355E+03  0.41800000000E+01 0.  1.
        -11    1    1    2    0    0  0.27699459283E+02  0.17135315607E+01 -0.39209089386E+02  0.48036953749E+02  0.00000000000E+00 0.  1.
         11    1    1    2    0    0  0.22075587176E+02 -0.85282596582E+02 -0.36136372913E+01  0.88167517847E+02  0.00000000000E+00 0. -1.
</event>
<event>
 7    1  0.2394257E-009  0.2480762E+03  0.7561462E-02  0.1114527E+00
          2   -1    0    0  501    0  0.00000000000E+00  0.00000000000E+00  0.61684297278E+03  0.61684297278E+03  0.00000000000E+00 0. -1.
         -2   -1    0    0    0  501 -0.00000000000E+00 -0.00000000000E+00 -0.10299602560E+03  0.10299602560E+03  0.00000000000E+00 0.  1.
         25    2    1    2    0    0 -0.28636108030E+02  0.22483982892E+03  0.27188423069E+03  0.37542602866E+03  0.12510272878E+03 0.  0.
          5    1    3    3  502    0 -0.75425554237E+02  0.16842092909E+03  0.20814365895E+03  0.27820114801E+03  0.41800000000E+01 0. -1.
         -5    1    3    3    0  502  0.46789446207E+02  0.56418899823E+02  0.63740571733E+02  0.97224880655E+02  0.41800000000E+01 0. -1.
        -11    1    1    2    0    0  0.47004567364E+02 -0.85183884148E+02  0.60017313741E+02  0.11431448474E+03  0.00000000000E+00 0.  1.
         11    1    1    2    0    0 -0.18368459334E+02 -0.13965594477E+03  0.18194540276E+03  0.23009848499E+03  0.00000000000E+00 0. -1.
</event>
<event>
 7    1  0.2394257E-009  0.7860010E+02  0.7561462E-02  0.1333072E+00
         -1   -1    0    0    0  501 -0.00000000000E+00  0.00000000000E+00  0.80755364034E+02  0.80755364034E+02  0.00000000000E+00 0.  1.
          1   -1    0    0  501    0  0.00000000000E+00 -0.00000000000E+00 -0.15722495061E+03  0.15722495061E+03  0.00000000000E+00 0. -1.
         25    2    1    2    0    0  0.21173071005E+02  0.69624228700E+01 -0.64578983620E+02  0.14252903242E+03  0.12508919093E+03 0.  0.
          5    1    3    3  502    0  0.44626747951E+02 -0.54209672213E+01 -0.93031455329E+02  0.10340820857E+03  0.41800000000E+01 0.  1.
         -5    1    3    3    0  502 -0.23453676947E+02  0.12383390091E+02  0.28452471709E+02  0.39120823851E+02  0.41800000000E+01 0.  1.
        -11    1    1    2    0    0 -0.52548754789E+02 -0.10628528565E+02  0.13079128494E+02  0.55185150643E+02  0.00000000000E+00 0.  1.
         11    1    1    2    0    0  0.31375683785E+02  0.36661056954E+01 -0.24969731450E+02  0.40266131583E+02  0.00000000000E+00 0. -1.
</event>
<event>
 7    1  0.2394257E-009  0.1080209E+03  0.7561462E-02  0.1264279E+00
         -3   -1    0    0    0  501 -0.00000000000E+00  0.00000000000E+00  0.28979419303E+03  0.28979419303E+03  0.00000000000E+00 0.  1.
          3   -1    0    0  501    0  0.00000000000E+00 -0.00000000000E+00 -0.50543779773E+02  0.50543779773E+02  0.00000000000E+00 0. -1.
         25    2    1    2    0    0 -0.43219950622E+02  0.28661019402E+02  0.11364070634E+03  0.17678192793E+03  0.12509285248E+03 0.  0.
          5    1    3    3  502    0 -0.39777371031E+02 -0.36408477260E+02  0.94254844137E+02  0.10867043989E+03  0.41800000000E+01 0. -1.
         -5    1    3    3    0  502 -0.34425795904E+01  0.65069496662E+02  0.19385862200E+02  0.68111488042E+02  0.41800000000E+01 0. -1.
        -11    1    1    2    0    0  0.48214342874E+02 -0.53096556101E+02  0.11688206370E+03  0.13713235921E+03  0.00000000000E+00 0.  1.
         11    1    1    2    0    0 -0.49943922520E+01  0.24435536700E+02  0.87276432271E+01  0.26423685664E+02  0.00000000000E+00 0. -1.
</event>
<event>
 7    1  0.2394257E-009  0.1132025E+03  0.7561462E-02  0.1254752E+00
          1   -1    0    0  501    0  0.00000000000E+00  0.00000000000E+00  0.69611884101E+03  0.69611884101E+03  0.00000000000E+00 0. -1.
         -1   -1    0    0    0  501 -0.00000000000E+00 -0.00000000000E+00 -0.19877783052E+02  0.19877783052E+02  0.00000000000E+00 0.  1.
         25    2    1    2    0    0  0.61629295703E+01  0.43333810206E+02  0.35511544557E+03  0.37903909665E+03  0.12509139179E+03 0.  0.
          5    1    3    3  502    0  0.54822141654E+02  0.59481010303E+02  0.21033470655E+03  0.22539214490E+03  0.41800000000E+01 0.  1.
         -5    1    3    3    0  502 -0.48659212084E+02 -0.16147200097E+02  0.14478073901E+03  0.15364695175E+03  0.41800000000E+01 0.  1.
        -11    1    1    2    0    0  0.37338903478E+02 -0.86422020400E+01  0.20032958465E+03  0.20396280018E+03  0.00000000000E+00 0.  1.
         11    1    1    2    0    0 -0.43501833048E+02 -0.34691608166E+02  0.12079602773E+03  0.13299472723E+03  0.00000000000E+00 0. -1.
</event>
<event>
 7    1  0.2394257E-009  0.8113577E+02  0.7561462E-02  0.1325859E+00
          1   -1    0    0  501    0  0.00000000000E+00  0.00000000000E+00  0.17408105204E+03  0.17408105204E+03  0.00000000000E+00 0. -1.
         -1   -1    0    0    0  501 -0.00000000000E+00 -0.00000000000E+00 -0.77446859448E+02  0.77446859448E+02  0.00000000000E+00 0.  1.
         25    2    1    2    0    0 -0.95812802898E+01 -0.35088816031E+02  0.75097265988E+02  0.15036882791E+03  0.12509260213E+03 0.  0.
          5    1    3    3  502    0 -0.35808008928E+02 -0.36022542504E+02  0.10108132088E+03  0.11320222128E+03  0.41800000000E+01 0.  1.
         -5    1    3    3    0  502  0.26226728638E+02  0.93372647251E+00 -0.25984054891E+02  0.37166606635E+02  0.41800000000E+01 0.  1.
        -11    1    1    2    0    0 -0.11999091188E+02 -0.21249637400E+02  0.31672502115E+02  0.39983404923E+02  0.00000000000E+00 0. -1.
         11    1    1    2    0    0  0.21580371478E+02  0.56338453431E+02 -0.10135575506E+02  0.61175678656E+02  0.00000000000E+00 0.  1.
</event>
<event>
 7    1  0.2394257E-009  0.6667195E+02  0.7561462E-02  0.1371790E+00
         -1   -1    0    0    0  501 -0.00000000000E+00  0.00000000000E+00  0.46698573260E+03  0.46698573260E+03  0.00000000000E+00 0.  1.
          1   -1    0    0  501    0  0.00000000000E+00 -0.00000000000E+00 -0.28905217146E+02  0.28905217146E+02  0.00000000000E+00 0. -1.
         25    2    1    2    0    0  0.16923907902E+02  0.23271409602E+02  0.31294805451E+03  0.33824780537E+03  0.12508843214E+03 0.  0.
          5    1    3    3  502    0 -0.12915597381E+02  0.16250072646E+02  0.30575135618E+03  0.30648367285E+03  0.41800000000E+01 0. -1.
         -5    1    3    3    0  502  0.29839505283E+02  0.70213369553E+01  0.71966983291E+01  0.31764132524E+02  0.41800000000E+01 0. -1.
        -11    1    1    2    0    0 -0.45883584277E+02 -0.31976197876E+01  0.26903447691E+02  0.53285303566E+02  0.00000000000E+00 0. -1.
         11    1    1    2    0    0  0.28959676375E+02 -0.20073789814E+02  0.98229013255E+02  0.10435784081E+03  0.00000000000E+00 0.  1.
</event>
<event>
 7    1  0.2394257E-009  0.1001666E+03  0.7561462E-02  0.1279946E+00
          1   -1    0    0  501    0  0.00000000000E+00  0.00000000000E+00  0.27567975076E+03  0.27567975076E+03  0.00000000000E+00 0. -1.
         -1   -1    0    0    0  501 -0.00000000000E+00 -0.00000000000E+00 -0.85141086555E+02  0.85141086555E+02  0.00000000000E+00 0.  1.
         25    2    1    2    0    0  0.14070400680E+02 -0.21150534813E+02  0.22660359118E+03  0.26008096201E+03  0.12509035920E+03 0.  0.
          5    1    3    3  502    0  0.62613870036E+02  0.75461396049E+01  0.16380365741E+03  0.17557491713E+03  0.41800000000E+01 0. -1.
         -5    1    3    3    0  502 -0.48543469357E+02 -0.28696674417E+02  0.62799933775E+02  0.84506044884E+02  0.41800000000E+01 0. -1.
        -11    1    1    2    0    0  0.12902012823E+02 -0.24424885797E+02  0.11151402685E+02  0.29789104769E+02  0.00000000000E+00 0. -1.
         11    1    1    2    0    0 -0.26972413503E+02  0.45575420610E+02 -0.47216329658E+02  0.70950770541E+02  0.00000000000E+00 0.  1.
</event>
<event>
 7    1  0.2394257E-009  0.1173588E+03  0.7561462E-02  0.1247519E+00
          3   -1    0    0  501    0  0.00000000000E+00  0.00000000000E+00  0.43607440545E+02  0.43607440545E+02  0.00000000000E+00 0. -1.
         -3   -1    0    0    0  501 -0.00000000000E+00 -0.00000000000E+00 -0.42681518022E+03  0.42681518022E+03  0.00000000000E+00 0.  1.
         25    2    1    2    0    0  0.41504132612E+02  0.66907581402E+02 -0.16488895566E+03  0.22143737688E+03  0.12508767609E+03 0.  0.
          5    1    3    3  502    0  0.68446622810E+01  0.78985220159E+02 -0.16650230605E+03  0.18446139088E+03  0.41800000000E+01 0. -1.
         -5    1    3    3    0  502  0.34659470330E+02 -0.12077638757E+02  0.16133503878E+01  0.36975986005E+02  0.41800000000E+01 0. -1.
        -11    1    1    2    0    0 -0.52018474516E+02 -0.83714960415E+02 -0.19407349665E+03  0.21766634649E+03  0.00000000000E+00 0.  1.
         11    1    1    2    0    0  0.10514341905E+02  0.16807379014E+02 -0.24245287358E+02  0.31318897396E+02  0.00000000000E+00 0. -1.
</event>
<event>
 7    1  0.2394257E-009  0.9580213E+02  0.7561462E-02  0.1289380E+00
         -1   -1    0    0    0  501 -0.00000000000E+00  0.00000000000E+00  0.11839194681E+02  0.11839194681E+02  0.00000000000E+00 0.  1.
          1   -1    0    0  501    0  0.00000000000E+00 -0.00000000000E+00 -0.11072145003E+04  0.11072145003E+04  0.00000000000E+00 0. -1.
         25    2    1    2    0    0 -0.17007576659E+01 -0.38118680401E+02 -0.66261844351E+03  0.67540268417E+03  0.12509859203E+03 0.  0.
          5    1    3    3  502    0  0.69870269796E+01  0.30304979892E+02 -0.46489198747E+03  0.46594982859E+03  0.41800000000E+01 0.  1.
         -5    1    3    3    0  502 -0.86877846455E+01 -0.68423660293E+02 -0.19772645604E+03  0.20945285558E+03  0.41800000000E+01 0.  1.
        -11    1    1    2    0    0 -0.26453598739E+02 -0.15430908709E+02 -0.78448446084E+02  0.84214396173E+02  0.00000000000E+00 0.  1.
         11    1    1    2    0    0  0.28154356405E+02  0.53549589111E+02 -0.35430841604E+03  0.35943661465E+03  0.00000000000E+00 0. -1.
</event>
<event>
 7    1  0.2394257E-009  0.1446525E+03  0.7561462E-02  0.1207202E+00
         -1   -1    0    0    0  501 -0.00000000000E+00  0.00000000000E+00  0.90821230731E+02  0.90821230731E+02  0.00000000000E+00 0.  1.
          1   -1    0    0  501    0  0.00000000000E+00 -0.00000000000E+00 -0.74821735836E+03  0.74821735836E+03  0.00000000000E+00 0. -1.
         25    2    1    2    0    0 -0.65317411232E+02  0.10238926880E+03 -0.66019186970E+03  0.68282579316E+03  0.12509129630E+03 0.  0.
          5    1    3    3  502    0  0.37891647575E+01  0.54440656523E+02 -0.82350594551E+02  0.98879905315E+02  0.41800000000E+01 0.  1.
         -5    1    3    3    0  502 -0.69106575989E+02  0.47948612273E+02 -0.57784127515E+03  0.58394588785E+03  0.41800000000E+01 0.  1.
        -11    1    1    2    0    0  0.64545692310E+02 -0.11812142477E+03  0.16138275433E+02  0.13557013432E+03  0.00000000000E+00 0.  1.
         11    1    1    2    0    0  0.77171892185E+00  0.15732155978E+02 -0.13342533363E+02  0.20642661610E+02  0.00000000000E+00 0. -1.
</event>
<event>
 7    1  0.2394257E-009  0.7765527E+02  0.7561462E-02  0.1335840E+00
          1   -1    0    0  501    0  0.00000000000E+00  0.00000000000E+00  0.11829481108E+03  0.11829481108E+03  0.00000000000E+00 0. -1.
         -1   -1    0    0    0  501 -0.00000000000E+00 -0.00000000000E+00 -0.10921935337E+03  0.10921935337E+03  0.00000000000E+00 0.  1.
         25    2    1    2    0    0  0.29875000585E+02  0.44431550921E+01 -0.22425746044E+02  0.13062910504E+03  0.12509513065E+03 0.  0.
          5    1    3    3  502    0 -0.32683294053E+02  0.99142633214E+01 -0.50990398843E+02  0.61514091893E+02  0.41800000000E+01 0. -1.
         -5    1    3    3    0  502  0.62558294637E+02 -0.54711082292E+01  0.28564652798E+02  0.69115013150E+02  0.41800000000E+01 0. -1.
        -11    1    1    2    0    0 -0.15589428343E+02  0.22556664244E+02  0.52903657553E+02  0.59587166071E+02  0.00000000000E+00 0. -1.
         11    1    1    2    0    0 -0.14285572242E+02 -0.26999819336E+02 -0.21402453805E+02  0.37297893337E+02  0.00000000000E+00 0.  1.
</event>
<event>
 7    1  0.2394257E-009  0.7113795E+02  0.7561462E-02  0.1356266E+00
          2   -1    0    0  501    0  0.00000000000E+00  0.00000000000E+00  0.57161276336E+02  0.57161276336E+02  0.00000000000E+00 0.  1.
         -2   -1    0    0    0  501 -0.00000000000E+00 -0.00000000000E+00 -0.24384751396E+03  0.24384751396E+03  0.00000000000E+00 0. -1.
         25    2    1    2    0    0 -0.42236423751E+02 -0.62544834400E+01 -0.79036787493E+02  0.15400218933E+03  0.12508727547E+03 0.  0.
          5    1    3    3  502    0 -0.15762200722E+02 -0.46775345785E+02  0.11860190163E+02  0.50936396178E+02  0.41800000000E+01 0. -1.
         -5    1    3    3    0  502 -0.26474223029E+02  0.40520862345E+02 -0.90896977656E+02  0.10306579315E+03  0.41800000000E+01 0. -1.
        -11    1    1    2    0    0  0.93975356455E+01  0.63068943628E+01  0.15703708050E+02  0.19357092737E+02  0.00000000000E+00 0.  1.
         11    1    1    2    0    0  0.32838888106E+02 -0.52410922831E-01 -0.12335315818E+03  0.12764950823E+03  0.00000000000E+00 0. -1.
</event>
<event>
 7    1  0.2394257E-009  0.1128908E+03  0.7561462E-02  0.1255308E+00
         -1   -1    0    0    0  501 -0.00000000000E+00  0.00000000000E+00  0.69271689392E+02  0.69271689392E+02  0.00000000000E+00 0.  1.
          1   -1    0    0  501    0  0.00000000000E+00 -0.00000000000E+00 -0.29716643607E+03  0.29716643607E+03  0.00000000000E+00 0. -1.
         25    2    1    2    0    0 -0.28426129793E+02 -0.36063638534E+02 -0.22772578129E+03  0.26384857535E+03  0.12509359845E+03 0.  0.
          5    1    3    3  502    0  0.42727537309E+02 -0.43272768903E+02 -0.91712895971E+02  0.11012221692E+03  0.41800000000E+01 0.  1.
         -5    1    3    3    0  502 -0.71153667103E+02  0.72091303695E+01 -0.13601288532E+03  0.15372635843E+03  0.41800000000E+01 0.  1.
        -11    1    1    2    0    0  0.12003028468E+00  0.57611081246E+02 -0.21053959329E+02  0.61337755852E+02  0.00000000000E+00 0. -1.
         11    1    1    2    0    0  0.28306099509E+02 -0.21547442712E+02  0.20884993946E+02  0.41251794251E+02  0.00000000000E+00 0.  1.
</event>
<event>
 7    1  0.3002198E-009  0.1660667E+03  0.7561462E-02  0.1182013E+00
         -2   -1    0    0    0  501 -0.00000000000E+00  0.00000000000E+00  0.36943859093E+02  0.36943859093E+02  0.00000000000E+00 0. -1.
          2   -1    0    0  501    0  0.00000000000E+00 -0.00000000000E+00 -0.87164703915E+03  0.87164703915E+03  0.00000000000E+00 0.  1.
         25    2    1    2    0    0  0.98652450876E+02  0.99192723117E+02 -0.51003348709E+03  0.54346326407E+03  0.12508660623E+03 0.  0.
          5    1    3    3  502    0  0.11330532045E+03  0.10548709605E+03 -0.35185810852E+03  0.38443103934E+03  0.41800000000E+01 0.  1.
         -5    1    3    3    0  502 -0.14652869574E+02 -0.62943729347E+01 -0.15817537857E+03  0.15903222473E+03  0.41800000000E+01 0.  1.
        -11    1    1    2    0    0 -0.44576877246E+02  0.35083704230E+01 -0.50788551285E+02  0.67667448523E+02  0.00000000000E+00 0. -1.
         11    1    1    2    0    0 -0.54075573631E+02 -0.10270109354E+03 -0.27388114168E+03  0.29746018565E+03  0.00000000000E+00 0.  1.
</event>
<event>
 7    1  0.2394257E-009  0.1462562E+03  0.7561462E-02  0.1205150E+00
          2   -1    0    0  501    0  0.00000000000E+00  0.00000000000E+00  0.89063169650E+02  0.89063169650E+02  0.00000000000E+00 0.  1.
         -2   -1    0    0    0  501 -0.00000000000E+00 -0.00000000000E+00 -0.27760258149E+03  0.27760258149E+03  0.00000000000E+00 0. -1.
         25    2    1    2    0    0 -0.58249064540E+02  0.86068216221E+02 -0.57815799575E+02  0.17259877324E+03  0.12508788302E+03 0.  0.
          5    1    3    3  502    0 -0.64611122582E+02  0.11534765692E+03 -0.49362248345E+02  0.14118704997E+03  0.41800000000E+01 0.  1.
         -5    1    3    3    0  502  0.63620580421E+01 -0.29279440697E+02 -0.84535512297E+01  0.31411723265E+02  0.41800000000E+01 0.  1.
        -11    1    1    2    0    0  0.72125610479E+02 -0.41299901328E+02 -0.12002400163E+03  0.14599159737E+03  0.00000000000E+00 0. -1.
         11    1    1    2    0    0 -0.13876545939E+02 -0.44768314893E+02 -0.10699610637E+02  0.48075380532E+02  0.00000000000E+00 0.  1.
</event>
<event>
 7    1  0.2394257E-009  0.1007810E+03  0.7561462E-02  0.1278662E+00
          2   -1    0    0  501    0  0.00000000000E+00  0.00000000000E+00  0.70191136053E+03  0.70191136053E+03  0.00000000000E+00 0. -1.
         -2   -1    0    0    0  501 -0.00000000000E+00 -0.00000000000E+00 -0.18998493400E+02  0.18998493400E+02  0.00000000000E+00 0.  1.
         25    2    1    2    0    0 -0.63060780473E+01  0.27285984733E+02  0.47875162351E+03  0.49561670366E+03  0.12509399806E+03 0.  0.
          5    1    3    3  502    0 -0.53267079794E+02  0.30802963580E+02  0.39197130525E+03  0.39679362507E+03  0.41800000000E+01 0.  1.
         -5    1    3    3    0  502  0.46961001747E+02 -0.35169788471E+01  0.86780318260E+02  0.98823078593E+02  0.41800000000E+01 0.  1.
        -11    1    1    2    0    0 -0.38048180258E+02  0.41089066799E+01  0.59315683614E+02  0.70589641291E+02  0.00000000000E+00 0.  1.
         11    1    1    2    0    0  0.44354258305E+02 -0.31394891413E+02  0.14484556000E+03  0.15470350897E+03  0.00000000000E+00 0. -1.
</event>
<event>
 7    1  0.2394257E-009  0.9978046E+02  0.7561462E-02  0.1280758E+00
         -2   -1    0    0    0  501 -0.00000000000E+00  0.00000000000E+00  0.69342636805E+02  0.69342636805E+02  0.00000000000E+00 0.  1.
          2   -1    0    0  501    0  0.00000000000E+00 -0.00000000000E+00 -0.20043373766E+03  0.20043373766E+03  0.00000000000E+00 0. -1.
         25    2    1    2    0    0 -0.42470193708E+02 -0.14949086022E+02 -0.79531384437E+02  0.15491830254E+03  0.12508895565E+03 0.  0.
          5    1    3    3  502    0 -0.81130781037E+02  0.16491171776E+02 -0.47671651489E+02  0.95625420960E+02  0.41800000000E+01 0.  1.
         -5    1    3    3    0  502  0.38660587328E+02 -0.31440257798E+02 -0.31859732948E+02  0.59292881584E+02  0.41800000000E+01 0.  1.
        -11    1    1    2    0    0  0.67882518453E+00  0.23908886923E+02  0.20217934843E+02  0.31318693568E+02  0.00000000000E+00 0.  1.
         11    1    1    2    0    0  0.41791368524E+02 -0.89598009009E+01 -0.71777651264E+02  0.83539378356E+02  0.00000000000E+00 0. -1.
</event>
<event>
 7    1  0.2394257E-009  0.1290176E+03  0.7561462E-02  0.1228921E+00
         -2   -1    0    0    0  501 -0.00000000000E+00  0.00000000000E+00  0.24557531544E+02  0.24557531544E+02  0.00000000000E+00 0.  1.
          2   -1    0    0  501    0  0.00000000000E+00 -0.00000000000E+00 -0.82721436022E+03  0.82721436022E+03  0.00000000000E+00 0. -1.
         25    2    1    2    0    0 -0.16863177246E+02  0.86504819978E+02 -0.51376362544E+03  0.53606723602E+03  0.12509023973E+03 0.  0.
          5    1    3    3  502    0 -0.54598751241E+02  0.74989676834E+02 -0.20856782641E+03  0.22830349512E+03  0.41800000000E+01 0.  1.
         -5    1    3    3    0  502  0.37735573995E+02  0.11515143143E+02 -0.30519579903E+03  0.30776374090E+03  0.41800000000E+01 0.  1.
        -11    1    1    2    0    0 -0.34181900045E+02 -0.14234863202E+02 -0.62627616554E+02  0.72754738515E+02  0.00000000000E+00 0.  1.
         11    1    1    2    0    0  0.51045077291E+02 -0.72269956776E+02 -0.22626558668E+03  0.24294991723E+03  0.00000000000E+00 0. -1.
</event>
<event>
 7    1  0.2841775E-009  0.1207973E+03  0.7561462E-02  0.1241787E+00
          2   -1    0    0  501    0  0.00000000000E+00  0.00000000000E+00  0.92845971971E+03  0.92845971971E+03  0.00000000000E+00 0. -1.
         -2   -1    0    0    0  501 -0.00000000000E+00 -0.00000000000E+00 -0.31280374252E+02  0.31280374252E+02  0.00000000000E+00 0.  1.
         25    2    1    2    0    0  0.42465416602E+02 -0.10497810154E+03  0.65936461917E+03  0.68061283092E+03  0.12509360971E+03 0.  0.
          5    1    3    3  502    0  0.23934563632E+02 -0.42556743428E+02  0.55745745547E+03  0.55960720760E+03  0.41800000000E+01 0. -1.
         -5    1    3    3    0  502  0.18530852970E+02 -0.62421358109E+02  0.10190716370E+03  0.12100562332E+03  0.41800000000E+01 0. -1.
        -11    1    1    2    0    0 -0.57036338545E+02  0.77317882212E+02  0.22622928973E+03  0.24578626966E+03  0.00000000000E+00 0.  1.
         11    1    1    2    0    0  0.14570921944E+02  0.27660219325E+02  0.11585436565E+02  0.33340993383E+02  0.00000000000E+00 0. -1.
</event>
<event>
 7    1  0.2523266E-009  0.2060974E+03  0.7561462E-02  0.1144694E+00
         -2   -1    0    0    0  501 -0.00000000000E+00  0.00000000000E+00  0.13578403052E+03  0.13578403052E+03  0.00000000000E+00 0.  1.
          2   -1    0    0  501    0  0.00000000000E+00 -0.00000000000E+00 -0.44056326841E+03  0.44056326841E+03  0.00000000000E+00 0. -1.
         25    2    1    2    0    0  0.92714473590E+02  0.16333960512E+03 -0.28939827332E+03  0.36698073098E+03  0.12509075145E+03 0.  0.
          5    1    3    3  502    0  0.74987687243E+02  0.30392573556E+02 -0.58540875985E+02  0.99956832315E+02  0.41800000000E+01 0.  1.
         -5    1    3    3    0  502  0.17726786347E+02  0.13294703156E+03 -0.23085739733E+03  0.26702389867E+03  0.41800000000E+01 0.  1.
        -11    1    1    2    0    0 -0.10875808290E+02 -0.77970340562E+02 -0.40403862276E+02  0.88488017834E+02  0.00000000000E+00 0. -1.
         11    1    1    2    0    0 -0.81838665300E+02 -0.85369264555E+02  0.25022897711E+02  0.12087855012E+03  0.00000000000E+00 0.  1.
</event>
<event>
 7    1  0.2394257E-009  0.1969603E+03  0.7561462E-02  0.1152329E+00
          1   -1    0    0  501    0  0.00000000000E+00  0.00000000000E+00  0.11916694140E+04  0.11916694140E+04  0.00000000000E+00 0. -1.
         -1   -1    0    0    0  501 -0.00000000000E+00 -0.00000000000E+00 -0.38007198533E+02  0.38007198533E+02  0.00000000000E+00 0.  1.
         25    2    1    2    0    0  0.74747940406E+02 -0.15709343157E+03  0.77132016561E+03  0.80053040410E+03  0.12509408126E+03 0.  0.
          5    1    3    3  502    0  0.57374021904E+02 -0.17484210732E+03  0.72273787886E+03  0.74580765269E+03  0.41800000000E+01 0.  1.
         -5    1    3    3    0  502  0.17373918501E+02  0.17748675748E+02  0.48582286758E+02  0.54722751407E+02  0.41800000000E+01 0.  1.
        -11    1    1    2    0    0 -0.30676267334E+02  0.12856157265E+03  0.32779240001E+03  0.35343594730E+03  0.00000000000E+00 0. -1.
         11    1    1    2    0    0 -0.44071673072E+02  0.28531858929E+02  0.54549649806E+02  0.75710261096E+02  0.00000000000E+00 0.  1.
</event>
<event>
 7    1  0.2394257E-009  0.2112564E+03  0.7561462E-02  0.1140575E+00
         -2   -1    0    0    0  501 -0.00000000000E+00  0.00000000000E+00  0.13601064613E+03  0.13601064613E+03  0.00000000000E+00 0.  1.
          2   -1    0    0  501    0  0.00000000000E+00 -0.00000000000E+00 -0.50375464979E+03  0.50375464979E+03  0.00000000000E+00 0. -1.
         25    2    1    2    0    0 -0.13972413790E+03  0.14880004060E+03 -0.38873087691E+02  0.24253210966E+03  0.12508565255E+03 0.  0.
          5    1    3    3  502    0 -0.37530515152E+02  0.81474647161E+02  0.38479213690E+02  0.97697389852E+02  0.41800000000E+01 0. -1.
         -5    1    3    3    0  502 -0.10219362275E+03  0.67325393437E+02 -0.77352301381E+02  0.14483471981E+03  0.41800000000E+01 0. -1.
        -11    1    1    2    0    0  0.29396783249E+02 -0.66225624211E+02 -0.18170373261E+03  0.19561761325E+03  0.00000000000E+00 0. -1.
         11    1    1    2    0    0  0.11032735466E+03 -0.82574416388E+02 -0.14716718335E+03  0.20161557302E+03  0.00000000000E+00 0.  1.
</event>
<event>
 7    1  0.2593171E-009  0.1414427E+03  0.7561462E-02  0.1211401E+00
          1   -1    0    0  501    0  0.00000000000E+00  0.00000000000E+00  0.10531069009E+04  0.10531069009E+04  0.00000000000E+00 0. -1.
         -1   -1    0    0    0  501 -0.00000000000E+00 -0.00000000000E+00 -0.21985241423E+02  0.21985241423E+02  0.00000000000E+00 0.  1.
         25    2    1    2    0    0 -0.81439585515E+02 -0.68353442679E+02  0.53311135673E+03  0.55781678546E+03  0.12508896136E+03 0.  0.
          5    1    3    3  502    0  0.17483794553E+02  0.23147026079E+02  0.10031840765E+03  0.10451183283E+03  0.41800000000E+01 0.  1.
         -5    1    3    3    0  502 -0.98923380067E+02 -0.91500468758E+02  0.43279294908E+03  0.45330495264E+03  0.41800000000E+01 0.  1.
        -11    1    1    2    0    0  0.86580503910E+01  0.39550443861E+02  0.60363053158E+02  0.72683544442E+02  0.00000000000E+00 0.  1.
         11    1    1    2    0    0  0.72781535124E+02  0.28802998818E+02  0.43764724960E+03  0.44459181243E+03  0.00000000000E+00 0. -1.
</event>
<event>
 7    1  0.2394257E-009  0.1243473E+03  0.7561462E-02  0.1236093E+00
         -2   -1    0    0    0  501 -0.00000000000E+00  0.00000000000E+00  0.35703625175E+02  0.35703625175E+02  0.00000000000E+00 0.  1.
          2   -1    0    0  501    0  0.00000000000E+00 -0.00000000000E+00 -0.74533892610E+03  0.74533892610E+03  0.00000000000E+00 0. -1.
         25    2    1    2    0    0  0.68340620833E+02 -0.10105189972E+03 -0.39190230287E+03  0.42908815766E+03  0.12508918881E+03 0.  0.
          5    1    3    3  502    0  0.19273969283E+02 -0.58020490300E+02 -0.44879877977E+02  0.75957481750E+02  0.41800000000E+01 0. -1.
         -5    1    3    3    0  502  0.49066651550E+02 -0.43031409418E+02 -0.34702242489E+03  0.35313067591E+03  0.41800000000E+01 0. -1.
        -11    1    1    2    0    0 -0.43966520841E+02  0.67133657711E+02 -0.29215716582E+03  0.30297820465E+03  0.00000000000E+00 0.  1.
         11    1    1    2    0    0 -0.24374099992E+02  0.33918242006E+02 -0.25575832238E+02  0.48976188968E+02  0.00000000000E+00 0. -1.
</event>
<event>
 7    1  0.2394257E-009  0.1100254E+03  0.7561462E-02  0.1260523E+00
          1   -1    0    0  501    0  0.00000000000E+00  0.00000000000E+00  0.18562216039E+03  0.18562216039E+03  0.00000000000E+00 0. -1.
         -1   -1    0    0    0  501 -0.00000000000E+00 -0.00000000000E+00 -0.75509709615E+02  0.75509709615E+02  0.00000000000E+00 0.  1.
         25    2    1    2    0    0  0.47959788877E+02  0.15359548431E+02  0.41693665131E+02  0.14114443367E+03  0.12508929758E+03 0.  0.
          5    1    3    3  502    0  0.64036490640E+02  0.57605069438E+02  0.41612978638E+02  0.95750344906E+02  0.41800000000E+01 0.  1.
         -5    1    3    3    0  502 -0.16076701763E+02 -0.42245521007E+02  0.80686492612E-01  0.45394088768E+02  0.41800000000E+01 0.  1.
        -11    1    1    2    0    0 -0.26116332531E+02  0.28969090741E+02  0.57331020699E+02  0.69340586799E+02  0.00000000000E+00 0.  1.
         11    1    1    2    0    0 -0.21843456346E+02 -0.44328639172E+02  0.11087764944E+02  0.50646849531E+02  0.00000000000E+00 0. -1.
</event>
<event>
 7    1  0.2394257E-009  0.2415225E+03  0.7561462E-02  0.1118783E+00
         -1   -1    0    0    0  501 -0.00000000000E+00  0.00000000000E+00  0.20591422765E+03  0.20591422765E+03  0.00000000000E+00 0.  1.
          1   -1    0    0  501    0  0.00000000000E+00 -0.00000000000E+00 -0.30564607616E+03  0.30564607616E+03  0.00000000000E+00 0. -1.
         25    2    1    2    0    0  0.16081571223E+03 -0.15451946855E+03 -0.87102299265E+02  0.27013352685E+03  0.12508937736E+03 0.  0.
          5    1    3    3  502    0  0.60711558674E+02  0.33403531180E+01  0.60430896916E+01  0.61245756168E+02  0.41800000000E+01 0.  1.
         -5    1    3    3    0  502  0.10010415355E+03 -0.15785982166E+03 -0.93145388957E+02  0.20888777068E+03  0.41800000000E+01 0.  1.
        -11    1    1    2    0    0 -0.56380289422E+02  0.10580471467E+03 -0.33122666665E+02  0.12438040734E+03  0.00000000000E+00 0. -1.
         11    1    1    2    0    0 -0.10443542281E+03  0.48714753873E+02  0.20493117424E+02  0.11704636963E+03  0.00000000000E+00 0.  1.
</event>
<event>
 7    1  0.2394257E-009  0.1831211E+03  0.7561462E-02  0.1164816E+00
          1   -1    0    0  501    0  0.00000000000E+00  0.00000000000E+00  0.47669525062E+03  0.47669525062E+03  0.00000000000E+00 0. -1.
         -1   -1    0    0    0  501 -0.00000000000E+00 -0.00000000000E+00 -0.13658308492E+03  0.13658308492E+03  0.00000000000E+00 0.  1.
         25    2    1    2    0    0 -0.13839616927E+02 -0.15990132710E+03  0.37192889634E+03  0.42395514610E+03  0.12508753960E+03 0.  0.
          5    1    3    3  502    0 -0.46050791291E+02 -0.12842905047E+03  0.34569897263E+03  0.37167182899E+03  0.41800000000E+01 0.  1.
         -5    1    3    3    0  502  0.32211174364E+02 -0.31472276631E+02  0.26229923709E+02  0.52283317110E+02  0.41800000000E+01 0.  1.
        -11    1    1    2    0    0  0.22463717427E+02 -0.18445413890E+01  0.52895067519E+01  0.23151669816E+02  0.00000000000E+00 0.  1.
         11    1    1    2    0    0 -0.86241005002E+01  0.16174586849E+03 -0.37106237389E+02  0.16617151963E+03  0.00000000000E+00 0. -1.
</event>
<event>
 7    1  0.2394257E-009  0.8583163E+02  0.7561462E-02  0.1313272E+00
          1   -1    0    0  501    0  0.00000000000E+00  0.00000000000E+00  0.33893392259E+02  0.33893392259E+02  0.00000000000E+00 0. -1.
         -1   -1    0    0    0  501 -0.00000000000E+00 -0.00000000000E+00 -0.49776812034E+03  0.49776812034E+03  0.00000000000E+00 0.  1.
         25    2    1    2    0    0  0.27171452862E+02  0.23931010425E+02 -0.38227323268E+03  0.40384206640E+03  0.12507841164E+03 0.  0.
          5    1    3    3  502    0  0.51032422854E+02  0.59971815795E+02 -0.17320071175E+03  0.19030734569E+03  0.41800000000E+01 0.  1.
         -5    1    3    3    0  502 -0.23860969992E+02 -0.36040805370E+02 -0.20907252093E+03  0.21353472071E+03  0.41800000000E+01 0.  1.
        -11    1    1    2    0    0  0.52140814206E+00 -0.21582562561E+02 -0.94675395306E+02  0.97105660750E+02  0.00000000000E+00 0.  1.
         11    1    1    2    0    0 -0.27692861004E+02 -0.23484478637E+01  0.13073899906E+02  0.30713785451E+02  0.00000000000E+00 0. -1.
</event>
<event>
 7    1  0.2394257E-009  0.9829623E+02  0.7561462E-02  0.1283920E+00
         -2   -1    0    0    0  501 -0.00000000000E+00  0.00000000000E+00  0.26962770705E+02  0.26962770705E+02  0.00000000000E+00 0.  1.
          2   -1    0    0  501    0  0.00000000000E+00 -0.00000000000E+00 -0.83267337546E+03  0.83267337546E+03  0.00000000000E+00 0. -1.
         25    2    1    2    0    0  0.42768726528E+02 -0.31566464852E+02 -0.18504992815E+03  0.22960086053E+03  0.12508986201E+03 0.  0.
          5    1    3    3  502    0  0.69783456493E+00 -0.44042988513E+02 -0.17985221835E+03  0.18521491478E+03  0.41800000000E+01 0. -1.
         -5    1    3    3    0  502  0.42070891963E+02  0.12476523661E+02 -0.51977097946E+01  0.44385945753E+02  0.41800000000E+01 0. -1.
        -11    1    1    2    0    0 -0.10275616395E+01  0.58551936785E+02 -0.33038583229E+03  0.33553566631E+03  0.00000000000E+00 0. -1.
         11    1    1    2    0    0 -0.41741164889E+02 -0.26985471934E+02 -0.29027484432E+03  0.29449961933E+03  0.00000000000E+00 0.  1.
</event>
<event>
 7    1  0.2394257E-009  0.6036187E+02  0.7561462E-02  0.1396319E+00
         -2   -1    0    0    0  501 -0.00000000000E+00  0.00000000000E+00  0.17480756147E+02  0.17480756147E+02  0.00000000000E+00 0.  1.
          2   -1    0    0  501    0  0.00000000000E+00 -0.00000000000E+00 -0.67990025333E+03  0.67990025333E+03  0.00000000000E+00 0. -1.
         25    2    1    2    0    0 -0.18248406889E+02 -0.10291268541E+02 -0.38618469844E+03  0.40647935600E+03  0.12509169033E+03 0.  0.
          5    1    3    3  502    0  0.66023377255E+01  0.74495834973E+01  0.64902269987E+01  0.12596928364E+02  0.41800000000E+01 0.  1.
         -5    1    3    3    0  502 -0.24850744615E+02 -0.17740852038E+02 -0.39267492543E+03  0.39388242764E+03  0.41800000000E+01 0.  1.
        -11    1    1    2    0    0  0.39515404110E+02  0.30388082373E+02 -0.23567385222E+03  0.24088808051E+03  0.00000000000E+00 0. -1.
         11    1    1    2    0    0 -0.21266997221E+02 -0.20096813832E+02 -0.40560946526E+02  0.50013572958E+02  0.00000000000E+00 0.  1.
</event>
<event>
 7    1  0.2394257E-009  0.9799657E+02  0.7561462E-02  0.1284566E+00
          1   -1    0    0  501    0  0.00000000000E+00  0.00000000000E+00  0.27961111720E+02  0.27961111720E+02  0.00000000000E+00 0. -1.
         -1   -1    0    0    0  501 -0.00000000000E+00 -0.00000000000E+00 -0.47285585780E+03  0.47285585780E+03  0.00000000000E+00 0.  1.
         25    2    1    2    0    0 -0.42744548943E+02 -0.25958994184E+02 -0.20248526918E+03  0.24320519385E+03  0.12509003253E+03 0.  0.
          5    1    3    3  502    0 -0.78023327185E+02 -0.27823207137E+02 -0.78434650739E+02  0.11415444484E+03  0.41800000000E+01 0. -1.
         -5    1    3    3    0  502  0.35278778242E+02  0.18642129524E+01 -0.12405061844E+03  0.12905074901E+03  0.41800000000E+01 0. -1.
        -11    1    1    2    0    0 -0.14981441548E+02  0.82150060019E+01 -0.16437584209E+02  0.23709156229E+02  0.00000000000E+00 0. -1.
         11    1    1    2    0    0  0.57725990491E+02  0.17743988182E+02 -0.22597189269E+03  0.23390261944E+03  0.00000000000E+00 0.  1.
</event>
<event>
 7    1  0.2394257E-009  0.1022452E+03  0.7561462E-02  0.1275644E+00
         -1   -1    0    0    0  501 -0.00000000000E+00  0.00000000000E+00  0.48847354706E+02  0.48847354706E+02  0.00000000000E+00 0.  1.
          1   -1    0    0  501    0  0.00000000000E+00 -0.00000000000E+00 -0.34148120373E+03  0.34148120373E+03  0.00000000000E+00 0. -1.
         25    2    1    2    0    0 -0.28341852408E+02 -0.61861741224E+02 -0.13421885747E+03  0.19568436208E+03  0.12509009648E+03 0.  0.
          5    1    3    3  502    0 -0.40684860904E+02 -0.78950727218E+02 -0.37318295244E+02  0.96429263167E+02  0.41800000000E+01 0. -1.
         -5    1    3    3    0  502  0.12343008496E+02  0.17088985994E+02 -0.96900562223E+02  0.99255098913E+02  0.41800000000E+01 0. -1.
        -11    1    1    2    0    0 -0.21000291264E+02  0.13324836835E+02 -0.10305767430E+03  0.10601626169E+03  0.00000000000E+00 0. -1.
         11    1    1    2    0    0  0.49342143672E+02  0.48536904390E+02 -0.55357317254E+02  0.88627934668E+02  0.00000000000E+00 0.  1.
</event>
<event>
 7    1  0.2394257E-009  0.3206266E+03  0.7561462E-02  0.1075361E+00
          2   -1    0    0  501    0  0.00000000000E+00  0.00000000000E+00  0.77710471962E+02  0.77710471962E+02  0.00000000000E+00 0. -1.
         -2   -1    0    0    0  501 -0.00000000000E+00 -0.00000000000E+00 -0.13934629900E+04  0.13934629900E+04  0.00000000000E+00 0.  1.
         25    2    1    2    0    0 -0.18379460836E+03  0.24965939648E+03 -0.68932581679E+03  0.76611244713E+03  0.12509167695E+03 0.  0.
          5    1    3    3  502    0 -0.16060858288E+03  0.15062684404E+03 -0.36609865793E+03  0.42723443539E+03  0.41800000000E+01 0.  1.
         -5    1    3    3    0  502 -0.23186025480E+02  0.99032552438E+02 -0.32322715886E+03  0.33887801174E+03  0.41800000000E+01 0.  1.
        -11    1    1    2    0    0  0.52310283760E+02 -0.13496683185E+03 -0.22747306871E+03  0.26962271506E+03  0.00000000000E+00 0.  1.
         11    1    1    2    0    0  0.13148432460E+03 -0.11469256463E+03 -0.39895363254E+03  0.43543829977E+03  0.00000000000E+00 0. -1.
</event>
<event>
 7    1  0.2394257E-009  0.1314116E+03  0.7561462E-02  0.1225376E+00
          2   -1    0    0  501    0  0.00000000000E+00  0.00000000000E+00  0.40224898651E+03  0.40224898651E+03  0.00000000000E+00 0. -1.
         -2   -1    0    0    0  501 -0.00000000000E+00 -0.00000000000E+00 -0.52574835875E+02  0.52574835875E+02  0.00000000000E+00 0.  1.
         25    2    1    2    0    0 -0.99516492110E+01 -0.90090380113E+02  0.24104669027E+03  0.28629548824E+03  0.12508512214E+03 0.  0.
          5    1    3    3  502    0 -0.27568286852E+02  0.20908453520E+02  0.10000141396E+03  0.10590056214E+03  0.41800000000E+01 0.  1.
         -5    1    3    3    0  502  0.17616637641E+02 -0.11099883363E+03  0.14104527632E+03  0.18039492609E+03  0.41800000000E+01 0.  1.
        -11    1    1    2    0    0  0.41061456837E+02  0.54457847290E+02  0.25364638818E+02  0.72767199145E+02  0.00000000000E+00 0.  1.
         11    1    1    2    0    0 -0.31109807626E+02  0.35632532823E+02  0.83262821539E+02  0.95761135000E+02  0.00000000000E+00 0. -1.
</event>
<event>
 7    1  0.2394257E-009  0.1066593E+03  0.7561462E-02  0.1266885E+00
         -4   -1    0    0    0  501 -0.00000000000E+00  0.00000000000E+00  0.82008502678E+03  0.82008502678E+03  0.00000000000E+00 0.  1.
          4   -1    0    0  501    0  0.00000000000E+00 -0.00000000000E+00 -0.17142905908E+02  0.17142905908E+02  0.00000000000E+00 0. -1.
         25    2    1    2    0    0 -0.18648403910E+02  0.40904591334E+02  0.38812729849E+03  0.41026119747E+03  0.12510196541E+03 0.  0.
          5    1    3    3  502    0 -0.91277276721E+01  0.78478044756E+02  0.33587634937E+03  0.34506885311E+03  0.41800000000E+01 0.  1.
         -5    1    3    3    0  502 -0.95206762375E+01 -0.37573453423E+02  0.52250949120E+02  0.65192344351E+02  0.41800000000E+01 0.  1.
        -11    1    1    2    0    0 -0.26880616966E+02  0.83439493581E+01  0.65814676619E+02  0.71580449271E+02  0.00000000000E+00 0. -1.
         11    1    1    2    0    0  0.45529020876E+02 -0.49248540692E+02  0.34900014575E+03  0.35538628595E+03  0.00000000000E+00 0.  1.
</event>
<event>
 7    1  0.2394257E-009  0.9333458E+02  0.7561462E-02  0.1294972E+00
         -2   -1    0    0    0  501 -0.00000000000E+00  0.00000000000E+00  0.16472884663E+02  0.16472884663E+02  0.00000000000E+00 0.  1.
          2   -1    0    0  501    0  0.00000000000E+00 -0.00000000000E+00 -0.16129485524E+04  0.16129485524E+04  0.00000000000E+00 0. -1.
         25    2    1    2    0    0 -0.15828041726E+02  0.23675706589E+02 -0.14453761693E+04  0.14510584441E+04  0.12508905332E+03 0.  0.
          5    1    3    3  502    0 -0.35871837987E+02  0.68106162045E+02 -0.74569582262E+03  0.74966990759E+03  0.41800000000E+01 0.  1.
         -5    1    3    3    0  502  0.20043796261E+02 -0.44430455456E+02 -0.69968034671E+03  0.70138853649E+03  0.41800000000E+01 0.  1.
        -11    1    1    2    0    0 -0.84435798977E+01 -0.33445450448E+02 -0.14805739631E+03  0.15202264568E+03  0.00000000000E+00 0. -1.
         11    1    1    2    0    0  0.24271621624E+02  0.97697438592E+01 -0.30421020981E+01  0.26340347312E+02  0.00000000000E+00 0.  1.
</event>
<event>
 7    1  0.2394257E-009  0.1049810E+03  0.7561462E-02  0.1270157E+00
         -4   -1    0    0    0  501 -0.00000000000E+00  0.00000000000E+00  0.41145744807E+02  0.41145744807E+02  0.00000000000E+00 0.  1.
          4   -1    0    0  501    0  0.00000000000E+00 -0.00000000000E+00 -0.31993440750E+03  0.31993440750E+03  0.00000000000E+00 0. -1.
         25    2    1    2    0    0  0.22414295952E+02  0.28383685037E+02 -0.16842655660E+03  0.21289391718E+03  0.12509308840E+03 0.  0.
          5    1    3    3  502    0 -0.46759045369E+02 -0.12777410543E+02 -0.51188469046E+02  0.70621542799E+02  0.41800000000E+01 0. -1.
         -5    1    3    3    0  502  0.69173341321E+02  0.41161095580E+02 -0.11723808755E+03  0.14227237438E+03  0.41800000000E+01 0. -1.
        -11    1    1    2    0    0 -0.39722639194E+02 -0.42645489013E+02 -0.31604346950E+02  0.66297515367E+02  0.00000000000E+00 0.  1.
         11    1    1    2    0    0  0.17308343242E+02  0.14261803976E+02 -0.78757759139E+02  0.81888719755E+02  0.00000000000E+00 0. -1.
</event>
<event>
 7    1  0.2394257E-009  0.7216039E+02  0.7561462E-02  0.1352897E+00
          2   -1    0    0  501    0  0.00000000000E+00  0.00000000000E+00  0.31390710954E+03  0.31390710954E+03  0.00000000000E+00 0. -1.
         -2   -1    0    0    0  501 -0.00000000000E+00 -0.00000000000E+00 -0.49090914062E+02  0.49090914062E+02  0.00000000000E+00 0.  1.
         25    2    1    2    0    0 -0.27165892995E+02  0.53628546157E+02  0.15914221643E+03  0.21115928961E+03  0.12509194152E+03 0.  0.
          5    1    3    3  502    0 -0.24113806213E+01  0.46519517732E+02 -0.30625954068E+01  0.46869309544E+02  0.41800000000E+01 0.  1.
         -5    1    3    3    0  502 -0.24754512373E+02  0.71090284251E+01  0.16220481183E+03  0.16428998007E+03  0.41800000000E+01 0.  1.
        -11    1    1    2    0    0  0.37036515776E+02 -0.38734355687E+02  0.10007506154E+02  0.54517923574E+02  0.00000000000E+00 0.  1.
         11    1    1    2    0    0 -0.98706227817E+01 -0.14894190470E+02  0.95666472894E+02  0.97320810415E+02  0.00000000000E+00 0. -1.
</event>
<event>
 7    1  0.2394257E-009  0.1026647E+03  0.7561462E-02  0.1274790E+00
         -1   -1    0    0    0  501 -0.00000000000E+00  0.00000000000E+00  0.13319915708E+02  0.13319915708E+02  0.00000000000E+00 0.  1.
          1   -1    0    0  501    0  0.00000000000E+00 -0.00000000000E+00 -0.12848490819E+04  0.12848490819E+04  0.00000000000E+00 0. -1.
         25    2    1    2    0    0 -0.34323512038E+02 -0.13625247060E+02 -0.10192587983E+04  0.10275705158E+04  0.12509562857E+03 0.  0.
          5    1    3    3  502    0 -0.14059176580E+02 -0.57348417313E+02 -0.25491341352E+03  0.26169604928E+03  0.41800000000E+01 0. -1.
         -5    1    3    3    0  502 -0.20264335459E+02  0.43723170253E+02 -0.76434538473E+03  0.76587446652E+03  0.41800000000E+01 0. -1.
        -11    1    1    2    0    0  0.52229333541E+02  0.40068042021E+02 -0.17630471580E+03  0.18819326259E+03  0.00000000000E+00 0.  1.
         11    1    1    2    0    0 -0.17905821503E+02 -0.26442794961E+02 -0.75965652180E+02  0.82405219253E+02  0.00000000000E+00 0. -1.
</event>
<event>
 7    1  0.2394257E-009  0.1772679E+03  0.7561462E-02  0.1170474E+00
         -1   -1    0    0    0  501 -0.00000000000E+00  0.00000000000E+00  0.63698821970E+03  0.63698821970E+03  0.00000000000E+00 0.  1.
          1   -1    0    0  501    0  0.00000000000E+00 -0.00000000000E+00 -0.52015257494E+02  0.52015257494E+02  0.00000000000E+00 0. -1.
         25    2    1    2    0    0  0.53315821089E+02  0.13147045888E+03  0.35699988100E+03  0.40400783168E+03  0.12508538957E+03 0.  0.
          5    1    3    3  502    0 -0.32187604135E+02  0.77593604630E+02  0.20329631623E+03  0.22000834969E+03  0.41800000000E+01 0. -1.
         -5    1    3    3    0  502  0.85503425224E+02  0.53876854247E+02  0.15370356477E+03  0.18399948198E+03  0.41800000000E+01 0. -1.
        -11    1    1    2    0    0 -0.76897490188E+02 -0.12124716526E+03  0.20647576534E+03  0.25148825172E+03  0.00000000000E+00 0.  1.
         11    1    1    2    0    0  0.23581669098E+02 -0.10223293621E+02  0.21497315867E+02  0.33507393802E+02  0.00000000000E+00 0. -1.
</event>
<event>
 7    1  0.2394257E-009  0.4401900E+03  0.7561462E-02  0.1030689E+00
         -2   -1    0    0    0  501 -0.00000000000E+00  0.00000000000E+00  0.89943192862E+02  0.89943192862E+02  0.00000000000E+00 0.  1.
          2   -1    0    0  501    0  0.00000000000E+00 -0.00000000000E+00 -0.26283187388E+04  0.26283187388E+04  0.00000000000E+00 0. -1.
         25    2    1    2    0    0 -0.41267735319E+03  0.12565033511E+03 -0.18195704781E+04  0.18741864973E+04  0.12509075724E+03 0.  0.
          5    1    3    3  502    0 -0.19234145995E+03  0.12342250697E+03 -0.89892422053E+03  0.92752928746E+03  0.41800000000E+01 0. -1.
         -5    1    3    3    0  502 -0.22033589324E+03  0.22278281437E+01 -0.92064625756E+03  0.94665720989E+03  0.41800000000E+01 0. -1.
        -11    1    1    2    0    0  0.27979632973E+03 -0.87969088682E+02 -0.57008892398E+03  0.64111303835E+03  0.00000000000E+00 0.  1.
         11    1    1    2    0    0  0.13288102346E+03 -0.37681246433E+02 -0.14871614385E+03  0.20296239595E+03  0.00000000000E+00 0. -1.
</event>
<event>
 7    1  0.2394257E-009  0.1131858E+03  0.7561462E-02  0.1254781E+00
          2   -1    0    0  501    0  0.00000000000E+00  0.00000000000E+00  0.27248709933E+03  0.27248709933E+03  0.00000000000E+00 0. -1.
         -2   -1    0    0    0  501 -0.00000000000E+00 -0.00000000000E+00 -0.59221482810E+02  0.59221482810E+02  0.00000000000E+00 0.  1.
         25    2    1    2    0    0  0.15213656190E+02 -0.62144266981E+02  0.97183448186E+02  0.17083738814E+03  0.12508966916E+03 0.  0.
          5    1    3    3  502    0 -0.54475618626E+02 -0.36518525085E+02  0.39049531662E+02  0.76443011598E+02  0.41800000000E+01 0.  1.
         -5    1    3    3    0  502  0.69689274816E+02 -0.25625741896E+02  0.58133916524E+02  0.94394376541E+02  0.41800000000E+01 0.  1.
        -11    1    1    2    0    0 -0.83880270335E+01 -0.10433998454E+02 -0.89752566491E+01  0.16117771346E+02  0.00000000000E+00 0.  1.
         11    1    1    2    0    0 -0.68256291566E+01  0.72578265435E+02  0.12505742498E+03  0.14475342265E+03  0.00000000000E+00 0. -1.
</event>
<event>
 7    1  0.2394257E-009  0.1290571E+03  0.7561462E-02  0.1228862E+00
         -2   -1    0    0    0  501 -0.00000000000E+00  0.00000000000E+00  0.23266229398E+03  0.23266229398E+03  0.00000000000E+00 0.  1.
          2   -1    0    0  501    0  0.00000000000E+00 -0.00000000000E+00 -0.74552354108E+02  0.74552354108E+02  0.00000000000E+00 0. -1.
         25    2    1    2    0    0  0.57045936953E+02 -0.52103463075E+02  0.98745271290E+02  0.17711451987E+03  0.12509961935E+03 0.  0.
          5    1    3    3  502    0 -0.24998501630E+02  0.23996166658E+02  0.20121452596E+02  0.40287545874E+02  0.41800000000E+01 0.  1.
         -5    1    3    3    0  502  0.82044438583E+02 -0.76099629733E+02  0.78623818695E+02  0.13682697400E+03  0.41800000000E+01 0.  1.
        -11    1    1    2    0    0 -0.76829935974E+02  0.32637931617E+02  0.27602699166E+02  0.87920319854E+02  0.00000000000E+00 0. -1.
         11    1    1    2    0    0  0.19783999021E+02  0.19465531457E+02  0.31761969421E+02  0.42179808364E+02  0.00000000000E+00 0.  1.
</event>
<event>
 7    1  0.2394257E-009  0.7131593E+02  0.7561462E-02  0.1355674E+00
          2   -1    0    0  501    0  0.00000000000E+00  0.00000000000E+00  0.39246252526E+03  0.39246252526E+03  0.00000000000E+00 0.  1.
         -2   -1    0    0    0  501 -0.00000000000E+00 -0.00000000000E+00 -0.32945018732E+02  0.32945018732E+02  0.00000000000E+00 0. -1.
         25    2    1    2    0    0 -0.82360216221E+01 -0.40011390841E+02  0.21469662457E+03  0.25181424055E+03  0.12508807974E+03 0.  0.
          5    1    3    3  502    0 -0.19417989281E+02 -0.20466475900E+02  0.22492912092E+03  0.22673005266E+03  0.41800000000E+01 0. -1.
         -5    1    3    3    0  502  0.11181967659E+02 -0.19544914940E+02 -0.10232496344E+02  0.25084187891E+02  0.41800000000E+01 0. -1.
        -11    1    1    2    0    0 -0.34646383851E+02  0.32828967663E+02  0.49180476543E+02  0.68533439318E+02  0.00000000000E+00 0. -1.
         11    1    1    2    0    0  0.42882405473E+02  0.71824231773E+01  0.95640405411E+02  0.10505986412E+03  0.00000000000E+00 0.  1.
</event>
<event>
 7    1  0.2394257E-009  0.7263558E+02  0.7561462E-02  0.1351353E+00
          3   -1    0    0  501    0  0.00000000000E+00  0.00000000000E+00  0.19895174856E+02  0.19895174856E+02  0.00000000000E+00 0. -1.
         -3   -1    0    0    0  501 -0.00000000000E+00 -0.00000000000E+00 -0.67923752439E+03  0.67923752439E+03  0.00000000000E+00 0.  1.
         25    2    1    2    0    0  0.37692051361E+02 -0.12920866296E+02 -0.38646057043E+03  0.40815071491E+03  0.12509034362E+03 0.  0.
          5    1    3    3  502    0  0.29151384748E+01  0.83184464433E+01 -0.35831952184E+03  0.35845229350E+03  0.41800000000E+01 0. -1.
         -5    1    3    3    0  502  0.34776912886E+02 -0.21239312740E+02 -0.28141048593E+02  0.49698421418E+02  0.41800000000E+01 0. -1.
        -11    1    1    2    0    0 -0.41347791280E+02  0.45665941085E+02 -0.12352623012E+03  0.13803531268E+03  0.00000000000E+00 0. -1.
         11    1    1    2    0    0  0.36557399188E+01 -0.32745074789E+02 -0.14935554898E+03  0.15294667165E+03  0.00000000000E+00 0.  1.
</event>
<event>
 7    1  0.2394257E-009  0.1632958E+03  0.7561462E-02  0.1185025E+00
          2   -1    0    0  501    0  0.00000000000E+00  0.00000000000E+00  0.60332403467E+03  0.60332403467E+03  0.00000000000E+00 0. -1.
         -2   -1    0    0    0  501 -0.00000000000E+00 -0.00000000000E+00 -0.44668907287E+02  0.44668907287E+02  0.00000000000E+00 0.  1.
         25    2    1    2    0    0  0.91038468449E+02  0.82769614039E+02  0.28774497607E+03  0.33702198118E+03  0.12509129788E+03 0.  0.
          5    1    3    3  502    0 -0.27959094577E+02  0.39917162786E+02  0.80355917328E+02  0.94072507695E+02  0.41800000000E+01 0. -1.
         -5    1    3    3    0  502  0.11899756303E+03  0.42852451253E+02  0.20738905874E+03  0.24294947349E+03  0.41800000000E+01 0. -1.
        -11    1    1    2    0    0 -0.40340867600E+02  0.13323070722E+02  0.97253233430E+02  0.10612766475E+03  0.00000000000E+00 0. -1.
         11    1    1    2    0    0 -0.50697600849E+02 -0.96092684761E+02  0.17365691789E+03  0.20484329603E+03  0.00000000000E+00 0.  1.
</event>
<event>
 7    1  0.2394257E-009  0.9488615E+02  0.7561462E-02  0.1291433E+00
         -1   -1    0    0    0  501 -0.00000000000E+00  0.00000000000E+00  0.12770048175E+03  0.12770048175E+03  0.00000000000E+00 0.  1.
          1   -1    0    0  501    0  0.00000000000E+00 -0.00000000000E+00 -0.25783257942E+03  0.25783257942E+03  0.00000000000E+00 0. -1.
         25    2    1    2    0    0  0.93318951287E+02 -0.13990880303E+02 -0.18690675581E+03  0.24389695104E+03  0.12508963170E+03 0.  0.
          5    1    3    3  502    0  0.17300071320E+02 -0.62406945838E+01  0.17441723318E+02  0.25689002489E+02  0.41800000000E+01 0. -1.
         -5    1    3    3    0  502  0.76018879968E+02 -0.77501857190E+01 -0.20434847913E+03  0.21820794855E+03  0.41800000000E+01 0. -1.
        -11    1    1    2    0    0 -0.52113233436E+02  0.67684321807E+01  0.78524135489E+02  0.94486192789E+02  0.00000000000E+00 0.  1.
         11    1    1    2    0    0 -0.41205717851E+02  0.72224481221E+01 -0.21749477342E+02  0.47149917340E+02  0.00000000000E+00 0. -1.
</event>
<event>
 7    1  0.2394257E-009  0.1329561E+03  0.7561462E-02  0.1223134E+00
          1   -1    0    0  501    0  0.00000000000E+00  0.00000000000E+00  0.44483957386E+02  0.44483957386E+02  0.00000000000E+00 0. -1.
         -1   -1    0    0    0  501 -0.00000000000E+00 -0.00000000000E+00 -0.51536103435E+03  0.51536103435E+03  0.00000000000E+00 0.  1.
         25    2    1    2    0    0 -0.92330921164E+02  0.34455479592E+02 -0.21849777329E+03  0.27037302708E+03  0.12509243688E+03 0.  0.
          5    1    3    3  502    0 -0.85467988270E+02 -0.55741784266E+01 -0.55045253195E+02  0.10189848273E+03  0.41800000000E+01 0. -1.
         -5    1    3    3    0  502 -0.68629328937E+01  0.40029658019E+02 -0.16345252009E+03  0.16847454435E+03  0.41800000000E+01 0. -1.
        -11    1    1    2    0    0  0.40381251386E+00 -0.46604303285E+02 -0.60573871933E+02  0.76428516342E+02  0.00000000000E+00 0. -1.
         11    1    1    2    0    0  0.91927108650E+02  0.12148823693E+02 -0.19180543174E+03  0.21304344831E+03  0.00000000000E+00 0.  1.
</event>
<event>
 7    1  0.2394257E-009  0.1803386E+03  0.7561462E-02  0.1167476E+00
         -1   -1    0    0    0  501 -0.00000000000E+00  0.00000000000E+00  0.13339616530E+03  0.13339616530E+03  0.00000000000E+00 0.  1.
          1   -1    0    0  501    0  0.00000000000E+00 -0.00000000000E+00 -0.43830046096E+03  0.43830046096E+03  0.00000000000E+00 0. -1.
         25    2    1    2    0    0  0.15495340530E+03 -0.78385844861E+02 -0.58237522928E+01  0.21409864137E+03  0.12509761651E+03 0.  0.
          5    1    3    3  502    0  0.22130140519E+02 -0.79624578361E+01  0.48604123571E+02  0.54156967071E+02  0.41800000000E+01 0.  1.
         -5    1    3    3    0  502  0.13282326478E+03 -0.70423387025E+02 -0.54427875864E+02  0.15994167430E+03  0.41800000000E+01 0.  1.
        -11    1    1    2    0    0 -0.14596077934E+03  0.46385974757E+02 -0.19272297041E+03  0.24616732335E+03  0.00000000000E+00 0.  1.
         11    1    1    2    0    0 -0.89926259509E+01  0.31999870103E+02 -0.10635757295E+03  0.11143066154E+03  0.00000000000E+00 0. -1.
</event>
<event>
 7    1  0.2394257E-009  0.1003320E+03  0.7561462E-02  0.1279599E+00
          1   -1    0    0  501    0  0.00000000000E+00  0.00000000000E+00  0.28075104782E+03  0.28075104782E+03  0.00000000000E+00 0. -1.
         -1   -1    0    0    0  501 -0.00000000000E+00 -0.00000000000E+00 -0.44627000669E+02  0.44627000669E+02  0.00000000000E+00 0.  1.
         25    2    1    2    0    0  0.22234716391E+02  0.17230889675E+02  0.13199498249E+03  0.18401213565E+03  0.12508598839E+03 0.  0.
          5    1    3    3  502    0 -0.49534302046E+02 -0.90008746127E+00  0.30524871117E+02  0.58341215220E+02  0.41800000000E+01 0.  1.
         -5    1    3    3    0  502  0.71769018437E+02  0.18130977137E+02  0.10147011137E+03  0.12567092043E+03  0.41800000000E+01 0.  1.
        -11    1    1    2    0    0 -0.32389182692E+02  0.20098205632E+02  0.97195933693E+01  0.39337863698E+02  0.00000000000E+00 0.  1.
         11    1    1    2    0    0  0.10154466301E+02 -0.37329095307E+02  0.94409471293E+02  0.10202804914E+03  0.00000000000E+00 0. -1.
</event>
<event>
 7    1  0.2394257E-009  0.1516734E+03  0.7561462E-02  0.1198432E+00
         -1   -1    0    0    0  501 -0.00000000000E+00  0.00000000000E+00  0.32907614112E+02  0.32907614112E+02  0.00000000000E+00 0.  1.
          1   -1    0    0  501    0  0.00000000000E+00 -0.00000000000E+00 -0.13455727440E+04  0.13455727440E+04  0.00000000000E+00 0. -1.
         25    2    1    2    0    0  0.12520729737E+03  0.16359511562E+02 -0.11046714205E+04  0.11188791619E+04  0.12508849092E+03 0.  0.
          5    1    3    3  502    0 -0.24385805176E+02  0.11414897626E+02 -0.13589803964E+03  0.13860273071E+03  0.41800000000E+01 0.  1.
         -5    1    3    3    0  502  0.14959310255E+03  0.49446139364E+01 -0.96877338089E+03  0.98027643115E+03  0.41800000000E+01 0.  1.
        -11    1    1    2    0    0 -0.76633224484E+02 -0.76095556641E+01 -0.19334493924E+03  0.20811732739E+03  0.00000000000E+00 0. -1.
         11    1    1    2    0    0 -0.48574072888E+02 -0.87499558978E+01 -0.14648770091E+02  0.51483868836E+02  0.00000000000E+00 0.  1.
</event>
<event>
 7    1  0.2394257E-009  0.8233003E+02  0.7561462E-02  0.1322566E+00
         -2   -1    0    0    0  501 -0.00000000000E+00  0.00000000000E+00  0.70046995951E+02  0.70046995951E+02  0.00000000000E+00 0.  1.
          2   -1    0    0  501    0  0.00000000000E+00 -0.00000000000E+00 -0.22428510852E+03  0.22428510852E+03  0.00000000000E+00 0. -1.
         25    2    1    2    0    0  0.23669730182E+02  0.25795562517E+02 -0.25328129983E+02  0.13235060006E+03  0.12509796160E+03 0.  0.
          5    1    3    3  502    0 -0.17033727565E+02  0.18615683968E+02 -0.68088080642E+02  0.72733422096E+02  0.41800000000E+01 0. -1.
         -5    1    3    3    0  502  0.40703457747E+02  0.71798785494E+01  0.42759950659E+02  0.59617177968E+02  0.41800000000E+01 0. -1.
        -11    1    1    2    0    0  0.19296329452E+02 -0.46131887113E+02 -0.57568834390E+02  0.76253983712E+02  0.00000000000E+00 0. -1.
         11    1    1    2    0    0 -0.42966059634E+02  0.20336324596E+02 -0.71341148197E+02  0.85727520695E+02  0.00000000000E+00 0.  1.
</event>
<event>
 7    1  0.2394257E-009  0.1045795E+03  0.7561462E-02  0.1270950E+00
          1   -1    0    0  501    0  0.00000000000E+00  0.00000000000E+00  0.50705385711E+03  0.50705385711E+03  0.00000000000E+00 0. -1.
         -1   -1    0    0    0  501 -0.00000000000E+00 -0.00000000000E+00 -0.25354230251E+02  0.25354230251E+02  0.00000000000E+00 0.  1.
         25    2    1    2    0    0  0.21314085002E+02 -0.11952215557E+02  0.30874577624E+03  0.33401917757E+03  0.12509081087E+03 0.  0.
          5    1    3    3  502    0  0.40362846541E+02 -0.59942656813E+02  0.14158494492E+03  0.15901588133E+03  0.41800000000E+01 0.  1.
         -5    1    3    3    0  502 -0.19048761538E+02  0.47990441256E+02  0.16716083132E+03  0.17500329624E+03  0.41800000000E+01 0.  1.
        -11    1    1    2    0    0  0.16132245971E+01 -0.33777454984E+02  0.25615017113E+02  0.42422259021E+02  0.00000000000E+00 0.  1.
         11    1    1    2    0    0 -0.22927309599E+02  0.45729670541E+02  0.14733883351E+03  0.15596665078E+03  0.00000000000E+00 0. -1.
</event>
<event>
 7    1  0.2394257E-009  0.1709475E+03  0.7561462E-02  0.1176863E+00
         -1   -1    0    0    0  501 -0.00000000000E+00  0.00000000000E+00  0.68205170228E+02  0.68205170228E+02  0.00000000000E+00 0. -1.
          1   -1    0    0  501    0  0.00000000000E+00 -0.00000000000E+00 -0.57423488060E+03  0.57423488060E+03  0.00000000000E+00 0.  1.
         25    2    1    2    0    0 -0.11299335725E+03 -0.83098696074E+02 -0.39928492652E+03  0.44130406252E+03  0.12509169026E+03 0.  0.
          5    1    3    3  502    0 -0.10992532168E+03 -0.10992620830E+03 -0.29478802911E+03  0.33329386752E+03  0.41800000000E+01 0. -1.
         -5    1    3    3    0  502 -0.30680355632E+01  0.26827512224E+02 -0.10449689741E+03  0.10801019500E+03  0.41800000000E+01 0. -1.
        -11    1    1    2    0    0  0.34724795603E+02  0.72089878092E+02 -0.89842859429E+02  0.12031002179E+03  0.00000000000E+00 0.  1.
         11    1    1    2    0    0  0.78268561645E+02  0.11008817983E+02 -0.16901924420E+02  0.80825966523E+02  0.00000000000E+00 0. -1.
</event>
<event>
 7    1  0.2394257E-009  0.1064741E+03  0.7561462E-02  0.1267242E+00
         -1   -1    0    0    0  501 -0.00000000000E+00  0.00000000000E+00  0.18114279932E+03  0.18114279932E+03  0.00000000000E+00 0.  1.
          1   -1    0    0  501    0  0.00000000000E+00 -0.00000000000E+00 -0.69130393036E+02  0.69130393036E+02  0.00000000000E+00 0. -1.
         25    2    1    2    0    0  0.13928752204E+02 -0.14711573822E+02  0.43953369992E+02  0.13412768381E+03  0.12509155163E+03 0.  0.
          5    1    3    3  502    0 -0.26273653098E+02  0.41899270209E+02  0.41216569254E+02  0.64514584957E+02  0.41800000000E+01 0. -1.
         -5    1    3    3    0  502  0.40202405302E+02 -0.56610844031E+02  0.27368007384E+01  0.69613098855E+02  0.41800000000E+01 0. -1.
        -11    1    1    2    0    0  0.33450279998E+02  0.28999397301E+02  0.27094700270E+02  0.51903844352E+02  0.00000000000E+00 0. -1.
         11    1    1    2    0    0 -0.47379032202E+02 -0.14287823479E+02  0.40964336017E+02  0.64241664187E+02  0.00000000000E+00 0.  1.
</event>
<event>
 7    1  0.2394257E-009  0.1837421E+03  0.7561462E-02  0.1164230E+00
          2   -1    0    0  501    0  0.00000000000E+00  0.00000000000E+00  0.75161612026E+03  0.75161612026E+03  0.00000000000E+00 0. -1.
         -2   -1    0    0    0  501 -0.00000000000E+00 -0.00000000000E+00 -0.55391507412E+02  0.55391507412E+02  0.00000000000E+00 0.  1.
         25    2    1    2    0    0 -0.13062514897E+03  0.10705262008E+03  0.29306003611E+03  0.36063145679E+03  0.12509064655E+03 0.  0.
          5    1    3    3  502    0 -0.92976922099E+02  0.21298985587E+02  0.69148786991E+02  0.11788715779E+03  0.41800000000E+01 0.  1.
         -5    1    3    3    0  502 -0.37648226876E+02  0.85753634489E+02  0.22391124912E+03  0.24274429900E+03  0.41800000000E+01 0.  1.
        -11    1    1    2    0    0  0.10273757722E+03 -0.48931972269E+02  0.32892963158E+03  0.34805753866E+03  0.00000000000E+00 0. -1.
         11    1    1    2    0    0  0.27887571753E+02 -0.58120647807E+02  0.74234945154E+02  0.98318632221E+02  0.00000000000E+00 0.  1.
</event>
<event>
 7    1  0.2394257E-009  0.1066409E+03  0.7561462E-02  0.1266920E+00
          3   -1    0    0  501    0  0.00000000000E+00  0.00000000000E+00  0.25477719602E+03  0.25477719602E+03  0.00000000000E+00 0. -1.
         -3   -1    0    0    0  501 -0.00000000000E+00 -0.00000000000E+00 -0.10376821126E+03  0.10376821126E+03  0.00000000000E+00 0.  1.
         25    2    1    2    0    0  0.51552562908E+02 -0.45410609558E+02  0.19190496498E+03  0.23915431735E+03  0.12508989457E+03 0.  0.
          5    1    3    3  502    0 -0.21939117474E+02 -0.34285193792E+02  0.14615325532E+03  0.15177300758E+03  0.41800000000E+01 0.  1.
         -5    1    3    3    0  502  0.73491680381E+02 -0.11125415766E+02  0.45751709657E+02  0.87381309774E+02  0.41800000000E+01 0.  1.
        -11    1    1    2    0    0 -0.56943792758E+02  0.50155055725E+01  0.57470312543E+01  0.57452408113E+02  0.00000000000E+00 0. -1.
         11    1    1    2    0    0  0.53912298500E+01  0.40395103985E+02 -0.46643011477E+02  0.61938681815E+02  0.00000000000E+00 0.  1.
</event>
<event>
 7    1  0.2394257E-009  0.1118997E+03  0.7561462E-02  0.1257092E+00
         -2   -1    0    0    0  501 -0.00000000000E+00  0.00000000000E+00  0.13582781392E+03  0.13582781392E+03  0.00000000000E+00 0.  1.
          2   -1    0    0  501    0  0.00000000000E+00 -0.00000000000E+00 -0.10552889636E+03  0.10552889636E+03  0.00000000000E+00 0. -1.
         25    2    1    2    0    0  0.11576445225E+02 -0.28529820798E+02 -0.16535889112E+02  0.12988101501E+03  0.12509067780E+03 0.  0.
          5    1    3    3  502    0 -0.15458282899E+02 -0.72918679327E+02 -0.20986785329E+02  0.77550047476E+02  0.41800000000E+01 0.  1.
         -5    1    3    3    0  502  0.27034728124E+02  0.44388858530E+02  0.44508962170E+01  0.52330967538E+02  0.41800000000E+01 0.  1.
        -11    1    1    2    0    0  0.19162592658E+02  0.53862174177E+02  0.11683522290E+02  0.58351036474E+02  0.00000000000E+00 0. -1.
         11    1    1    2    0    0 -0.30739037884E+02 -0.25332353379E+02  0.35151284386E+02  0.53124658792E+02  0.00000000000E+00 0.  1.
</event>
<event>
 7    1  0.2846542E-009  0.8378906E+02  0.7561462E-02  0.1318630E+00
         -2   -1    0    0    0  501 -0.00000000000E+00  0.00000000000E+00  0.66336672212E+02  0.66336672212E+02  0.00000000000E+00 0.  1.
          2   -1    0    0  501    0  0.00000000000E+00 -0.00000000000E+00 -0.26905852935E+03  0.26905852935E+03  0.00000000000E+00 0. -1.
         25    2    1    2    0    0 -0.53359102008E+02 -0.56244921154E+02 -0.11255421523E+03  0.18527417461E+03  0.12508950192E+03 0.  0.
          5    1    3    3  502    0 -0.33711672084E+02 -0.42414851384E+02 -0.13903317718E+03  0.14927556133E+03  0.41800000000E+01 0. -1.
         -5    1    3    3    0  502 -0.19647429923E+02 -0.13830069770E+02  0.26478961951E+02  0.35998613285E+02  0.41800000000E+01 0. -1.
        -11    1    1    2    0    0  0.60732601501E+02  0.45812105717E+02 -0.10556116699E+03  0.13011670873E+03  0.00000000000E+00 0. -1.
         11    1    1    2    0    0 -0.73734994936E+01  0.10432815437E+02  0.15393525083E+02  0.20004318214E+02  0.00000000000E+00 0.  1.
</event>
<event>
 7    1  0.2394257E-009  0.1789232E+03  0.7561462E-02  0.1168849E+00
          1   -1    0    0  501    0  0.00000000000E+00  0.00000000000E+00  0.79498106080E+02  0.79498106080E+02  0.00000000000E+00 0. -1.
         -1   -1    0    0    0  501 -0.00000000000E+00 -0.00000000000E+00 -0.63559129337E+03  0.63559129337E+03  0.00000000000E+00 0.  1.
         25    2    1    2    0    0 -0.41040367824E+02  0.16473473795E+03 -0.44576761250E+03  0.49313236635E+03  0.12509564625E+03 0.  0.
          5    1    3    3  502    0 -0.50441047462E+02  0.52719270804E+02 -0.71174065116E+02  0.10201392419E+03  0.41800000000E+01 0. -1.
         -5    1    3    3    0  502  0.94006796386E+01  0.11201546715E+03 -0.37459354738E+03  0.39111844216E+03  0.41800000000E+01 0. -1.
        -11    1    1    2    0    0 -0.44262584739E-01 -0.56601263110E+02  0.71958021799E+01  0.57056853347E+02  0.00000000000E+00 0. -1.
         11    1    1    2    0    0  0.41084630409E+02 -0.10813347484E+03 -0.11752137697E+03  0.16490017975E+03  0.00000000000E+00 0.  1.
</event>
<event>
 7    1  0.2394257E-009  0.1286305E+03  0.7561462E-02  0.1229502E+00
          4   -1    0    0  501    0  0.00000000000E+00  0.00000000000E+00  0.24890057743E+03  0.24890057743E+03  0.00000000000E+00 0.  1.
         -4   -1    0    0    0  501 -0.00000000000E+00 -0.00000000000E+00 -0.89628099818E+02  0.89628099818E+02  0.00000000000E+00 0. -1.
         25    2    1    2    0    0 -0.79782834129E+02 -0.45655130058E+02  0.37791874794E+02  0.15976658304E+03  0.12508974272E+03 0.  0.
          5    1    3    3  502    0 -0.95739371936E+02 -0.51935351601E+02  0.65315089218E+02  0.12707022218E+03  0.41800000000E+01 0. -1.
         -5    1    3    3    0  502  0.15956537806E+02  0.62802215423E+01 -0.27523214424E+02  0.32696360862E+02  0.41800000000E+01 0. -1.
        -11    1    1    2    0    0  0.29344187842E+02 -0.28514838568E+02  0.30784137473E+02  0.51203910970E+02  0.00000000000E+00 0.  1.
         11    1    1    2    0    0  0.50438646287E+02  0.74169968626E+02  0.90696465349E+02  0.12755818324E+03  0.00000000000E+00 0. -1.
</event>
<event>
 7    1  0.2394257E-009  0.8906544E+02  0.7561462E-02  0.1305131E+00
          2   -1    0    0  501    0  0.00000000000E+00  0.00000000000E+00  0.27613436441E+02  0.27613436441E+02  0.00000000000E+00 0. -1.
         -2   -1    0    0    0  501 -0.00000000000E+00 -0.00000000000E+00 -0.43486089719E+03  0.43486089719E+03  0.00000000000E+00 0.  1.
         25    2    1    2    0    0 -0.13440177407E+02 -0.69232731401E+01 -0.24902468856E+03  0.27908811955E+03  0.12509321676E+03 0.  0.
          5    1    3    3  502    0  0.24339514515E+02  0.50355553103E+02 -0.93205647234E+02  0.10877894452E+03  0.41800000000E+01 0. -1.
         -5    1    3    3    0  502 -0.37779691921E+02 -0.57278826244E+02 -0.15581904133E+03  0.17030917503E+03  0.41800000000E+01 0. -1.
        -11    1    1    2    0    0 -0.21909401013E+01  0.27430026288E+02 -0.49492102410E+01  0.27958920628E+02  0.00000000000E+00 0. -1.
         11    1    1    2    0    0  0.15631117508E+02 -0.20506753148E+02 -0.15327356194E+03  0.15542729345E+03  0.00000000000E+00 0.  1.
</event>
<event>
 7    1  0.2394257E-009  0.7743215E+02  0.7561462E-02  0.1336501E+00
         -3   -1    0    0    0  501 -0.00000000000E+00  0.00000000000E+00  0.54470435738E+03  0.54470435738E+03  0.00000000000E+00 0.  1.
          3   -1    0    0  501    0  0.00000000000E+00 -0.00000000000E+00 -0.25321182474E+02  0.25321182474E+02  0.00000000000E+00 0. -1.
         25    2    1    2    0    0  0.34553672743E+00  0.13821195639E+02  0.18026978517E+03  0.21985291073E+03  0.12508781743E+03 0.  0.
          5    1    3    3  502    0 -0.36695078866E+02  0.10792239467E+02  0.17829793611E+03  0.18240237845E+03  0.41800000000E+01 0.  1.
         -5    1    3    3    0  502  0.37040615593E+02  0.30289561726E+01  0.19718490587E+01  0.37450532276E+02  0.41800000000E+01 0.  1.
        -11    1    1    2    0    0  0.11024942193E+02  0.30919274251E+02  0.72403961384E+02  0.79497701191E+02  0.00000000000E+00 0.  1.
         11    1    1    2    0    0 -0.11370478921E+02 -0.44740469890E+02  0.26670942836E+03  0.27067492793E+03  0.00000000000E+00 0. -1.
</event>
<event>
 7    1  0.2394257E-009  0.1089058E+03  0.7561462E-02  0.1262610E+00
          1   -1    0    0  501    0  0.00000000000E+00  0.00000000000E+00  0.93237894052E+03  0.93237894052E+03  0.00000000000E+00 0. -1.
         -1   -1    0    0    0  501 -0.00000000000E+00 -0.00000000000E+00 -0.13722839245E+02  0.13722839245E+02  0.00000000000E+00 0.  1.
         25    2    1    2    0    0 -0.16546582902E+02  0.11013338871E+02  0.64962084414E+03  0.66185157451E+03  0.12508070397E+03 0.  0.
          5    1    3    3  502    0 -0.64795772360E+02 -0.21173077189E+02  0.36953709790E+03  0.37579506442E+03  0.41800000000E+01 0.  1.
         -5    1    3    3    0  502  0.48249189459E+02  0.32186416060E+02  0.28008374624E+03  0.28605651010E+03  0.41800000000E+01 0.  1.
        -11    1    1    2    0    0  0.53186843873E+02 -0.28474651852E+00  0.14360716741E+03  0.15314026242E+03  0.00000000000E+00 0.  1.
         11    1    1    2    0    0 -0.36640260971E+02 -0.10728592353E+02  0.12542808973E+03  0.13110994284E+03  0.00000000000E+00 0. -1.
</event>
<event>
 7    1  0.2394257E-009  0.1297439E+03  0.7561462E-02  0.1227836E+00
         -1   -1    0    0    0  501 -0.00000000000E+00  0.00000000000E+00  0.20131302441E+03  0.20131302441E+03  0.00000000000E+00 0.  1.
          1   -1    0    0  501    0  0.00000000000E+00 -0.00000000000E+00 -0.15464126040E+03  0.15464126040E+03  0.00000000000E+00 0. -1.
         25    2    1    2    0    0  0.79377118644E+02 -0.29837167181E+02  0.13547127040E+03  0.20295679946E+03  0.12509202147E+03 0.  0.
          5    1    3    3  502    0  0.82395434189E+02 -0.61452050514E+02  0.55677696801E+02  0.11697367400E+03  0.41800000000E+01 0.  1.
         -5    1    3    3    0  502 -0.30183155446E+01  0.31614883334E+02  0.79793573600E+02  0.85983125465E+02  0.41800000000E+01 0.  1.
        -11    1    1    2    0    0 -0.32938829082E+02  0.60533992552E+02 -0.50009231784E+02  0.85148423234E+02  0.00000000000E+00 0.  1.
         11    1    1    2    0    0 -0.46438289562E+02 -0.30696825371E+02 -0.38790274609E+02  0.67849062113E+02  0.00000000000E+00 0. -1.
</event>
<event>
 7    1  0.2659921E-009  0.1171705E+03  0.7561462E-02  0.1247839E+00
          2   -1    0    0  501    0  0.00000000000E+00  0.00000000000E+00  0.13664065670E+04  0.13664065670E+04  0.00000000000E+00 0. -1.
         -2   -1    0    0    0  501 -0.00000000000E+00 -0.00000000000E+00 -0.20465890080E+02  0.20465890080E+02  0.00000000000E+00 0.  1.
         25    2    1    2    0    0 -0.73638516096E+02 -0.85325183738E+02  0.95818049018E+03  0.97286143859E+03  0.12508600597E+03 0.  0.
          5    1    3    3  502    0 -0.36405237429E+02 -0.12551567759E+02  0.71938673239E+03  0.72042877948E+03  0.41800000000E+01 0.  1.
         -5    1    3    3    0  502 -0.37233278666E+02 -0.72773615979E+02  0.23879375780E+03  0.25243265911E+03  0.41800000000E+01 0.  1.
        -11    1    1    2    0    0  0.19337090623E+02  0.12947623059E+02  0.95955619391E+01  0.25172183568E+02  0.00000000000E+00 0.  1.
         11    1    1    2    0    0  0.54301425472E+02  0.72377560679E+02  0.37816462483E+03  0.38883883496E+03  0.00000000000E+00 0. -1.
</event>
<event>
 7    1  0.2394257E-009  0.1329331E+03  0.7561462E-02  0.1223167E+00
          2   -1    0    0  501    0  0.00000000000E+00  0.00000000000E+00  0.66625818450E+02  0.66625818450E+02  0.00000000000E+00 0.  1.
         -2   -1    0    0    0  501 -0.00000000000E+00 -0.00000000000E+00 -0.41684079078E+03  0.41684079078E+03  0.00000000000E+00 0. -1.
         25    2    1    2    0    0  0.12480500923E+03  0.15997657442E+02 -0.18774961085E+03  0.25832000406E+03  0.12508833979E+03 0.  0.
          5    1    3    3  502    0  0.11235684068E+03 -0.12288097991E+01 -0.20284045461E+03  0.23192087454E+03  0.41800000000E+01 0.  1.
         -5    1    3    3    0  502  0.12448168548E+02  0.17226467241E+02  0.15090843763E+02  0.26399129518E+02  0.41800000000E+01 0.  1.
        -11    1    1    2    0    0 -0.65359581392E+02 -0.28024853506E+02 -0.25838353185E+02  0.75662988238E+02  0.00000000000E+00 0.  1.
         11    1    1    2    0    0 -0.59445427833E+02  0.12027196064E+02 -0.13662700830E+03  0.14948361693E+03  0.00000000000E+00 0. -1.
</event>
<event>
 7    1  0.2394257E-009  0.1082358E+03  0.7561462E-02  0.1263872E+00
          2   -1    0    0  501    0  0.00000000000E+00  0.00000000000E+00  0.27257508165E+03  0.27257508165E+03  0.00000000000E+00 0. -1.
         -2   -1    0    0    0  501 -0.00000000000E+00 -0.00000000000E+00 -0.68251121414E+02  0.68251121414E+02  0.00000000000E+00 0.  1.
         25    2    1    2    0    0  0.16461637587E+02  0.81032409660E+02  0.12572406819E+03  0.19568125292E+03  0.12508946596E+03 0.  0.
          5    1    3    3  502    0  0.12459282568E+01  0.94200960532E+02  0.31776313220E+02  0.99511706770E+02  0.41800000000E+01 0. -1.
         -5    1    3    3    0  502  0.15215709330E+02 -0.13168550871E+02  0.93947754968E+02  0.96169546147E+02  0.41800000000E+01 0. -1.
        -11    1    1    2    0    0 -0.10409828279E+01 -0.85543973728E+02  0.24910878697E+02  0.89103349903E+02  0.00000000000E+00 0.  1.
         11    1    1    2    0    0 -0.15420654759E+02  0.45115640680E+01  0.53689013346E+02  0.56041600241E+02  0.00000000000E+00 0. -1.
</event>
<event>
 7    1  0.2394257E-009  0.1162644E+03  0.7561462E-02  0.1249390E+00
          1   -1    0    0  501    0  0.00000000000E+00  0.00000000000E+00  0.12864610502E+03  0.12864610502E+03  0.00000000000E+00 0. -1.
         -1   -1    0    0    0  501 -0.00000000000E+00 -0.00000000000E+00 -0.11003010799E+03  0.11003010799E+03  0.00000000000E+00 0.  1.
         25    2    1    2    0    0  0.28846753230E+02  0.38904512407E+02 -0.99151709261E+01  0.13450366519E+03  0.12508888471E+03 0.  0.
          5    1    3    3  502    0  0.77809391813E+02  0.15611182280E+02 -0.15725562114E+01  0.79485569756E+02  0.41800000000E+01 0. -1.
         -5    1    3    3    0  502 -0.48962638583E+02  0.23293330126E+02 -0.83426147146E+01  0.55018095438E+02  0.41800000000E+01 0. -1.
        -11    1    1    2    0    0 -0.36641632046E+01  0.27455716834E+02  0.64920156335E-01  0.27699218283E+02  0.00000000000E+00 0. -1.
         11    1    1    2    0    0 -0.25182590025E+02 -0.66360229241E+02  0.28466247802E+02  0.76473329529E+02  0.00000000000E+00 0.  1.
</event>
<event>
 7    1  0.2394257E-009  0.9987287E+02  0.7561462E-02  0.1280564E+00
          1   -1    0    0  501    0  0.00000000000E+00  0.00000000000E+00  0.84321869993E+02  0.84321869993E+02  0.00000000000E+00 0. -1.
         -1   -1    0    0    0  501 -0.00000000000E+00 -0.00000000000E+00 -0.14235028450E+03  0.14235028450E+03  0.00000000000E+00 0.  1.
         25    2    1    2    0    0  0.27020234766E+02 -0.88249266250E+00 -0.39318368406E+02  0.13388237295E+03  0.12509070234E+03 0.  0.
          5    1    3    3  502    0 -0.14656684317E+02 -0.52456051033E+02 -0.39553674018E+02  0.67441984056E+02  0.41800000000E+01 0.  1.
         -5    1    3    3    0  502  0.41676919084E+02  0.51573558370E+02  0.23530561162E+00  0.66440388891E+02  0.41800000000E+01 0.  1.
        -11    1    1    2    0    0  0.16989217900E+02 -0.23011022354E+02 -0.30005478268E+02  0.41454425587E+02  0.00000000000E+00 0.  1.
         11    1    1    2    0    0 -0.44009452666E+02  0.23893515017E+02  0.11295432166E+02  0.51335355961E+02  0.00000000000E+00 0. -1.
</event>
<event>
 7    1  0.2685802E-009  0.8366773E+02  0.7561462E-02  0.1318954E+00
          2   -1    0    0  501    0  0.00000000000E+00  0.00000000000E+00  0.27216389644E+03  0.27216389644E+03  0.00000000000E+00 0. -1.
         -2   -1    0    0    0  501 -0.00000000000E+00 -0.00000000000E+00 -0.54080348926E+02  0.54080348926E+02  0.00000000000E+00 0.  1.
         25    2    1    2    0    0 -0.14011435698E+02 -0.85649299137E+01  0.53814849549E+02  0.13716198550E+03  0.12509074258E+03 0.  0.
          5    1    3    3  502    0 -0.20556433907E+02 -0.57179549165E+02  0.62390006948E+02  0.87189753898E+02  0.41800000000E+01 0.  1.
         -5    1    3    3    0  502  0.65449982085E+01  0.48614619251E+02 -0.85751573990E+01  0.49972231598E+02  0.41800000000E+01 0.  1.
        -11    1    1    2    0    0 -0.75891811925E+01  0.27466436805E+02  0.15687550114E+03  0.15944254037E+03  0.00000000000E+00 0. -1.
         11    1    1    2    0    0  0.21600616891E+02 -0.18901506891E+02  0.73931968271E+01  0.29639719502E+02  0.00000000000E+00 0.  1.
</event>
<event>
 7    1  0.2394257E-009  0.1104180E+03  0.7561462E-02  0.1259798E+00
          3   -1    0    0  501    0  0.00000000000E+00  0.00000000000E+00  0.17543358627E+03  0.17543358627E+03  0.00000000000E+00 0. -1.
         -3   -1    0    0    0  501 -0.00000000000E+00 -0.00000000000E+00 -0.86339064978E+02  0.86339064978E+02  0.00000000000E+00 0.  1.
         25    2    1    2    0    0  0.24238937357E+02 -0.39523274140E+02  0.88888636267E+02  0.16030673646E+03  0.12508974704E+03 0.  0.
          5    1    3    3  502    0  0.48563581205E+02 -0.74394477141E+02  0.47526003668E+02  0.10084221870E+03  0.41800000000E+01 0.  1.
         -5    1    3    3    0  502 -0.24324643849E+02  0.34871203000E+02  0.41362632598E+02  0.59464517761E+02  0.41800000000E+01 0.  1.
        -11    1    1    2    0    0  0.11831128576E+02  0.50184948919E+02 -0.23859140216E+02  0.56813407513E+02  0.00000000000E+00 0.  1.
         11    1    1    2    0    0 -0.36070065932E+02 -0.10661674779E+02  0.24065025239E+02  0.44652507267E+02  0.00000000000E+00 0. -1.
</event>
<event>
 7    1  0.2394257E-009  0.1242892E+03  0.7561462E-02  0.1236184E+00
          2   -1    0    0  501    0  0.00000000000E+00  0.00000000000E+00  0.14708959334E+04  0.14708959334E+04  0.00000000000E+00 0. -1.
         -2   -1    0    0    0  501 -0.00000000000E+00 -0.00000000000E+00 -0.10838626564E+02  0.10838626564E+02  0.00000000000E+00 0.  1.
         25    2    1    2    0    0  0.48574518918E+02 -0.37924812798E+02  0.90325390156E+03  0.91395484257E+03  0.12509223901E+03 0.  0.
          5    1    3    3  502    0  0.75580896904E+02  0.16313225688E+02  0.44387869973E+03  0.45058225196E+03  0.41800000000E+01 0. -1.
         -5    1    3    3    0  502 -0.27006377986E+02 -0.54238038486E+02  0.45937520183E+03  0.46337259061E+03  0.41800000000E+01 0. -1.
        -11    1    1    2    0    0 -0.10304542722E+02  0.63532782209E+02  0.29280456755E+03  0.29979511803E+03  0.00000000000E+00 0.  1.
         11    1    1    2    0    0 -0.38269976196E+02 -0.25607969412E+02  0.26399883773E+03  0.26798459936E+03  0.00000000000E+00 0. -1.
</event>
<event>
 7    1  0.2394257E-009  0.1424744E+03  0.7561462E-02  0.1210038E+00
          1   -1    0    0  501    0  0.00000000000E+00  0.00000000000E+00  0.89627770562E+03  0.89627770562E+03  0.00000000000E+00 0. -1.
         -1   -1    0    0    0  501 -0.00000000000E+00 -0.00000000000E+00 -0.48535838312E+02  0.48535838312E+02  0.00000000000E+00 0.  1.
         25    2    1    2    0    0 -0.11385476556E+03  0.24823464564E+02  0.74790934570E+03  0.76719910476E+03  0.12508782881E+03 0.  0.
          5    1    3    3  502    0 -0.59026980936E+02  0.52134755782E+02  0.18714245479E+03  0.20308123504E+03  0.41800000000E+01 0.  1.
         -5    1    3    3    0  502 -0.54827784628E+02 -0.27311291218E+02  0.56076689091E+03  0.56411786972E+03  0.41800000000E+01 0.  1.
        -11    1    1    2    0    0  0.69147032121E+02  0.28771403991E+02  0.66976219171E+02  0.10047347746E+03  0.00000000000E+00 0.  1.
         11    1    1    2    0    0  0.44707733443E+02 -0.53594868554E+02  0.32856302439E+02  0.77140961719E+02  0.00000000000E+00 0. -1.
</event>
<event>
 7    1  0.2394257E-009  0.7609173E+02  0.7561462E-02  0.1340523E+00
         -1   -1    0    0    0  501 -0.00000000000E+00  0.00000000000E+00  0.58963186730E+02  0.58963186730E+02  0.00000000000E+00 0.  1.
          1   -1    0    0  501    0  0.00000000000E+00 -0.00000000000E+00 -0.30045727661E+03  0.30045727661E+03  0.00000000000E+00 0. -1.
         25    2    1    2    0    0 -0.41715295770E+02 -0.18100101981E+02 -0.21360146635E+03  0.25167657038E+03  0.12509088720E+03 0.  0.
          5    1    3    3  502    0 -0.27573920645E+02 -0.26936403757E+02 -0.14193663709E+01  0.38799200353E+02  0.41800000000E+01 0.  1.
         -5    1    3    3    0  502 -0.14141375125E+02  0.88363017762E+01 -0.21218209998E+03  0.21287737003E+03  0.41800000000E+01 0.  1.
        -11    1    1    2    0    0  0.49141305318E+02 -0.23139239714E+02  0.48969507981E+01  0.54536890543E+02  0.00000000000E+00 0.  1.
         11    1    1    2    0    0 -0.74260095485E+01  0.41239341696E+02 -0.32789574329E+02  0.53207002415E+02  0.00000000000E+00 0. -1.
</event>
<event>
 7    1  0.2394257E-009  0.1131943E+03  0.7561462E-02  0.1254766E+00
          1   -1    0    0  501    0  0.00000000000E+00  0.00000000000E+00  0.36492688515E+03  0.36492688515E+03  0.00000000000E+00 0. -1.
         -1   -1    0    0    0  501 -0.00000000000E+00 -0.00000000000E+00 -0.55198760232E+02  0.55198760232E+02  0.00000000000E+00 0.  1.
         25    2    1    2    0    0 -0.83033707988E+02  0.86761074815E+00  0.21041490631E+03  0.25849168824E+03  0.12509264839E+03 0.  0.
          5    1    3    3  502    0  0.74619221098E+01 -0.14597351998E+02  0.14427519607E+03  0.14526378616E+03  0.41800000000E+01 0.  1.
         -5    1    3    3    0  502 -0.90495630098E+02  0.15464962746E+02  0.66139710232E+02  0.11322790208E+03  0.41800000000E+01 0.  1.
        -11    1    1    2    0    0  0.87141789292E+02  0.25567384639E+02  0.99723769975E+02  0.13487851162E+03  0.00000000000E+00 0. -1.
         11    1    1    2    0    0 -0.41080813040E+01 -0.26434995387E+02 -0.41055135919E+00  0.26755445530E+02  0.00000000000E+00 0.  1.
</event>
<event>
 7    1  0.2394257E-009  0.1603956E+03  0.7561462E-02  0.1188251E+00
         -1   -1    0    0    0  501 -0.00000000000E+00  0.00000000000E+00  0.25793175753E+02  0.25793175753E+02  0.00000000000E+00 0.  1.
          1   -1    0    0  501    0  0.00000000000E+00 -0.00000000000E+00 -0.13324421181E+04  0.13324421181E+04  0.00000000000E+00 0. -1.
         25    2    1    2    0    0 -0.10503445084E+03  0.75947504187E+02 -0.96629337047E+03  0.98293986167E+03  0.12509050559E+03 0.  0.
          5    1    3    3  502    0  0.12886670782E+02 -0.19737060876E+02 -0.22297359270E+03  0.22425501844E+03  0.41800000000E+01 0.  1.
         -5    1    3    3    0  502 -0.11792112162E+03  0.95684565063E+02 -0.74331977777E+03  0.75868484323E+03  0.41800000000E+01 0.  1.
        -11    1    1    2    0    0  0.52993687513E+01  0.11264257162E+02 -0.29258489864E+01  0.12787782876E+02  0.00000000000E+00 0.  1.
         11    1    1    2    0    0  0.99735082088E+02 -0.87211761349E+02 -0.33742972289E+03  0.36250764930E+03  0.00000000000E+00 0. -1.
</event>
<event>
 7    1  0.2394257E-009  0.1751061E+03  0.7561462E-02  0.1172625E+00
         -1   -1    0    0    0  501 -0.00000000000E+00  0.00000000000E+00  0.18082672142E+02  0.18082672142E+02  0.00000000000E+00 0.  1.
          1   -1    0    0  501    0  0.00000000000E+00 -0.00000000000E+00 -0.24836946604E+04  0.24836946604E+04  0.00000000000E+00 0. -1.
         25    2    1    2    0    0 -0.77409710753E+02 -0.14031160731E+03 -0.17535785653E+04  0.17653230158E+04  0.12509178625E+03 0.  0.
          5    1    3    3  502    0 -0.71643349843E+00 -0.32276993360E+01 -0.65382189383E+00  0.53694695297E+01  0.41800000000E+01 0. -1.
         -5    1    3    3    0  502 -0.76693277254E+02 -0.13708390798E+03 -0.17529247434E+04  0.17599535462E+04  0.41800000000E+01 0. -1.
        -11    1    1    2    0    0  0.10091855565E+03  0.10830678558E+03 -0.57853475758E+03  0.59717449745E+03  0.00000000000E+00 0. -1.
         11    1    1    2    0    0 -0.23508844901E+02  0.32004821733E+02 -0.13349866541E+03  0.13927981932E+03  0.00000000000E+00 0.  1.
</event>
<event>
 7    1  0.2394257E-009  0.1485487E+03  0.7561462E-02  0.1202268E+00
          2   -1    0    0  501    0  0.00000000000E+00  0.00000000000E+00  0.11133643209E+04  0.11133643209E+04  0.00000000000E+00 0. -1.
         -2   -1    0    0    0  501 -0.00000000000E+00 -0.00000000000E+00 -0.20864154165E+02  0.20864154165E+02  0.00000000000E+00 0.  1.
         25    2    1    2    0    0 -0.10253870845E+03  0.19150395944E+02  0.49844389455E+03  0.52438051003E+03  0.12509068267E+03 0.  0.
          5    1    3    3  502    0 -0.10843831469E+03  0.57670562051E+02  0.35451421505E+03  0.37521002504E+03  0.41800000000E+01 0.  1.
         -5    1    3    3    0  502  0.58996062403E+01 -0.38520166107E+02  0.14392967950E+03  0.14917048499E+03  0.41800000000E+01 0.  1.
        -11    1    1    2    0    0  0.44513305126E+02 -0.51907724200E+02  0.23883372146E+03  0.24842985463E+03  0.00000000000E+00 0.  1.
         11    1    1    2    0    0  0.58025403323E+02  0.32757328256E+02  0.35522255075E+03  0.36141811043E+03  0.00000000000E+00 0. -1.
</event>
<event>
 7    1  0.2394257E-009  0.1242257E+03  0.7561462E-02  0.1236284E+00
          2   -1    0    0  501    0  0.00000000000E+00  0.00000000000E+00  0.52416523770E+03  0.52416523770E+03  0.00000000000E+00 0. -1.
         -2   -1    0    0    0  501 -0.00000000000E+00 -0.00000000000E+00 -0.46607280278E+02  0.46607280278E+02  0.00000000000E+00 0.  1.
         25    2    1    2    0    0  0.36284088732E+02  0.97087903787E+02  0.33444195691E+03  0.37180634671E+03  0.12508373499E+03 0.  0.
          5    1    3    3  502    0  0.43062560955E+02  0.26623750614E+02  0.29535797728E+02  0.58762607159E+02  0.41800000000E+01 0. -1.
         -5    1    3    3    0  502 -0.67784722231E+01  0.70464153174E+02  0.30490615918E+03  0.31304373955E+03  0.41800000000E+01 0. -1.
        -11    1    1    2    0    0 -0.58803587718E+02 -0.66780837041E+02  0.58998477570E+02  0.10676311386E+03  0.00000000000E+00 0.  1.
         11    1    1    2    0    0  0.22519498986E+02 -0.30307066746E+02  0.84117522942E+02  0.92203057408E+02  0.00000000000E+00 0. -1.
</event>
<event>
 7    1  0.2394257E-009  0.9536257E+02  0.7561462E-02  0.1290362E+00
          1   -1    0    0  501    0  0.00000000000E+00  0.00000000000E+00  0.15812525932E+04  0.15812525932E+04  0.00000000000E+00 0. -1.
         -1   -1    0    0    0  501 -0.00000000000E+00 -0.00000000000E+00 -0.94487242281E+01  0.94487242281E+01  0.00000000000E+00 0.  1.
         25    2    1    2    0    0  0.21004354890E+02 -0.33432305758E+02  0.11497020111E+04  0.11571608510E+04  0.12509044232E+03 0.  0.
          5    1    3    3  502    0 -0.34140664110E+02 -0.20775365635E+02  0.90804377735E+03  0.90893243685E+03  0.41800000000E+01 0. -1.
         -5    1    3    3    0  502  0.55145019000E+02 -0.12656940124E+02  0.24165823378E+03  0.24822841418E+03  0.41800000000E+01 0. -1.
        -11    1    1    2    0    0 -0.51020830552E+02  0.30684764431E+01  0.29667296435E+03  0.30104383149E+03  0.00000000000E+00 0. -1.
         11    1    1    2    0    0  0.30016475662E+02  0.30363829315E+02  0.12542889347E+03  0.13249663490E+03  0.00000000000E+00 0.  1.
</event>
<event>
 7    1  0.2394257E-009  0.9078774E+02  0.7561462E-02  0.1300955E+00
          2   -1    0    0  501    0  0.00000000000E+00  0.00000000000E+00  0.29596025506E+02  0.29596025506E+02  0.00000000000E+00 0. -1.
         -2   -1    0    0    0  501 -0.00000000000E+00 -0.00000000000E+00 -0.43386143536E+03  0.43386143536E+03  0.00000000000E+00 0.  1.
         25    2    1    2    0    0 -0.69456012770E+01 -0.19438563827E+02 -0.27777295300E+03  0.30533857007E+03  0.12509088621E+03 0.  0.
          5    1    3    3  502    0 -0.37800235063E+02 -0.54663058445E+02 -0.91141180710E+02  0.11287645880E+03  0.41800000000E+01 0. -1.
         -5    1    3    3    0  502  0.30854633786E+02  0.35224494618E+02 -0.18663177229E+03  0.19246211127E+03  0.41800000000E+01 0. -1.
        -11    1    1    2    0    0  0.27695858035E+02 -0.12095842899E+02 -0.11463415629E+03  0.11855108500E+03  0.00000000000E+00 0.  1.
         11    1    1    2    0    0 -0.20750256758E+02  0.31534406726E+02 -0.11858300567E+02  0.39567805795E+02  0.00000000000E+00 0. -1.
</event>
<event>
 7    1  0.2394257E-009  0.8439676E+02  0.7561462E-02  0.1317018E+00
          2   -1    0    0  501    0  0.00000000000E+00  0.00000000000E+00  0.63614561770E+02  0.63614561770E+02  0.00000000000E+00 0. -1.
         -2   -1    0    0    0  501 -0.00000000000E+00 -0.00000000000E+00 -0.11463788996E+03  0.11463788996E+03  0.00000000000E+00 0.  1.
         25    2    1    2    0    0 -0.30851292724E+02  0.11039564646E+02 -0.36964509731E+02  0.13448351059E+03  0.12508303398E+03 0.  0.
          5    1    3    3  502    0  0.46865162432E+02 -0.69620039482E+01 -0.29352152981E+01  0.47653969799E+02  0.41800000000E+01 0.  1.
         -5    1    3    3    0  502 -0.77716455156E+02  0.18001568594E+02 -0.34029294433E+02  0.86829540788E+02  0.41800000000E+01 0.  1.
        -11    1    1    2    0    0  0.18258336278E+02 -0.19077626184E+02 -0.74869578159E+01  0.27447717606E+02  0.00000000000E+00 0. -1.
         11    1    1    2    0    0  0.12592956446E+02  0.80380615380E+01 -0.65718606396E+01  0.16321223532E+02  0.00000000000E+00 0.  1.
</event>
<event>
 7    1  0.2394257E-009  0.1304007E+03  0.7561462E-02  0.1226862E+00
         -2   -1    0    0    0  501 -0.00000000000E+00  0.00000000000E+00  0.27390593650E+02  0.27390593650E+02  0.00000000000E+00 0.  1.
          2   -1    0    0  501    0  0.00000000000E+00 -0.00000000000E+00 -0.82957002958E+03  0.82957002958E+03  0.00000000000E+00 0. -1.
         25    2    1    2    0    0  0.19032692037E+02  0.80078615879E+02 -0.61143945065E+03  0.62950776379E+03  0.12508794817E+03 0.  0.
          5    1    3    3  502    0 -0.73192565370E+01  0.10778637168E+03 -0.50184499542E+03  0.51335888545E+03  0.41800000000E+01 0.  1.
         -5    1    3    3    0  502  0.26351948574E+02 -0.27707755797E+02 -0.10959445523E+03  0.11614887835E+03  0.41800000000E+01 0.  1.
        -11    1    1    2    0    0  0.29728480776E+02 -0.45850672803E+02 -0.13592002281E+03  0.14649341066E+03  0.00000000000E+00 0. -1.
         11    1    1    2    0    0 -0.48761172812E+02 -0.34227943075E+02 -0.54819962474E+02  0.80959448781E+02  0.00000000000E+00 0.  1.
</event>
<event>
 7    1  0.2394257E-009  0.1093108E+03  0.7561462E-02  0.1261851E+00
         -2   -1    0    0    0  501 -0.00000000000E+00  0.00000000000E+00  0.11011662154E+03  0.11011662154E+03  0.00000000000E+00 0.  1.
          2   -1    0    0  501    0  0.00000000000E+00 -0.00000000000E+00 -0.15765513914E+03  0.15765513914E+03  0.00000000000E+00 0. -1.
         25    2    1    2    0    0 -0.24369704278E+02  0.70509305437E+02 -0.36310619116E+02  0.15010314551E+03  0.12508816328E+03 0.  0.
          5    1    3    3  502    0  0.33969371122E+02  0.51979110912E+02  0.21460140638E+02  0.65831270547E+02  0.41800000000E+01 0. -1.
         -5    1    3    3    0  502 -0.58339075400E+02  0.18530194524E+02 -0.57770759754E+02  0.84271874966E+02  0.41800000000E+01 0. -1.
        -11    1    1    2    0    0  0.40415077887E+02 -0.67549447128E+02  0.21066241906E+02  0.81486765036E+02  0.00000000000E+00 0.  1.
         11    1    1    2    0    0 -0.16045373609E+02 -0.29598583082E+01 -0.32294140385E+02  0.36181850128E+02  0.00000000000E+00 0. -1.
</event>
<event>
 7    1  0.2394257E-009  0.1120590E+03  0.7561462E-02  0.1256804E+00
          1   -1    0    0  501    0  0.00000000000E+00  0.00000000000E+00  0.14056917558E+03  0.14056917558E+03  0.00000000000E+00 0. -1.
         -1   -1    0    0    0  501 -0.00000000000E+00 -0.00000000000E+00 -0.16264373342E+03  0.16264373342E+03  0.00000000000E+00 0.  1.
         25    2    1    2    0    0 -0.45948731605E+02  0.17988975334E+02 -0.10561000218E+03  0.17098584566E+03  0.12509115750E+03 0.  0.
          5    1    3    3  502    0  0.17061810411E+02 -0.41744143160E+02 -0.21895955729E+02  0.50304911689E+02  0.41800000000E+01 0. -1.
         -5    1    3    3    0  502 -0.63010542016E+02  0.59733118495E+02 -0.83714046452E+02  0.12068093397E+03  0.41800000000E+01 0. -1.
        -11    1    1    2    0    0  0.66299003363E+02 -0.25287202035E+01  0.83525923002E+02  0.10667020243E+03  0.00000000000E+00 0. -1.
         11    1    1    2    0    0 -0.20350271758E+02 -0.15460255131E+02  0.95213417549E-02  0.25556860918E+02  0.00000000000E+00 0.  1.
</event>
<event>
 7    1  0.2394257E-009  0.2082521E+03  0.7561462E-02  0.1142958E+00
          1   -1    0    0  501    0  0.00000000000E+00  0.00000000000E+00  0.69898350159E+03  0.69898350159E+03  0.00000000000E+00 0. -1.
         -1   -1    0    0    0  501 -0.00000000000E+00 -0.00000000000E+00 -0.92073283083E+02  0.92073283083E+02  0.00000000000E+00 0.  1.
         25    2    1    2    0    0  0.61813294701E+02 -0.18134737032E+03  0.50792822330E+03  0.55708766292E+03  0.12509129479E+03 0.  0.
          5    1    3    3  502    0 -0.74013968142E+01 -0.14492405604E+03  0.26935143413E+03  0.30598272854E+03  0.41800000000E+01 0.  1.
         -5    1    3    3    0  502  0.69214691515E+02 -0.36423314285E+02  0.23857678916E+03  0.25110493439E+03  0.41800000000E+01 0.  1.
        -11    1    1    2    0    0 -0.16092687561E+02  0.22184648124E+02  0.56823566631E+02  0.63087644829E+02  0.00000000000E+00 0.  1.
         11    1    1    2    0    0 -0.45720607140E+02  0.15916272220E+03  0.42158428576E+02  0.17088147692E+03  0.00000000000E+00 0. -1.
</event>
<event>
 7    1  0.2394257E-009  0.9842416E+02  0.7561462E-02  0.1283645E+00
         -2   -1    0    0    0  501 -0.00000000000E+00  0.00000000000E+00  0.92994520861E+02  0.92994520861E+02  0.00000000000E+00 0.  1.
          2   -1    0    0  501    0  0.00000000000E+00 -0.00000000000E+00 -0.42860698590E+03  0.42860698590E+03  0.00000000000E+00 0. -1.
         25    2    1    2    0    0 -0.40696973471E+02 -0.75385038052E+02  0.12851306970E+02  0.15215745481E+03  0.12509031678E+03 0.  0.
          5    1    3    3  502    0 -0.37342321947E+02 -0.27355462251E+02  0.65742072894E+02  0.80512501338E+02  0.41800000000E+01 0. -1.
         -5    1    3    3    0  502 -0.33546515245E+01 -0.48029575801E+02 -0.52890765924E+02  0.71644953475E+02  0.41800000000E+01 0. -1.
        -11    1    1    2    0    0  0.49288660527E+02  0.34251933215E+02 -0.29699926514E+03  0.30300351562E+03  0.00000000000E+00 0. -1.
         11    1    1    2    0    0 -0.85916870557E+01  0.41133104837E+02 -0.51464506867E+02  0.66440536324E+02  0.00000000000E+00 0.  1.
</event>
<event>
 7    1  0.2394257E-009  0.1170665E+03  0.7561462E-02  0.1248016E+00
         -2   -1    0    0    0  501 -0.00000000000E+00  0.00000000000E+00  0.27747591110E+02  0.27747591110E+02  0.00000000000E+00 0. -1.
          2   -1    0    0  501    0  0.00000000000E+00 -0.00000000000E+00 -0.52087463734E+03  0.52087463734E+03  0.00000000000E+00 0.  1.
         25    2    1    2    0    0  0.20432962095E+02  0.55431600484E+02 -0.29372723739E+03  0.32467591672E+03  0.12509433496E+03 0.  0.
          5    1    3    3  502    0  0.90458284554E+01  0.94435611105E+02 -0.17477917245E+03  0.19890988708E+03  0.41800000000E+01 0. -1.
         -5    1    3    3    0  502  0.11387133639E+02 -0.39004010621E+02 -0.11894806494E+03  0.12576602964E+03  0.41800000000E+01 0. -1.
        -11    1    1    2    0    0 -0.46922661276E+02 -0.13672424203E+02 -0.69607497889E+02  0.85052190373E+02  0.00000000000E+00 0.  1.
         11    1    1    2    0    0  0.26489699181E+02 -0.41759176281E+02 -0.12979231095E+03  0.13889412136E+03  0.00000000000E+00 0. -1.
</event>
<event>
 7    1  0.2394257E-009  0.1737452E+03  0.7561462E-02  0.1173997E+00
          2   -1    0    0  501    0  0.00000000000E+00  0.00000000000E+00  0.87362033602E+03  0.87362033602E+03  0.00000000000E+00 0. -1.
         -2   -1    0    0    0  501 -0.00000000000E+00 -0.00000000000E+00 -0.40604836770E+02  0.40604836770E+02  0.00000000000E+00 0.  1.
         25    2    1    2    0    0  0.43915489261E+02 -0.13695745489E+03  0.57772430988E+03  0.60835751542E+03  0.12509026220E+03 0.  0.
          5    1    3    3  502    0  0.56746329187E+02 -0.15446929241E+02  0.28663929626E+03  0.29264024340E+03  0.41800000000E+01 0.  1.
         -5    1    3    3    0  502 -0.12830839927E+02 -0.12151052565E+03  0.29108501362E+03  0.31571727202E+03  0.41800000000E+01 0.  1.
        -11    1    1    2    0    0  0.14539966306E+02 -0.27787565294E+01  0.11057277968E+02  0.18476891083E+02  0.00000000000E+00 0.  1.
         11    1    1    2    0    0 -0.58455455567E+02  0.13973621142E+03  0.24423391140E+03  0.28739076628E+03  0.00000000000E+00 0. -1.
</event>
<event>
 7    1  0.2394257E-009  0.1642050E+03  0.7561462E-02  0.1184029E+00
          2   -1    0    0  501    0  0.00000000000E+00  0.00000000000E+00  0.19824542017E+04  0.19824542017E+04  0.00000000000E+00 0.  1.
         -2   -1    0    0    0  501 -0.00000000000E+00 -0.00000000000E+00 -0.18756163740E+02  0.18756163740E+02  0.00000000000E+00 0. -1.
         25    2    1    2    0    0 -0.63525557693E+02  0.12841025865E+03  0.14007787620E+04  0.14136316658E+04  0.12509458592E+03 0.  0.
          5    1    3    3  502    0 -0.44014263474E+02  0.44281789621E+01  0.71985733077E+03  0.72122736583E+03  0.41800000000E+01 0.  1.
         -5    1    3    3    0  502 -0.19511294220E+02  0.12398207969E+03  0.68092143120E+03  0.69240429993E+03  0.41800000000E+01 0.  1.
        -11    1    1    2    0    0 -0.88373992133E+00 -0.74221111226E+02  0.36555518489E+03  0.37301494279E+03  0.00000000000E+00 0.  1.
         11    1    1    2    0    0  0.64409297615E+02 -0.54189147422E+02  0.19736409115E+03  0.21456375694E+03  0.00000000000E+00 0. -1.
</event>
<event>
 7    1  0.2394257E-009  0.9944244E+02  0.7561462E-02  0.1281473E+00
         -2   -1    0    0    0  501 -0.00000000000E+00  0.00000000000E+00  0.26072367166E+03  0.26072367166E+03  0.00000000000E+00 0.  1.
          2   -1    0    0  501    0  0.00000000000E+00 -0.00000000000E+00 -0.76986648205E+02  0.76986648205E+02  0.00000000000E+00 0. -1.
         25    2    1    2    0    0 -0.69691490172E+02 -0.53045342791E+02  0.12032712496E+03  0.19441450559E+03  0.12509065028E+03 0.  0.
          5    1    3    3  502    0 -0.42492822128E+02 -0.47068158773E+02 -0.70707917327E+01  0.63941535784E+02  0.41800000000E+01 0.  1.
         -5    1    3    3    0  502 -0.27198668044E+02 -0.59771840175E+01  0.12739791669E+03  0.13047296981E+03  0.41800000000E+01 0.  1.
        -11    1    1    2    0    0  0.15499621813E+02  0.50608935773E+02  0.70960499783E+02  0.88526240098E+02  0.00000000000E+00 0.  1.
         11    1    1    2    0    0  0.54191868359E+02  0.24364070176E+01 -0.75506012902E+01  0.54769574174E+02  0.00000000000E+00 0. -1.
</event>
<event>
 7    1  0.2394257E-009  0.4470995E+03  0.7561462E-02  0.1028591E+00
         -2   -1    0    0    0  501 -0.00000000000E+00  0.00000000000E+00  0.76975281433E+02  0.76975281433E+02  0.00000000000E+00 0.  1.
          2   -1    0    0  501    0  0.00000000000E+00 -0.00000000000E+00 -0.26388727979E+04  0.26388727979E+04  0.00000000000E+00 0. -1.
         25    2    1    2    0    0 -0.43433233117E+03  0.34631317711E+02 -0.11851896735E+04  0.12689225890E+04  0.12508426177E+03 0.  0.
          5    1    3    3  502    0 -0.47023378034E+02  0.43416675203E+02 -0.13264881555E+03  0.14734105482E+03  0.41800000000E+01 0. -1.
         -5    1    3    3    0  502 -0.38730895313E+03 -0.87853574914E+01 -0.10525408580E+04  0.11215815342E+04  0.41800000000E+01 0. -1.
        -11    1    1    2    0    0  0.28055761794E+03  0.15237680765E+02 -0.94754934459E+03  0.98832915788E+03  0.00000000000E+00 0. -1.
         11    1    1    2    0    0  0.15377471323E+03 -0.49868998476E+02 -0.42915849836E+03  0.45859633247E+03  0.00000000000E+00 0.  1.
</event>
<event>
 7    1  0.3159044E-009  0.1587549E+03  0.7561462E-02  0.1190110E+00
         -2   -1    0    0    0  501 -0.00000000000E+00  0.00000000000E+00  0.15125943234E+03  0.15125943234E+03  0.00000000000E+00 0.  1.
          2   -1    0    0  501    0  0.00000000000E+00 -0.00000000000E+00 -0.18499871980E+03  0.18499871980E+03  0.00000000000E+00 0. -1.
         25    2    1    2    0    0  0.11959992062E+03 -0.11539407971E+02  0.23158534405E+02  0.17498897414E+03  0.12509006518E+03 0.  0.
          5    1    3    3  502    0  0.62692823524E+02 -0.65465549129E+02  0.31465773965E+02  0.96040072758E+02  0.41800000000E+01 0. -1.
         -5    1    3    3    0  502  0.56907097092E+02  0.53926141158E+02 -0.83072395602E+01  0.78948901378E+02  0.41800000000E+01 0. -1.
        -11    1    1    2    0    0 -0.59061501356E+02  0.49280249911E+02 -0.14479591620E+02  0.78271722526E+02  0.00000000000E+00 0.  1.
         11    1    1    2    0    0 -0.60538419261E+02 -0.37740841941E+02 -0.42418230246E+02  0.82997455468E+02  0.00000000000E+00 0. -1.
</event>
<event>
 7    1  0.2394257E-009  0.1309218E+03  0.7561462E-02  0.1226094E+00
         -2   -1    0    0    0  501 -0.00000000000E+00  0.00000000000E+00  0.32309195449E+02  0.32309195449E+02  0.00000000000E+00 0.  1.
          2   -1    0    0  501    0  0.00000000000E+00 -0.00000000000E+00 -0.82579983420E+03  0.82579983420E+03  0.00000000000E+00 0. -1.
         25    2    1    2    0    0  0.47477154866E+02 -0.70875628664E+02 -0.65045833711E+03  0.66784795770E+03  0.12508961310E+03 0.  0.
          5    1    3    3  502    0  0.63943208836E+02  0.10639807956E+02 -0.35436496685E+03  0.36026926264E+03  0.41800000000E+01 0.  1.
         -5    1    3    3    0  502 -0.16466053970E+02 -0.81515436621E+02 -0.29609337026E+03  0.30757869506E+03  0.41800000000E+01 0.  1.
        -11    1    1    2    0    0 -0.59699396034E+02  0.78943145229E+02 -0.85173937960E+02  0.13057809071E+03  0.00000000000E+00 0.  1.
         11    1    1    2    0    0  0.12222241168E+02 -0.80675165647E+01 -0.57858363677E+02  0.59682981243E+02  0.00000000000E+00 0. -1.
</event>
<event>
 7    1  0.2394257E-009  0.2151765E+03  0.7561462E-02  0.1137531E+00
         -1   -1    0    0    0  501 -0.00000000000E+00  0.00000000000E+00  0.54449563653E+02  0.54449563653E+02  0.00000000000E+00 0.  1.
          1   -1    0    0  501    0  0.00000000000E+00 -0.00000000000E+00 -0.90143941244E+03  0.90143941244E+03  0.00000000000E+00 0. -1.
         25    2    1    2    0    0 -0.11367447188E+02 -0.18852427175E+03 -0.35665459014E+03  0.42251732577E+03  0.12509106287E+03 0.  0.
          5    1    3    3  502    0 -0.44900158671E+02 -0.12592083739E+02 -0.62284379383E+02  0.77919196201E+02  0.41800000000E+01 0. -1.
         -5    1    3    3    0  502  0.33532711484E+02 -0.17593218801E+03 -0.29437021076E+03  0.34459812956E+03  0.41800000000E+01 0. -1.
        -11    1    1    2    0    0 -0.23147742570E+02  0.15279417723E+02 -0.11858359523E+03  0.12178402050E+03  0.00000000000E+00 0. -1.
         11    1    1    2    0    0  0.34515189758E+02  0.17324485403E+03 -0.37175166342E+03  0.41158762983E+03  0.00000000000E+00 0.  1.
</event>
<event>
 7    1  0.2394257E-009  0.5650239E+02  0.7561462E-02  0.1413125E+00
         -2   -1    0    0    0  501 -0.00000000000E+00  0.00000000000E+00  0.42206373476E+03  0.42206373476E+03  0.00000000000E+00 0.  1.
          2   -1    0    0  501    0  0.00000000000E+00 -0.00000000000E+00 -0.73200282013E+02  0.73200282013E+02  0.00000000000E+00 0. -1.
         25    2    1    2    0    0 -0.70996267399E+01  0.50495561836E+02  0.36470632197E+03  0.38891736540E+03  0.12508320972E+03 0.  0.
          5    1    3    3  502    0 -0.11367557034E+02  0.47296369975E+01  0.33222513663E+03  0.33247948001E+03  0.41800000000E+01 0.  1.
         -5    1    3    3    0  502  0.42679302936E+01  0.45765924839E+02  0.32481185344E+02  0.56437885385E+02  0.41800000000E+01 0.  1.
        -11    1    1    2    0    0 -0.57909688777E+01 -0.16883482063E+02  0.37766447425E+02  0.41771902497E+02  0.00000000000E+00 0.  1.
         11    1    1    2    0    0  0.12890595618E+02 -0.33612079773E+02 -0.53609316648E+02  0.64574748884E+02  0.00000000000E+00 0. -1.
</event>
<event>
 7    1  0.2394257E-009  0.8461133E+02  0.7561462E-02  0.1316452E+00
         -2   -1    0    0    0  501 -0.00000000000E+00  0.00000000000E+00  0.39315902808E+02  0.39315902808E+02  0.00000000000E+00 0.  1.
          2   -1    0    0  501    0  0.00000000000E+00 -0.00000000000E+00 -0.36997509585E+03  0.36997509585E+03  0.00000000000E+00 0. -1.
         25    2    1    2    0    0 -0.27927780249E+02  0.43586867487E+02 -0.15778280267E+03  0.20790100059E+03  0.12509051642E+03 0.  0.
          5    1    3    3  502    0  0.76333900834E+01  0.31294201030E+02 -0.16601177062E+03  0.16915961706E+03  0.41800000000E+01 0.  1.
         -5    1    3    3    0  502 -0.35561170332E+02  0.12292666457E+02  0.82289679411E+01  0.38741383525E+02  0.41800000000E+01 0.  1.
        -11    1    1    2    0    0 -0.20156235084E+02  0.13488620705E+02 -0.20648822174E+02  0.31852638171E+02  0.00000000000E+00 0.  1.
         11    1    1    2    0    0  0.48084015333E+02 -0.57075488192E+02 -0.15222756819E+03  0.16953735989E+03  0.00000000000E+00 0. -1.
</event>
<event>
 7    1  0.2394257E-009  0.1292632E+03  0.7561462E-02  0.1228553E+00
          2   -1    0    0  501    0  0.00000000000E+00  0.00000000000E+00  0.15974555489E+04  0.15974555489E+04  0.00000000000E+00 0. -1.
         -2   -1    0    0    0  501 -0.00000000000E+00 -0.00000000000E+00 -0.13922633945E+02  0.13922633945E+02  0.00000000000E+00 0.  1.
         25    2    1    2    0    0 -0.96765812311E+02 -0.31862895229E+02  0.85056336025E+03  0.86572753597E+03  0.12508904912E+03 0.  0.
          5    1    3    3  502    0  0.97149370384E+01 -0.25684133451E+00  0.44733471914E+03  0.44745979631E+03  0.41800000000E+01 0.  1.
         -5    1    3    3    0  502 -0.10648074935E+03 -0.31606053894E+02  0.40322864111E+03  0.41826773965E+03  0.41800000000E+01 0.  1.
        -11    1    1    2    0    0  0.56941512446E+02 -0.29124576722E+02  0.32613687141E+03  0.33234896675E+03  0.00000000000E+00 0. -1.
         11    1    1    2    0    0  0.39824299866E+02  0.60987471951E+02  0.40683268331E+03  0.41330168014E+03  0.00000000000E+00 0.  1.
</event>
<event>
 7    1  0.2394257E-009  0.1027791E+03  0.7561462E-02  0.1274558E+00
          1   -1    0    0  501    0  0.00000000000E+00  0.00000000000E+00  0.30494315830E+02  0.30494315830E+02  0.00000000000E+00 0. -1.
         -1   -1    0    0    0  501 -0.00000000000E+00 -0.00000000000E+00 -0.40593350508E+03  0.40593350508E+03  0.00000000000E+00 0.  1.
         25    2    1    2    0    0 -0.38657569999E+02 -0.12885585328E+02 -0.26433147621E+03  0.29526188969E+03  0.12509199877E+03 0.  0.
          5    1    3    3  502    0 -0.54124572997E+02  0.43984527586E+02 -0.17194338620E+03  0.18559662854E+03  0.41800000000E+01 0. -1.
         -5    1    3    3    0  502  0.15467002999E+02 -0.56870112914E+02 -0.92388090018E+02  0.10966526114E+03  0.41800000000E+01 0. -1.
        -11    1    1    2    0    0  0.43513832051E+02  0.33822792436E+02 -0.10538170221E+03  0.11892324428E+03  0.00000000000E+00 0. -1.
         11    1    1    2    0    0 -0.48562620523E+01 -0.20937207108E+02 -0.57260108189E+01  0.22242686945E+02  0.00000000000E+00 0.  1.
</event>
<event>
 7    1  0.2394257E-009  0.1093152E+03  0.7561462E-02  0.1261843E+00
         -2   -1    0    0    0  501 -0.00000000000E+00  0.00000000000E+00  0.98236144906E+02  0.98236144906E+02  0.00000000000E+00 0.  1.
          2   -1    0    0  501    0  0.00000000000E+00 -0.00000000000E+00 -0.14126651605E+03  0.14126651605E+03  0.00000000000E+00 0. -1.
         25    2    1    2    0    0  0.40917495005E+02  0.71119867591E+01 -0.44169728056E+02  0.13900871641E+03  0.12509051366E+03 0.  0.
          5    1    3    3  502    0  0.52999247894E+02  0.55670530613E+02 -0.85642698780E+01  0.77452871958E+02  0.41800000000E+01 0. -1.
         -5    1    3    3    0  502 -0.12081752889E+02 -0.48558543854E+02 -0.35605458178E+02  0.61555844451E+02  0.41800000000E+01 0. -1.
        -11    1    1    2    0    0 -0.46500610983E+02  0.29063088416E+02 -0.19828028293E+02  0.58310553385E+02  0.00000000000E+00 0. -1.
         11    1    1    2    0    0  0.55831159783E+01 -0.36175075175E+02  0.20967385202E+02  0.42183391165E+02  0.00000000000E+00 0.  1.
</event>
<event>
 7    1  0.2394257E-009  0.1125766E+03  0.7561462E-02  0.1255871E+00
          3   -1    0    0  501    0  0.00000000000E+00  0.00000000000E+00  0.48150439048E+02  0.48150439048E+02  0.00000000000E+00 0. -1.
         -3   -1    0    0    0  501 -0.00000000000E+00 -0.00000000000E+00 -0.39445845894E+03  0.39445845894E+03  0.00000000000E+00 0.  1.
         25    2    1    2    0    0 -0.28634211531E+02 -0.41896101489E+02 -0.89701896544E+02  0.16207718811E+03  0.12508950105E+03 0.  0.
          5    1    3    3  502    0 -0.29121977368E+02 -0.84629885398E+02 -0.74501279373E+02  0.11652561991E+03  0.41800000000E+01 0.  1.
         -5    1    3    3    0  502  0.48776583751E+00  0.42733783909E+02 -0.15200617171E+02  0.45551568196E+02  0.41800000000E+01 0.  1.
        -11    1    1    2    0    0 -0.43435776234E+01  0.56415377581E+02 -0.22685234442E+03  0.23380236882E+03  0.00000000000E+00 0.  1.
         11    1    1    2    0    0  0.32977789154E+02 -0.14519276092E+02 -0.29753778928E+02  0.46729341063E+02  0.00000000000E+00 0. -1.
</event>
<event>
 7    1  0.2394257E-009  0.1155810E+03  0.7561462E-02  0.1250570E+00
         -2   -1    0    0    0  501 -0.00000000000E+00  0.00000000000E+00  0.15462371668E+02  0.15462371668E+02  0.00000000000E+00 0.  1.
          2   -1    0    0  501    0  0.00000000000E+00 -0.00000000000E+00 -0.11517048340E+04  0.11517048340E+04  0.00000000000E+00 0. -1.
         25    2    1    2    0    0 -0.58580948511E+02 -0.51493826635E+02 -0.75284715586E+03  0.76714309730E+03  0.12508537057E+03 0.  0.
          5    1    3    3  502    0 -0.29114137282E+02 -0.83588661255E+02 -0.31853113655E+03  0.33062706277E+03  0.41800000000E+01 0.  1.
         -5    1    3    3    0  502 -0.29466811229E+02  0.32094834620E+02 -0.43431601931E+03  0.43651603453E+03  0.41800000000E+01 0.  1.
        -11    1    1    2    0    0  0.10070588496E+02  0.49194071265E+02 -0.93897442147E+02  0.10648099850E+03  0.00000000000E+00 0.  1.
         11    1    1    2    0    0  0.48510360015E+02  0.22997553701E+01 -0.28949786433E+03  0.29354310987E+03  0.00000000000E+00 0. -1.
</event>
<event>
 7    1  0.2394257E-009  0.1938134E+03  0.7561462E-02  0.1155066E+00
         -2   -1    0    0    0  501 -0.00000000000E+00  0.00000000000E+00  0.40711659935E+02  0.40711659935E+02  0.00000000000E+00 0.  1.
          2   -1    0    0  501    0  0.00000000000E+00 -0.00000000000E+00 -0.10475970539E+04  0.10475970539E+04  0.00000000000E+00 0. -1.
         25    2    1    2    0    0  0.73366948528E+02  0.14650296007E+03 -0.36474764394E+03  0.41896236758E+03  0.12507116074E+03 0.  0.
          5    1    3    3  502    0 -0.95141022979E+01 -0.16131456633E+02 -0.66976787465E+02  0.69671403709E+02  0.41800000000E+01 0. -1.
         -5    1    3    3    0  502  0.82881050826E+02  0.16263441670E+03 -0.29777085647E+03  0.34929096387E+03  0.41800000000E+01 0. -1.
        -11    1    1    2    0    0  0.16332666940E+02 -0.56389616171E+02 -0.26241651213E+03  0.26890327380E+03  0.00000000000E+00 0. -1.
         11    1    1    2    0    0 -0.89699615467E+02 -0.90113343894E+02 -0.37972123785E+03  0.40044307240E+03  0.00000000000E+00 0.  1.
</event>
<event>
 7    1  0.2394257E-009  0.2450227E+03  0.7561462E-02  0.1116491E+00
          2   -1    0    0  501    0  0.00000000000E+00  0.00000000000E+00  0.66518802310E+03  0.66518802310E+03  0.00000000000E+00 0. -1.
         -2   -1    0    0    0  501 -0.00000000000E+00 -0.00000000000E+00 -0.10217891302E+03  0.10217891302E+03  0.00000000000E+00 0.  1.
         25    2    1    2    0    0  0.17973452332E+03  0.15416121518E+03  0.28134877369E+03  0.38842733134E+03  0.12509388531E+03 0.  0.
          5    1    3    3  502    0  0.10829746444E+02  0.29903847532E+02 -0.60470093068E+01  0.32642950645E+02  0.41800000000E+01 0.  1.
         -5    1    3    3    0  502  0.16890477688E+03  0.12425736765E+03  0.28739578299E+03  0.35578438070E+03  0.41800000000E+01 0.  1.
        -11    1    1    2    0    0 -0.33286424180E+02 -0.74335069197E+02  0.58239272502E+02  0.10012742586E+03  0.00000000000E+00 0.  1.
         11    1    1    2    0    0 -0.14644809914E+03 -0.79826145982E+02  0.22342106389E+03  0.27881217892E+03  0.00000000000E+00 0. -1.
</event>
<event>
 7    1  0.2394257E-009  0.1227872E+03  0.7561462E-02  0.1238569E+00
         -1   -1    0    0    0  501 -0.00000000000E+00  0.00000000000E+00  0.10135406300E+03  0.10135406300E+03  0.00000000000E+00 0.  1.
          1   -1    0    0  501    0  0.00000000000E+00 -0.00000000000E+00 -0.28271887058E+03  0.28271887058E+03  0.00000000000E+00 0. -1.
         25    2    1    2    0    0 -0.49135300729E+02  0.76382841745E+02 -0.20049118203E+03  0.25316560307E+03  0.12508993651E+03 0.  0.
          5    1    3    3  502    0 -0.88151840117E+02  0.50838246026E+02 -0.10215341909E+03  0.14425001770E+03  0.41800000000E+01 0. -1.
         -5    1    3    3    0  502  0.39016539389E+02  0.25544595719E+02 -0.98337762937E+02  0.10891558537E+03  0.41800000000E+01 0. -1.
        -11    1    1    2    0    0  0.16563286297E+01 -0.31586267468E+02  0.49632715116E+02  0.58854414676E+02  0.00000000000E+00 0.  1.
         11    1    1    2    0    0  0.47478972099E+02 -0.44796574277E+02 -0.30506340670E+02  0.72052915830E+02  0.00000000000E+00 0. -1.
</event>
<event>
 7    1  0.2394257E-009  0.9008442E+02  0.7561462E-02  0.1302647E+00
         -2   -1    0    0    0  501 -0.00000000000E+00  0.00000000000E+00  0.45713002134E+03  0.45713002134E+03  0.00000000000E+00 0.  1.
          2   -1    0    0  501    0  0.00000000000E+00 -0.00000000000E+00 -0.26042213518E+02  0.26042213518E+02  0.00000000000E+00 0. -1.
         25    2    1    2    0    0  0.14003465274E+02 -0.15485741165E+02  0.30384951187E+03  0.32925006167E+03  0.12508066208E+03 0.  0.
          5    1    3    3  502    0 -0.49305539302E+02 -0.21416695414E+02  0.79749142062E+02  0.96265825234E+02  0.41800000000E+01 0. -1.
         -5    1    3    3    0  502  0.63309004576E+02  0.59309542487E+01  0.22410036981E+03  0.23298423643E+03  0.41800000000E+01 0. -1.
        -11    1    1    2    0    0 -0.25001831706E+02 -0.15656723647E+02  0.85345054351E+01  0.30709320524E+02  0.00000000000E+00 0. -1.
         11    1    1    2    0    0  0.10998366432E+02  0.31142464812E+02  0.11870379051E+03  0.12321285266E+03  0.00000000000E+00 0.  1.
</event>
<event>
 7    1  0.2394257E-009  0.9555983E+02  0.7561462E-02  0.1289920E+00
         -4   -1    0    0    0  501 -0.00000000000E+00  0.00000000000E+00  0.74071936458E+02  0.74071936458E+02  0.00000000000E+00 0. -1.
          4   -1    0    0  501    0  0.00000000000E+00 -0.00000000000E+00 -0.21215522206E+03  0.21215522206E+03  0.00000000000E+00 0.  1.
         25    2    1    2    0    0  0.49219655555E+02 -0.82626948173E+01 -0.32912654682E+02  0.13864357286E+03  0.12509176967E+03 0.  0.
          5    1    3    3  502    0  0.76429867276E+02  0.22300429390E+02 -0.49993518282E+02  0.94104505913E+02  0.41800000000E+01 0. -1.
         -5    1    3    3    0  502 -0.27210211721E+02 -0.30563124207E+02  0.17080863600E+02  0.44539066947E+02  0.41800000000E+01 0. -1.
        -11    1    1    2    0    0 -0.36181931318E+02  0.28587439868E+02 -0.71881128081E+01  0.46669506510E+02  0.00000000000E+00 0. -1.
         11    1    1    2    0    0 -0.13037724237E+02 -0.20324745051E+02 -0.97982518117E+02  0.10091407915E+03  0.00000000000E+00 0.  1.
</event>
<event>
 7    1  0.2394257E-009  0.1274796E+03  0.7561462E-02  0.1231244E+00
          1   -1    0    0  501    0  0.00000000000E+00  0.00000000000E+00  0.25203847789E+03  0.25203847789E+03  0.00000000000E+00 0. -1.
         -1   -1    0    0    0  501 -0.00000000000E+00 -0.00000000000E+00 -0.73446511700E+02  0.73446511700E+02  0.00000000000E+00 0.  1.
         25    2    1    2    0    0  0.18981746378E+02  0.61684930037E+02  0.15001608975E+03  0.20570922002E+03  0.12508444638E+03 0.  0.
          5    1    3    3  502    0  0.57260600909E+02  0.77980688166E+02  0.12020122399E+03  0.15435533937E+03  0.41800000000E+01 0.  1.
         -5    1    3    3    0  502 -0.38278854531E+02 -0.16295758129E+02  0.29814865764E+02  0.51353880649E+02  0.41800000000E+01 0.  1.
        -11    1    1    2    0    0 -0.12392775585E+01  0.26413797713E+02  0.59622165735E+01  0.27106688196E+02  0.00000000000E+00 0.  1.
         11    1    1    2    0    0 -0.17742468819E+02 -0.88098727750E+02  0.22613659865E+02  0.92669081378E+02  0.00000000000E+00 0. -1.
</event>
<event>
 7    1  0.2394257E-009  0.1027790E+03  0.7561462E-02  0.1274558E+00
         -1   -1    0    0    0  501 -0.00000000000E+00  0.00000000000E+00  0.17582760807E+03  0.17582760807E+03  0.00000000000E+00 0.  1.
          1   -1    0    0  501    0  0.00000000000E+00 -0.00000000000E+00 -0.10063057816E+03  0.10063057816E+03  0.00000000000E+00 0. -1.
         25    2    1    2    0    0  0.65981797454E+02 -0.14878392136E+02  0.76026077658E+02  0.16125245983E+03  0.12508967651E+03 0.  0.
          5    1    3    3  502    0 -0.17181196955E+01 -0.37054903031E+02 -0.19419519235E+02  0.42078591960E+02  0.41800000000E+01 0.  1.
         -5    1    3    3    0  502  0.67699917149E+02  0.22176510896E+02  0.95445596893E+02  0.11917386787E+03  0.41800000000E+01 0.  1.
        -11    1    1    2    0    0 -0.15563900760E+02  0.38249764109E+02  0.30568285301E+02  0.51378006262E+02  0.00000000000E+00 0. -1.
         11    1    1    2    0    0 -0.50417896694E+02 -0.23371371973E+02 -0.31397333052E+02  0.63827720136E+02  0.00000000000E+00 0.  1.
</event>
<event>
 7    1  0.2394257E-009  0.1122895E+03  0.7561462E-02  0.1256388E+00
         -1   -1    0    0    0  501 -0.00000000000E+00  0.00000000000E+00  0.15118352103E+03  0.15118352103E+03  0.00000000000E+00 0.  1.
          1   -1    0    0  501    0  0.00000000000E+00 -0.00000000000E+00 -0.10760153596E+03  0.10760153596E+03  0.00000000000E+00 0. -1.
         25    2    1    2    0    0  0.56593407125E+02 -0.34098982077E+02  0.12196519219E+02  0.14199241641E+03  0.12509011523E+03 0.  0.
          5    1    3    3  502    0  0.67582320552E+02  0.11308429310E+02  0.47334028770E+02  0.83386049818E+02  0.41800000000E+01 0.  1.
         -5    1    3    3    0  502 -0.10988913427E+02 -0.45407411387E+02 -0.35137509551E+02  0.58606366588E+02  0.41800000000E+01 0.  1.
        -11    1    1    2    0    0 -0.79522790129E+02  0.32913489976E+02  0.12306796515E+02  0.86940377344E+02  0.00000000000E+00 0. -1.
         11    1    1    2    0    0  0.22929383004E+02  0.11854921015E+01  0.19078669344E+02  0.29852263238E+02  0.00000000000E+00 0.  1.
</event>
<event>
 7    1  0.2394257E-009  0.1010582E+03  0.7561462E-02  0.1278086E+00
          1   -1    0    0  501    0  0.00000000000E+00  0.00000000000E+00  0.10403311362E+03  0.10403311362E+03  0.00000000000E+00 0. -1.
         -1   -1    0    0    0  501 -0.00000000000E+00 -0.00000000000E+00 -0.15540797423E+03  0.15540797423E+03  0.00000000000E+00 0.  1.
         25    2    1    2    0    0  0.34191014995E+02  0.40571973979E+02  0.16749248597E+02  0.13690471695E+03  0.12508898280E+03 0.  0.
          5    1    3    3  502    0  0.62508080000E+02 -0.19241487586E+02 -0.82203023831E+01  0.66049532028E+02  0.41800000000E+01 0. -1.
         -5    1    3    3    0  502 -0.28317065004E+02  0.59813461565E+02  0.24969550980E+02  0.70855184927E+02  0.41800000000E+01 0. -1.
        -11    1    1    2    0    0 -0.25609447503E+02 -0.50817705783E+02 -0.84202615809E+02  0.10162855667E+03  0.00000000000E+00 0.  1.
         11    1    1    2    0    0 -0.85815674923E+01  0.10245731804E+02  0.16078506599E+02  0.20907814216E+02  0.00000000000E+00 0. -1.
</event>
<event>
 7    1  0.2394257E-009  0.7476390E+02  0.7561462E-02  0.1344604E+00
          1   -1    0    0  501    0  0.00000000000E+00  0.00000000000E+00  0.62243530699E+02  0.62243530699E+02  0.00000000000E+00 0. -1.
         -1   -1    0    0    0  501 -0.00000000000E+00 -0.00000000000E+00 -0.23679942394E+03  0.23679942394E+03  0.00000000000E+00 0.  1.
         25    2    1    2    0    0 -0.16762635946E+02  0.31482770258E+02 -0.14805173638E+03  0.19707581107E+03  0.12508959940E+03 0.  0.
          5    1    3    3  502    0  0.24236111908E+02  0.55549070664E+02 -0.13431462121E+03  0.14741430813E+03  0.41800000000E+01 0. -1.
         -5    1    3    3    0  502 -0.40998747854E+02 -0.24066300406E+02 -0.13737115166E+02  0.49661502937E+02  0.41800000000E+01 0. -1.
        -11    1    1    2    0    0  0.10318321940E+02 -0.15483696522E+01 -0.57475350732E+02  0.58414734083E+02  0.00000000000E+00 0.  1.
         11    1    1    2    0    0  0.64443140058E+01 -0.29934400606E+02  0.30971193866E+02  0.43552409487E+02  0.00000000000E+00 0. -1.
</event>
<event>
 7    1  0.2394257E-009  0.7384128E+02  0.7561462E-02  0.1347497E+00
         -2   -1    0    0    0  501 -0.00000000000E+00  0.00000000000E+00  0.41047941401E+02  0.41047941401E+02  0.00000000000E+00 0.  1.
          2   -1    0    0  501    0  0.00000000000E+00 -0.00000000000E+00 -0.33094623957E+03  0.33094623957E+03  0.00000000000E+00 0. -1.
         25    2    1    2    0    0 -0.16937857316E+02 -0.19777219786E+02 -0.21193185467E+03  0.24746724692E+03  0.12508756070E+03 0.  0.
          5    1    3    3  502    0 -0.26120611470E+02 -0.27519056332E+02 -0.31529935755E+01  0.38301417382E+02  0.41800000000E+01 0.  1.
         -5    1    3    3    0  502  0.91827541547E+01  0.77418365464E+01 -0.20877886110E+03  0.20916582954E+03  0.41800000000E+01 0.  1.
        -11    1    1    2    0    0 -0.37348590861E+02 -0.39334411864E+01 -0.35112571618E+02  0.51412857191E+02  0.00000000000E+00 0.  1.
         11    1    1    2    0    0  0.54286448177E+02  0.23710660972E+02 -0.42853871878E+02  0.73114076855E+02  0.00000000000E+00 0. -1.
</event>
<event>
 7    1  0.2394257E-009  0.8455063E+02  0.7561462E-02  0.1316612E+00
         -2   -1    0    0    0  501 -0.00000000000E+00  0.00000000000E+00  0.41358639035E+02  0.41358639035E+02  0.00000000000E+00 0.  1.
          2   -1    0    0  501    0  0.00000000000E+00 -0.00000000000E+00 -0.35103655211E+03  0.35103655211E+03  0.00000000000E+00 0. -1.
         25    2    1    2    0    0  0.35932402403E+02  0.28150538159E+02 -0.12380682491E+03  0.18182280565E+03  0.12509121639E+03 0.  0.
          5    1    3    3  502    0  0.68598810412E+01  0.51676819354E+02 -0.13314660111E+03  0.14304908743E+03  0.41800000000E+01 0. -1.
         -5    1    3    3    0  502  0.29072521362E+02 -0.23526281195E+02  0.93397761995E+01  0.38773718220E+02  0.41800000000E+01 0. -1.
        -11    1    1    2    0    0 -0.54611088011E+02 -0.16067938951E+02 -0.17815099665E+03  0.18702493738E+03  0.00000000000E+00 0. -1.
         11    1    1    2    0    0  0.18678685608E+02 -0.12082599208E+02 -0.77200915112E+01  0.23547448112E+02  0.00000000000E+00 0.  1.
</event>
<event>
 7    1  0.2394257E-009  0.1530838E+03  0.7561462E-02  0.1196734E+00
          2   -1    0    0  501    0  0.00000000000E+00  0.00000000000E+00  0.62780818970E+03  0.62780818970E+03  0.00000000000E+00 0. -1.
         -2   -1    0    0    0  501 -0.00000000000E+00 -0.00000000000E+00 -0.44257327433E+02  0.44257327433E+02  0.00000000000E+00 0.  1.
         25    2    1    2    0    0  0.50149558549E+02  0.11047565279E+03  0.38650402233E+03  0.42397339828E+03  0.12509290583E+03 0.  0.
          5    1    3    3  502    0  0.16805687424E+01 -0.23594258467E+02  0.11290449222E+03  0.11543140867E+03  0.41800000000E+01 0.  1.
         -5    1    3    3    0  502  0.48468989807E+02  0.13406991125E+03  0.27359953011E+03  0.30854198961E+03  0.41800000000E+01 0.  1.
        -11    1    1    2    0    0 -0.26950746003E+02 -0.11301692424E+03  0.11770552374E+03  0.16538971611E+03  0.00000000000E+00 0.  1.
         11    1    1    2    0    0 -0.23198812546E+02  0.25412714568E+01  0.79341316196E+02  0.82702402745E+02  0.00000000000E+00 0. -1.
</event>
<event>
 7    1  0.2394257E-009  0.1485187E+03  0.7561462E-02  0.1202305E+00
          1   -1    0    0  501    0  0.00000000000E+00  0.00000000000E+00  0.98658000810E+03  0.98658000810E+03  0.00000000000E+00 0. -1.
         -1   -1    0    0    0  501 -0.00000000000E+00 -0.00000000000E+00 -0.32626385603E+02  0.32626385603E+02  0.00000000000E+00 0.  1.
         25    2    1    2    0    0 -0.14243033754E+03 -0.15229255156E+01  0.50707251484E+03  0.54134908342E+03  0.12509026525E+03 0.  0.
          5    1    3    3  502    0 -0.14530907844E+03  0.32693189601E+01  0.51235928901E+03  0.53259264937E+03  0.41800000000E+01 0.  1.
         -5    1    3    3    0  502  0.28787409004E+01 -0.47922444757E+01 -0.52867741677E+01  0.87564340565E+01  0.41800000000E+01 0.  1.
        -11    1    1    2    0    0  0.93702633044E+02  0.12972582920E+02  0.39337046654E+03  0.40458471955E+03  0.00000000000E+00 0. -1.
         11    1    1    2    0    0  0.48727704496E+02 -0.11449657405E+02  0.53510641118E+02  0.73272590735E+02  0.00000000000E+00 0.  1.
</event>
<event>
 7    1  0.2394257E-009  0.1348818E+03  0.7561462E-02  0.1220387E+00
          2   -1    0    0  501    0  0.00000000000E+00  0.00000000000E+00  0.54628516753E+03  0.54628516753E+03  0.00000000000E+00 0. -1.
         -2   -1    0    0    0  501 -0.00000000000E+00 -0.00000000000E+00 -0.58693038513E+02  0.58693038513E+02  0.00000000000E+00 0.  1.
         25    2    1    2    0    0 -0.38688921777E+02 -0.11922484413E+03  0.37011302595E+03  0.41029582834E+03  0.12509044188E+03 0.  0.
          5    1    3    3  502    0  0.14106591383E+01  0.79790822601E+01 -0.61989846189E+01  0.11025222139E+02  0.41800000000E+01 0.  1.
         -5    1    3    3    0  502 -0.40099580915E+02 -0.12720392639E+03  0.37631201057E+03  0.39927060620E+03  0.41800000000E+01 0.  1.
        -11    1    1    2    0    0  0.32012829524E+02  0.63805705974E+02  0.11908163903E+03  0.13883956973E+03  0.00000000000E+00 0. -1.
         11    1    1    2    0    0  0.66760922534E+01  0.55419138154E+02 -0.16025359559E+01  0.55842807979E+02  0.00000000000E+00 0.  1.
</event>
<event>
 7    1  0.2394257E-009  0.8087594E+02  0.7561462E-02  0.1326584E+00
          1   -1    0    0  501    0  0.00000000000E+00  0.00000000000E+00  0.60149983105E+02  0.60149983105E+02  0.00000000000E+00 0. -1.
         -1   -1    0    0    0  501 -0.00000000000E+00 -0.00000000000E+00 -0.21363827715E+03  0.21363827715E+03  0.00000000000E+00 0.  1.
         25    2    1    2    0    0 -0.14331016147E+02  0.24917782953E+02 -0.65319400160E+02  0.14400808532E+03  0.12508169598E+03 0.  0.
          5    1    3    3  502    0 -0.47449039601E+02 -0.34529187598E+02 -0.40628383833E+02  0.71496951879E+02  0.41800000000E+01 0. -1.
         -5    1    3    3    0  502  0.33118023453E+02  0.59446970551E+02 -0.24691016328E+02  0.72511133437E+02  0.41800000000E+01 0. -1.
        -11    1    1    2    0    0  0.37287175726E+01 -0.23789946313E+02 -0.10616554108E+03  0.10886223860E+03  0.00000000000E+00 0.  1.
         11    1    1    2    0    0  0.10602298575E+02 -0.11278366397E+01  0.17996647192E+02  0.20917936340E+02  0.00000000000E+00 0. -1.
</event>
<event>
 7    1  0.2394257E-009  0.1124020E+03  0.7561462E-02  0.1256185E+00
         -2   -1    0    0    0  501 -0.00000000000E+00  0.00000000000E+00  0.26518764867E+02  0.26518764867E+02  0.00000000000E+00 0.  1.
          2   -1    0    0  501    0  0.00000000000E+00 -0.00000000000E+00 -0.55693001516E+03  0.55693001516E+03  0.00000000000E+00 0. -1.
         25    2    1    2    0    0  0.17523846167E+02 -0.26491464895E+02 -0.21745457016E+03  0.25286682810E+03  0.12508501018E+03 0.  0.
          5    1    3    3  502    0  0.47235559551E+02  0.33544329591E+02 -0.13193696420E+03  0.14415704997E+03  0.41800000000E+01 0. -1.
         -5    1    3    3    0  502 -0.29711713384E+02 -0.60035794486E+02 -0.85517605962E+02  0.10870977813E+03  0.41800000000E+01 0. -1.
        -11    1    1    2    0    0  0.39244075253E+02  0.10423754599E+02 -0.73562293361E+02  0.84024776744E+02  0.00000000000E+00 0.  1.
         11    1    1    2    0    0 -0.56767921420E+02  0.16067710296E+02 -0.23939438677E+03  0.24655717518E+03  0.00000000000E+00 0. -1.
</event>
<event>
 7    1  0.2394257E-009  0.3414848E+03  0.7561462E-02  0.1066165E+00
          1   -1    0    0  501    0  0.00000000000E+00  0.00000000000E+00  0.56324380354E+03  0.56324380354E+03  0.00000000000E+00 0. -1.
         -1   -1    0    0    0  501 -0.00000000000E+00 -0.00000000000E+00 -0.21399058145E+03  0.21399058145E+03  0.00000000000E+00 0.  1.
         25    2    1    2    0    0 -0.32580231946E+03 -0.44867907908E+02  0.19960720466E+03  0.40453866253E+03  0.12509281676E+03 0.  0.
          5    1    3    3  502    0 -0.25666236793E+02 -0.43199239639E+02  0.17115307031E+02  0.53247874618E+02  0.41800000000E+01 0. -1.
         -5    1    3    3    0  502 -0.30013608267E+03 -0.16686682686E+01  0.18249189763E+03  0.35129078792E+03  0.41800000000E+01 0. -1.
        -11    1    1    2    0    0  0.20283533854E+03  0.42638104278E+01  0.13190130215E+03  0.24198823969E+03  0.00000000000E+00 0. -1.
         11    1    1    2    0    0  0.12296698092E+03  0.40604097480E+02  0.17744715278E+02  0.13070748276E+03  0.00000000000E+00 0.  1.
</event>
<event>
 7    1  0.2810687E-009  0.1082530E+03  0.7561462E-02  0.1263840E+00
         -2   -1    0    0    0  501 -0.00000000000E+00  0.00000000000E+00  0.68984526720E+02  0.68984526720E+02  0.00000000000E+00 0.  1.
          2   -1    0    0  501    0  0.00000000000E+00 -0.00000000000E+00 -0.32358939369E+03  0.32358939369E+03  0.00000000000E+00 0. -1.
         25    2    1    2    0    0 -0.61621318988E+02 -0.50781495176E+02 -0.22271120151E+03  0.26762689159E+03  0.12509167287E+03 0.  0.
          5    1    3    3  502    0 -0.13635618887E+02 -0.55838741328E+02 -0.20970320281E+03  0.21747827663E+03  0.41800000000E+01 0. -1.
         -5    1    3    3    0  502 -0.47985700102E+02  0.50572461521E+01 -0.13007998695E+02  0.50148614965E+02  0.41800000000E+01 0. -1.
        -11    1    1    2    0    0  0.55977594892E+01 -0.19658583148E+02  0.13147524494E+02  0.24303337281E+02  0.00000000000E+00 0.  1.
         11    1    1    2    0    0  0.56023559499E+02  0.70440078325E+02 -0.45041189959E+02  0.10064369154E+03  0.00000000000E+00 0. -1.
</event>
<event>
 7    1  0.2394257E-009  0.9595145E+02  0.7561462E-02  0.1289047E+00
         -4   -1    0    0    0  501 -0.00000000000E+00  0.00000000000E+00  0.19752897758E+03  0.19752897758E+03  0.00000000000E+00 0. -1.
          4   -1    0    0  501    0  0.00000000000E+00 -0.00000000000E+00 -0.64023273246E+02  0.64023273246E+02  0.00000000000E+00 0.  1.
         25    2    1    2    0    0  0.10948506083E+02  0.47224811306E+02  0.85696872283E+02  0.15919261329E+03  0.12509309181E+03 0.  0.
          5    1    3    3  502    0 -0.30232586556E+02 -0.22066893618E+02 -0.47590766031E+01  0.37961537033E+02  0.41800000000E+01 0. -1.
         -5    1    3    3    0  502  0.41181092638E+02  0.69291704924E+02  0.90455948886E+02  0.12123107626E+03  0.41800000000E+01 0. -1.
        -11    1    1    2    0    0  0.11498720283E+02  0.79376741816E+01 -0.11659070295E+02  0.18197833928E+02  0.00000000000E+00 0.  1.
         11    1    1    2    0    0 -0.22447226366E+02 -0.55162485488E+02  0.59467902341E+02  0.84161803602E+02  0.00000000000E+00 0. -1.
</event>
<event>
 7    1  0.2394257E-009  0.1833112E+03  0.7561462E-02  0.1164636E+00
          1   -1    0    0  501    0  0.00000000000E+00  0.00000000000E+00  0.11096124912E+03  0.11096124912E+03  0.00000000000E+00 0. -1.
         -1   -1    0    0    0  501 -0.00000000000E+00 -0.00000000000E+00 -0.47526918643E+03  0.47526918643E+03  0.00000000000E+00 0.  1.
         25    2    1    2    0    0  0.40786836324E+02 -0.16356537822E+03 -0.33101957606E+03  0.39197028556E+03  0.12509814567E+03 0.  0.
          5    1    3    3  502    0  0.69863539193E+02 -0.96349517817E+02 -0.27498016647E+03  0.29965931997E+03  0.41800000000E+01 0.  1.
         -5    1    3    3    0  502 -0.29076702869E+02 -0.67215860407E+02 -0.56039409594E+02  0.92310965587E+02  0.41800000000E+01 0.  1.
        -11    1    1    2    0    0 -0.46335673067E+02  0.98222659398E+02 -0.59268728751E+02  0.12372335117E+03  0.00000000000E+00 0.  1.
         11    1    1    2    0    0  0.55488367425E+01  0.65342718826E+02  0.25980367501E+02  0.70536798824E+02  0.00000000000E+00 0. -1.
</event>
<event>
 7    1  0.2394257E-009  0.1316375E+03  0.7561462E-02  0.1225046E+00
          2   -1    0    0  501    0  0.00000000000E+00  0.00000000000E+00  0.40440422754E+03  0.40440422754E+03  0.00000000000E+00 0. -1.
         -2   -1    0    0    0  501 -0.00000000000E+00 -0.00000000000E+00 -0.57469262030E+02  0.57469262030E+02  0.00000000000E+00 0.  1.
         25    2    1    2    0    0 -0.95565125568E+01  0.98920323122E+02  0.12587425668E+03  0.20339129058E+03  0.12508849400E+03 0.  0.
          5    1    3    3  502    0 -0.44707042481E+02  0.92699578711E+02  0.13147359029E+03  0.16701709159E+03  0.41800000000E+01 0. -1.
         -5    1    3    3    0  502  0.35150529924E+02  0.62207444107E+01 -0.55993336138E+01  0.36374198986E+02  0.41800000000E+01 0. -1.
        -11    1    1    2    0    0  0.20636235672E+02  0.38280584878E+01  0.95176714552E+01  0.23045483818E+02  0.00000000000E+00 0. -1.
         11    1    1    2    0    0 -0.11079723115E+02 -0.10274838161E+03  0.21154303738E+03  0.23543671517E+03  0.00000000000E+00 0.  1.
</event>
<event>
 7    1  0.2394257E-009  0.1514811E+03  0.7561462E-02  0.1198665E+00
         -3   -1    0    0    0  501 -0.00000000000E+00  0.00000000000E+00  0.57554137263E+03  0.57554137263E+03  0.00000000000E+00 0.  1.
          3   -1    0    0  501    0  0.00000000000E+00 -0.00000000000E+00 -0.45742810620E+02  0.45742810620E+02  0.00000000000E+00 0. -1.
         25    2    1    2    0    0 -0.35894412351E+02  0.99558603685E+02  0.38835353362E+03  0.42150478585E+03  0.12508993969E+03 0.  0.
          5    1    3    3  502    0  0.39892281545E+02  0.22233308139E+01  0.10567551924E+03  0.11305363813E+03  0.41800000000E+01 0.  1.
         -5    1    3    3    0  502 -0.75786693896E+02  0.97335272871E+02  0.28267801438E+03  0.30845114772E+03  0.41800000000E+01 0.  1.
        -11    1    1    2    0    0 -0.29029975989E+02 -0.49469170762E+02  0.43180241446E+02  0.71794648918E+02  0.00000000000E+00 0. -1.
         11    1    1    2    0    0  0.64924388340E+02 -0.50089432922E+02  0.98264786941E+02  0.12798474848E+03  0.00000000000E+00 0.  1.
</event>
<event>
 7    1  0.2394257E-009  0.1019171E+03  0.7561462E-02  0.1276315E+00
          2   -1    0    0  501    0  0.00000000000E+00  0.00000000000E+00  0.48448811081E+03  0.48448811081E+03  0.00000000000E+00 0. -1.
         -2   -1    0    0    0  501 -0.00000000000E+00 -0.00000000000E+00 -0.24091574013E+02  0.24091574013E+02  0.00000000000E+00 0.  1.
         25    2    1    2    0    0  0.50824492242E+01  0.12642473609E+00  0.23497504254E+03  0.26624618161E+03  0.12509161176E+03 0.  0.
          5    1    3    3  502    0 -0.13090562876E+01 -0.59166853417E+02  0.15807321031E+03  0.16884028663E+03  0.41800000000E+01 0. -1.
         -5    1    3    3    0  502  0.63915055118E+01  0.59293278153E+02  0.76901832229E+02  0.97405894981E+02  0.41800000000E+01 0. -1.
        -11    1    1    2    0    0  0.40780044252E+01 -0.41828073622E+02  0.14877984080E+03  0.15460161348E+03  0.00000000000E+00 0.  1.
         11    1    1    2    0    0 -0.91604536494E+01  0.41701648886E+02  0.76641653455E+02  0.87731889728E+02  0.00000000000E+00 0. -1.
</event>
<event>
 7    1  0.2394257E-009  0.1032100E+03  0.7561462E-02  0.1273687E+00
          2   -1    0    0  501    0  0.00000000000E+00  0.00000000000E+00  0.23309356255E+03  0.23309356255E+03  0.00000000000E+00 0. -1.
         -2   -1    0    0    0  501 -0.00000000000E+00 -0.00000000000E+00 -0.69828195584E+02  0.69828195584E+02  0.00000000000E+00 0.  1.
         25    2    1    2    0    0  0.13350471653E+02  0.66764620878E+02  0.10874048988E+03  0.17918557236E+03  0.12508887044E+03 0.  0.
          5    1    3    3  502    0  0.40433663184E+02 -0.40282664828E+01 -0.63253522960E+01  0.41335100472E+02  0.41800000000E+01 0.  1.
         -5    1    3    3    0  502 -0.27083191531E+02  0.70792887360E+02  0.11506584218E+03  0.13785047189E+03  0.41800000000E+01 0.  1.
        -11    1    1    2    0    0 -0.36409988450E+02 -0.35896686370E+02 -0.65248718659E+01  0.51544478891E+02  0.00000000000E+00 0.  1.
         11    1    1    2    0    0  0.23059516797E+02 -0.30867934507E+02  0.61049748953E+02  0.72191706884E+02  0.00000000000E+00 0. -1.
</event>
<event>
 7    1  0.2394257E-009  0.8428056E+02  0.7561462E-02  0.1317325E+00
          1   -1    0    0  501    0  0.00000000000E+00  0.00000000000E+00  0.23865118843E+03  0.23865118843E+03  0.00000000000E+00 0. -1.
         -1   -1    0    0    0  501 -0.00000000000E+00 -0.00000000000E+00 -0.51050324815E+02  0.51050324815E+02  0.00000000000E+00 0.  1.
         25    2    1    2    0    0  0.98001268729E+01 -0.18063945480E+02  0.10251746858E+03  0.16301753363E+03  0.12507012550E+03 0.  0.
          5    1    3    3  502    0  0.58590474319E+02 -0.35002991335E+02  0.83258576912E+02  0.10773818317E+03  0.41800000000E+01 0. -1.
         -5    1    3    3    0  502 -0.48790347446E+02  0.16939045855E+02  0.19258891670E+02  0.55279350455E+02  0.41800000000E+01 0. -1.
        -11    1    1    2    0    0  0.10003872568E+02  0.25360168034E+02  0.98146935815E+02  0.10186283227E+03  0.00000000000E+00 0. -1.
         11    1    1    2    0    0 -0.19803999441E+02 -0.72962225536E+01 -0.13063540787E+02  0.24821147341E+02  0.00000000000E+00 0.  1.
</event>
<event>
 7    1  0.2394257E-009  0.9244413E+02  0.7561462E-02  0.1297039E+00
         -2   -1    0    0    0  501 -0.00000000000E+00  0.00000000000E+00  0.30550066847E+02  0.30550066847E+02  0.00000000000E+00 0.  1.
          2   -1    0    0  501    0  0.00000000000E+00 -0.00000000000E+00 -0.39099143198E+03  0.39099143198E+03  0.00000000000E+00 0. -1.
         25    2    1    2    0    0  0.51079294307E+01  0.14131489819E+02 -0.21132776591E+03  0.24603047397E+03  0.12508309051E+03 0.  0.
          5    1    3    3  502    0 -0.33665695943E+02  0.45149705390E+02 -0.44441194183E+02  0.71863531228E+02  0.41800000000E+01 0.  1.
         -5    1    3    3    0  502  0.38773625374E+02 -0.31018215571E+02 -0.16688657172E+03  0.17416694274E+03  0.41800000000E+01 0.  1.
        -11    1    1    2    0    0  0.32700076784E+02  0.94336347536E+01 -0.11344714360E+03  0.11844214991E+03  0.00000000000E+00 0. -1.
         11    1    1    2    0    0 -0.37808006215E+02 -0.23565124573E+02 -0.35666455629E+02  0.57068874943E+02  0.00000000000E+00 0.  1.
</event>
<event>
 7    1  0.2394257E-009  0.1065432E+03  0.7561462E-02  0.1267109E+00
          2   -1    0    0  501    0  0.00000000000E+00  0.00000000000E+00  0.18334502970E+03  0.18334502970E+03  0.00000000000E+00 0.  1.
         -2   -1    0    0    0  501 -0.00000000000E+00 -0.00000000000E+00 -0.77051397830E+02  0.77051397830E+02  0.00000000000E+00 0. -1.
         25    2    1    2    0    0  0.42350922911E+01 -0.27470473120E+02  0.14706002038E+02  0.12897800055E+03  0.12508595137E+03 0.  0.
          5    1    3    3  502    0  0.63359604994E+02 -0.25343895044E+02  0.13306974031E+02  0.69651277941E+02  0.41800000000E+01 0.  1.
         -5    1    3    3    0  502 -0.59124512703E+02 -0.21265780767E+01  0.13990280069E+01  0.59326722613E+02  0.41800000000E+01 0.  1.
        -11    1    1    2    0    0  0.31401959665E+01  0.55925019396E+02  0.30862298678E+02  0.63952717728E+02  0.00000000000E+00 0. -1.
         11    1    1    2    0    0 -0.73752882576E+01 -0.28454546275E+02  0.60725331158E+02  0.67465709252E+02  0.00000000000E+00 0.  1.
</event>
<event>
 7    1  0.2394257E-009  0.1176954E+03  0.7561462E-02  0.1246948E+00
         -1   -1    0    0    0  501 -0.00000000000E+00  0.00000000000E+00  0.79187212887E+02  0.79187212887E+02  0.00000000000E+00 0.  1.
          1   -1    0    0  501    0  0.00000000000E+00 -0.00000000000E+00 -0.24615446914E+03  0.24615446914E+03  0.00000000000E+00 0. -1.
         25    2    1    2    0    0  0.17260252819E+01  0.85209320917E+02 -0.11075292608E+03  0.18754669104E+03  0.12507574965E+03 0.  0.
          5    1    3    3  502    0  0.44804498602E+02  0.88502413934E+02 -0.10370928934E+03  0.14357301091E+03  0.41800000000E+01 0. -1.
         -5    1    3    3    0  502 -0.43078473320E+02 -0.32930930166E+01 -0.70436367357E+01  0.43973680124E+02  0.41800000000E+01 0. -1.
        -11    1    1    2    0    0  0.11945242322E+02 -0.74175289855E+02  0.38346444742E+01  0.75228764030E+02  0.00000000000E+00 0.  1.
         11    1    1    2    0    0 -0.13671267604E+02 -0.11034031062E+02 -0.60048974647E+02  0.62566226956E+02  0.00000000000E+00 0. -1.
</event>
<event>
 7    1  0.2394257E-009  0.1077900E+03  0.7561462E-02  0.1264718E+00
          2   -1    0    0  501    0  0.00000000000E+00  0.00000000000E+00  0.98104377401E+03  0.98104377401E+03  0.00000000000E+00 0. -1.
         -2   -1    0    0    0  501 -0.00000000000E+00 -0.00000000000E+00 -0.17642241785E+02  0.17642241785E+02  0.00000000000E+00 0.  1.
         25    2    1    2    0    0 -0.51589331882E+02  0.29422156319E+02  0.70253563730E+03  0.71605286367E+03  0.12509300318E+03 0.  0.
          5    1    3    3  502    0  0.14368877141E+02  0.44314487672E+02  0.10831104274E+03  0.11797878126E+03  0.41800000000E+01 0. -1.
         -5    1    3    3    0  502 -0.65958209023E+02 -0.14892331353E+02  0.59422459456E+03  0.59807408241E+03  0.41800000000E+01 0. -1.
        -11    1    1    2    0    0  0.47748628309E+02 -0.56349677790E+02  0.13522009711E+03  0.15407690403E+03  0.00000000000E+00 0.  1.
         11    1    1    2    0    0  0.38407035733E+01  0.26927521472E+02  0.12564579781E+03  0.12855624809E+03  0.00000000000E+00 0. -1.
</event>
<event>
 7    1  0.3001619E-009  0.8891500E+02  0.7561462E-02  0.1305501E+00
          1   -1    0    0  501    0  0.00000000000E+00  0.00000000000E+00  0.63441192189E+03  0.63441192189E+03  0.00000000000E+00 0. -1.
         -1   -1    0    0    0  501 -0.00000000000E+00 -0.00000000000E+00 -0.22108692546E+02  0.22108692546E+02  0.00000000000E+00 0.  1.
         25    2    1    2    0    0  0.30152253463E+02  0.19966803428E+02  0.43070029955E+03  0.44995370513E+03  0.12509099529E+03 0.  0.
          5    1    3    3  502    0 -0.10250228610E+02  0.64825025702E+02  0.16892223064E+03  0.18127201534E+03  0.41800000000E+01 0. -1.
         -5    1    3    3    0  502  0.40402482073E+02 -0.44858222274E+02  0.26177806892E+03  0.26868168979E+03  0.41800000000E+01 0. -1.
        -11    1    1    2    0    0  0.84847008932E+01 -0.63023778974E+01 -0.75733068151E+01  0.13002503318E+02  0.00000000000E+00 0.  1.
         11    1    1    2    0    0 -0.38636954356E+02 -0.13664425531E+02  0.18917623661E+03  0.19356440598E+03  0.00000000000E+00 0. -1.
</event>
<event>
 7    1  0.2394257E-009  0.2569748E+03  0.7561462E-02  0.1108975E+00
          1   -1    0    0  501    0  0.00000000000E+00  0.00000000000E+00  0.57019041342E+03  0.57019041342E+03  0.00000000000E+00 0. -1.
         -1   -1    0    0    0  501 -0.00000000000E+00 -0.00000000000E+00 -0.11950299186E+03  0.11950299186E+03  0.00000000000E+00 0.  1.
         25    2    1    2    0    0 -0.76982360504E+02 -0.22252055566E+03  0.20634641555E+03  0.33714775081E+03  0.12509229052E+03 0.  0.
          5    1    3    3  502    0 -0.10316024199E+03 -0.14506393740E+03  0.10441815213E+03  0.20641270396E+03  0.41800000000E+01 0. -1.
         -5    1    3    3    0  502  0.26177881486E+02 -0.77456618253E+02  0.10192826342E+03  0.13073504685E+03  0.41800000000E+01 0. -1.
        -11    1    1    2    0    0  0.33534693271E+02  0.20410122806E+03  0.19486835609E+03  0.28417523318E+03  0.00000000000E+00 0.  1.
         11    1    1    2    0    0  0.43447667233E+02  0.18419327595E+02  0.49472649921E+02  0.68370421289E+02  0.00000000000E+00 0. -1.
</event>
<event>
 7    1  0.2394257E-009  0.6949741E+02  0.7561462E-02  0.1361810E+00
         -1   -1    0    0    0  501 -0.00000000000E+00  0.00000000000E+00  0.41447765094E+03  0.41447765094E+03  0.00000000000E+00 0.  1.
          1   -1    0    0  501    0  0.00000000000E+00 -0.00000000000E+00 -0.33780180632E+02  0.33780180632E+02  0.00000000000E+00 0. -1.
         25    2    1    2    0    0  0.21134787701E+02  0.25084577231E+02  0.15158012024E+03  0.19925138154E+03  0.12509462388E+03 0.  0.
          5    1    3    3  502    0  0.29769636371E+02  0.24294173019E+02  0.17220580548E+03  0.17649008452E+03  0.41800000000E+01 0. -1.
         -5    1    3    3    0  502 -0.86348486702E+01  0.79040421165E+00 -0.20625685237E+02  0.22761297017E+02  0.41800000000E+01 0. -1.
        -11    1    1    2    0    0  0.16144130970E+02  0.24096535237E+02  0.35785551258E+02  0.46063886658E+02  0.00000000000E+00 0. -1.
         11    1    1    2    0    0 -0.37278918670E+02 -0.49181112468E+02  0.19333179881E+03  0.20294256338E+03  0.00000000000E+00 0.  1.
</event>
<event>
 7    1  0.3738581E-009  0.1092503E+03  0.7561462E-02  0.1261964E+00
          2   -1    0    0  501    0  0.00000000000E+00  0.00000000000E+00  0.60985213443E+03  0.60985213443E+03  0.00000000000E+00 0. -1.
         -2   -1    0    0    0  501 -0.00000000000E+00 -0.00000000000E+00 -0.39882991787E+02  0.39882991787E+02  0.00000000000E+00 0.  1.
         25    2    1    2    0    0 -0.46504324714E+02  0.87842259357E+02  0.20019041869E+03  0.25613045303E+03  0.12509072904E+03 0.  0.
          5    1    3    3  502    0 -0.36948204435E+02  0.31850103864E+02  0.19253546189E+03  0.19866296940E+03  0.41800000000E+01 0. -1.
         -5    1    3    3    0  502 -0.95561202791E+01  0.55992155493E+02  0.76549568012E+01  0.57467483634E+02  0.41800000000E+01 0. -1.
        -11    1    1    2    0    0  0.51257148229E+02 -0.41366161568E+02  0.99553420924E+02  0.11937059179E+03  0.00000000000E+00 0.  1.
         11    1    1    2    0    0 -0.47528235142E+01 -0.46476097789E+02  0.27022530303E+03  0.27423408139E+03  0.00000000000E+00 0. -1.
</event>
<event>
 7    1  0.2394257E-009  0.1141625E+03  0.7561462E-02  0.1253050E+00
         -2   -1    0    0    0  501 -0.00000000000E+00  0.00000000000E+00  0.77762735489E+02  0.77762735489E+02  0.00000000000E+00 0.  1.
          2   -1    0    0  501    0  0.00000000000E+00 -0.00000000000E+00 -0.58768726299E+03  0.58768726299E+03  0.00000000000E+00 0. -1.
         25    2    1    2    0    0  0.79762816109E+02  0.61016648892E+02 -0.25530984786E+02  0.16244309716E+03  0.12510311888E+03 0.  0.
          5    1    3    3  502    0  0.71511000687E+02  0.48923606037E+02  0.39743302420E+02  0.95416691067E+02  0.41800000000E+01 0.  1.
         -5    1    3    3    0  502  0.82518154224E+01  0.12093042855E+02 -0.65274287206E+02  0.67026406091E+02  0.41800000000E+01 0.  1.
        -11    1    1    2    0    0 -0.56037593575E+02  0.49450285694E+01 -0.12848297039E+03  0.14025882817E+03  0.00000000000E+00 0. -1.
         11    1    1    2    0    0 -0.23725222534E+02 -0.65961677461E+02 -0.35591057233E+03  0.36274807315E+03  0.00000000000E+00 0.  1.
</event>
<event>
 7    1  0.2394257E-009  0.1006194E+03  0.7561462E-02  0.1278999E+00
          2   -1    0    0  501    0  0.00000000000E+00  0.00000000000E+00  0.52156120272E+03  0.52156120272E+03  0.00000000000E+00 0. -1.
         -2   -1    0    0    0  501 -0.00000000000E+00 -0.00000000000E+00 -0.26412930144E+02  0.26412930144E+02  0.00000000000E+00 0.  1.
         25    2    1    2    0    0  0.44409310212E+02  0.86335655387E+01  0.30380490375E+03  0.33164859522E+03  0.12508655357E+03 0.  0.
          5    1    3    3  502    0  0.47104629870E+02  0.59118639420E+02  0.22961176754E+03  0.24177033704E+03  0.41800000000E+01 0. -1.
         -5    1    3    3    0  502 -0.26953196584E+01 -0.50485073881E+02  0.74193136209E+02  0.89878258180E+02  0.41800000000E+01 0. -1.
        -11    1    1    2    0    0 -0.38528111056E+02  0.21486795720E+02  0.33146993305E+02  0.55179895769E+02  0.00000000000E+00 0.  1.
         11    1    1    2    0    0 -0.58811991559E+01 -0.30120361259E+02  0.15819637552E+03  0.16114564187E+03  0.00000000000E+00 0. -1.
</event>
<event>
 7    1  0.2394257E-009  0.1856037E+03  0.7561462E-02  0.1162487E+00
         -2   -1    0    0    0  501 -0.00000000000E+00  0.00000000000E+00  0.29010607309E+02  0.29010607309E+02  0.00000000000E+00 0.  1.
          2   -1    0    0  501    0  0.00000000000E+00 -0.00000000000E+00 -0.15525510483E+04  0.15525510483E+04  0.00000000000E+00 0. -1.
         25    2    1    2    0    0  0.15826264285E+03 -0.35407021134E+02 -0.10779727619E+04  0.10972562424E+04  0.12508103320E+03 0.  0.
          5    1    3    3  502    0 -0.17902183259E+02 -0.21121592162E+02 -0.15172412563E+03  0.15428639771E+03  0.41800000000E+01 0. -1.
         -5    1    3    3    0  502  0.17616482611E+03 -0.14285428972E+02 -0.92624863627E+03  0.94296984471E+03  0.41800000000E+01 0. -1.
        -11    1    1    2    0    0 -0.10295443740E+03  0.41011049571E+02 -0.39102255604E+03  0.40642362345E+03  0.00000000000E+00 0. -1.
         11    1    1    2    0    0 -0.55308205456E+02 -0.56040284376E+01 -0.54545123086E+02  0.77881789771E+02  0.00000000000E+00 0.  1.
</event>
<event>
 7    1  0.2394257E-009  0.4804981E+02  0.7561462E-02  0.1456153E+00
         -1   -1    0    0    0  501 -0.00000000000E+00  0.00000000000E+00  0.88502164849E+02  0.88502164849E+02  0.00000000000E+00 0.  1.
          1   -1    0    0  501    0  0.00000000000E+00 -0.00000000000E+00 -0.14127860413E+03  0.14127860413E+03  0.00000000000E+00 0. -1.
         25    2    1    2    0    0  0.14395742120E+02  0.95185597309E+01 -0.11603964521E+02  0.12680433228E+03  0.12508735477E+03 0.  0.
          5    1    3    3  502    0  0.10530412485E+02 -0.21542581509E+02  0.51098159347E+02  0.56599175734E+02  0.41800000000E+01 0. -1.
         -5    1    3    3    0  502  0.38653296350E+01  0.31061141240E+02 -0.62702123868E+02  0.70205156547E+02  0.41800000000E+01 0. -1.
        -11    1    1    2    0    0  0.12001875282E+02 -0.63942821206E+01 -0.65527796489E+02  0.66924016368E+02  0.00000000000E+00 0. -1.
         11    1    1    2    0    0 -0.26397617402E+02 -0.31242776104E+01  0.24355321729E+02  0.36052420329E+02  0.00000000000E+00 0.  1.
</event>
<event>
 7    1  0.2394257E-009  0.1002052E+03  0.7561462E-02  0.1279865E+00
         -2   -1    0    0    0  501 -0.00000000000E+00  0.00000000000E+00  0.78578082298E+03  0.78578082298E+03  0.00000000000E+00 0.  1.
          2   -1    0    0  501    0  0.00000000000E+00 -0.00000000000E+00 -0.17550546133E+02  0.17550546133E+02  0.00000000000E+00 0. -1.
         25    2    1    2    0    0  0.45993177124E+02 -0.41420522332E+02  0.52975103175E+03  0.54782718524E+03  0.12508971672E+03 0.  0.
          5    1    3    3  502    0  0.72154650789E+02 -0.66861076188E+02  0.43938933455E+03  0.45028563919E+03  0.41800000000E+01 0.  1.
         -5    1    3    3    0  502 -0.26161473665E+02  0.25440553856E+02  0.90361697201E+02  0.97541546050E+02  0.41800000000E+01 0.  1.
        -11    1    1    2    0    0 -0.12345607240E+01  0.11079263450E+02  0.18243403063E+00  0.11149327376E+02  0.00000000000E+00 0. -1.
         11    1    1    2    0    0 -0.44758616400E+02  0.30341258882E+02  0.23829681106E+03  0.24435485650E+03  0.00000000000E+00 0.  1.
</event>
<event>
 7    1  0.2394257E-009  0.1485327E+03  0.7561462E-02  0.1202288E+00
          2   -1    0    0  501    0  0.00000000000E+00  0.00000000000E+00  0.88083228077E+03  0.88083228077E+03  0.00000000000E+00 0. -1.
         -2   -1    0    0    0  501 -0.00000000000E+00 -0.00000000000E+00 -0.29918392359E+02  0.29918392359E+02  0.00000000000E+00 0.  1.
         25    2    1    2    0    0 -0.64923419552E+02  0.93940317641E+02  0.56527552469E+03  0.59010520142E+03  0.12509155148E+03 0.  0.
          5    1    3    3  502    0 -0.91766520556E+02  0.61458596515E+02  0.50161925107E+03  0.51365124240E+03  0.41800000000E+01 0. -1.
         -5    1    3    3    0  502  0.26843101004E+02  0.32481721126E+02  0.63656273623E+02  0.76453959023E+02  0.41800000000E+01 0. -1.
        -11    1    1    2    0    0 -0.16201351073E+02  0.43263778327E+01  0.50321910159E+02  0.53042397795E+02  0.00000000000E+00 0. -1.
         11    1    1    2    0    0  0.81124770625E+02 -0.98266695474E+02  0.23531645356E+03  0.26760307391E+03  0.00000000000E+00 0.  1.
</event>
<event>
 7    1  0.2394257E-009  0.1496816E+03  0.7561462E-02  0.1200865E+00
          1   -1    0    0  501    0  0.00000000000E+00  0.00000000000E+00  0.56802128030E+03  0.56802128030E+03  0.00000000000E+00 0. -1.
         -1   -1    0    0    0  501 -0.00000000000E+00 -0.00000000000E+00 -0.49184360581E+02  0.49184360581E+02  0.00000000000E+00 0.  1.
         25    2    1    2    0    0 -0.11900136944E+03 -0.44416204570E+02  0.27348920340E+03  0.32646168572E+03  0.12508702055E+03 0.  0.
          5    1    3    3  502    0 -0.95124563057E+02 -0.61907076073E+02  0.10284087159E+03  0.15321516190E+03  0.41800000000E+01 0. -1.
         -5    1    3    3    0  502 -0.23876806380E+02  0.17490871503E+02  0.17064833180E+03  0.17324652382E+03  0.41800000000E+01 0. -1.
        -11    1    1    2    0    0  0.56424672954E+02  0.68589613395E+02  0.13454079669E+03  0.16121260731E+03  0.00000000000E+00 0.  1.
         11    1    1    2    0    0  0.62576696483E+02 -0.24173408825E+02  0.11080691964E+03  0.12953134785E+03  0.00000000000E+00 0. -1.
</event>
<event>
 7    1  0.2394257E-009  0.2088503E+03  0.7561462E-02  0.1142480E+00
          1   -1    0    0  501    0  0.00000000000E+00  0.00000000000E+00  0.63802412022E+03  0.63802412022E+03  0.00000000000E+00 0. -1.
         -1   -1    0    0    0  501 -0.00000000000E+00 -0.00000000000E+00 -0.78506450038E+02  0.78506450038E+02  0.00000000000E+00 0.  1.
         25    2    1    2    0    0 -0.16959711186E+03 -0.84351054048E+02  0.21310193871E+03  0.31134740411E+03  0.12508592684E+03 0.  0.
          5    1    3    3  502    0 -0.19272834973E+01 -0.56599812273E+02  0.47766709825E+02  0.74205014241E+02  0.41800000000E+01 0.  1.
         -5    1    3    3    0  502 -0.16766982836E+03 -0.27751241775E+02  0.16533522888E+03  0.23714238987E+03  0.41800000000E+01 0.  1.
        -11    1    1    2    0    0  0.91970339482E+02  0.58920916211E+02  0.10984584359E+03  0.15490747905E+03  0.00000000000E+00 0.  1.
         11    1    1    2    0    0  0.77626772375E+02  0.25430137837E+02  0.23656988788E+03  0.25027568710E+03  0.00000000000E+00 0. -1.
</event>
<event>
 7    1  0.2394257E-009  0.1200562E+03  0.7561462E-02  0.1243004E+00
         -1   -1    0    0    0  501 -0.00000000000E+00  0.00000000000E+00  0.13774397857E+03  0.13774397857E+03  0.00000000000E+00 0.  1.
          1   -1    0    0  501    0  0.00000000000E+00 -0.00000000000E+00 -0.16991706653E+03  0.16991706653E+03  0.00000000000E+00 0. -1.
         25    2    1    2    0    0  0.97583514174E+02  0.27671868698E+02  0.16716180141E+02  0.16190993811E+03  0.12508846000E+03 0.  0.
          5    1    3    3  502    0  0.39803191712E+02  0.57049155040E+02  0.52960057531E+02  0.87527939853E+02  0.41800000000E+01 0.  1.
         -5    1    3    3    0  502  0.57780322462E+02 -0.29377286342E+02 -0.36243877390E+02  0.74381998258E+02  0.41800000000E+01 0.  1.
        -11    1    1    2    0    0 -0.44953583004E+02  0.21012020971E+01  0.24034618210E+02  0.51018649018E+02  0.00000000000E+00 0.  1.
         11    1    1    2    0    0 -0.52629931169E+02 -0.29773070795E+02 -0.72923886312E+02  0.94732457977E+02  0.00000000000E+00 0. -1.
</event>
<event>
 7    1  0.2394257E-009  0.1389086E+03  0.7561462E-02  0.1214805E+00
          2   -1    0    0  501    0  0.00000000000E+00  0.00000000000E+00  0.46218479450E+02  0.46218479450E+02  0.00000000000E+00 0. -1.
         -2   -1    0    0    0  501 -0.00000000000E+00 -0.00000000000E+00 -0.67934180376E+03  0.67934180376E+03  0.00000000000E+00 0.  1.
         25    2    1    2    0    0  0.75961653440E+02 -0.98877251844E+02 -0.20422011581E+03  0.26999953837E+03  0.12508801419E+03 0.  0.
          5    1    3    3  502    0  0.69149103364E+02 -0.69911783329E+02 -0.45445656784E+02  0.10840680820E+03  0.41800000000E+01 0.  1.
         -5    1    3    3    0  502  0.68125500759E+01 -0.28965468515E+02 -0.15877445903E+03  0.16159273017E+03  0.41800000000E+01 0.  1.
        -11    1    1    2    0    0 -0.88999956637E+02  0.57484283861E+02 -0.25109011614E+03  0.27252831338E+03  0.00000000000E+00 0. -1.
         11    1    1    2    0    0  0.13038303197E+02  0.41392967983E+02 -0.17781309236E+03  0.18303243145E+03  0.00000000000E+00 0.  1.
</event>
<event>
 7    1  0.2394257E-009  0.1163972E+03  0.7561462E-02  0.1249162E+00
         -1   -1    0    0    0  501 -0.00000000000E+00  0.00000000000E+00  0.91371556784E+03  0.91371556784E+03  0.00000000000E+00 0.  1.
          1   -1    0    0  501    0  0.00000000000E+00 -0.00000000000E+00 -0.28436435071E+02  0.28436435071E+02  0.00000000000E+00 0. -1.
         25    2    1    2    0    0 -0.48448173573E+02 -0.69302225932E+02  0.71680431516E+03  0.73253387140E+03  0.12508965771E+03 0.  0.
          5    1    3    3  502    0 -0.56414625064E+02 -0.87751864244E+02  0.69417339699E+03  0.70198089510E+03  0.41800000000E+01 0.  1.
         -5    1    3    3    0  502  0.79664514909E+01  0.18449638312E+02  0.22630918175E+02  0.30552976298E+02  0.41800000000E+01 0.  1.
        -11    1    1    2    0    0  0.22706148835E+02  0.77570503714E+02  0.16313319831E+03  0.18205821221E+03  0.00000000000E+00 0.  1.
         11    1    1    2    0    0  0.25742024738E+02 -0.82682777818E+01  0.53416192869E+01  0.27559919297E+02  0.00000000000E+00 0. -1.
</event>
<event>
 7    1  0.2394257E-009  0.5765410E+02  0.7561462E-02  0.1407949E+00
         -2   -1    0    0    0  501 -0.00000000000E+00  0.00000000000E+00  0.49681500338E+02  0.49681500338E+02  0.00000000000E+00 0.  1.
          2   -1    0    0  501    0  0.00000000000E+00 -0.00000000000E+00 -0.27100796879E+03  0.27100796879E+03  0.00000000000E+00 0. -1.
         25    2    1    2    0    0  0.21022780639E-01  0.61501906855E+01 -0.72026335260E+02  0.14447728847E+03  0.12509224047E+03 0.  0.
          5    1    3    3  502    0  0.97811512926E+01  0.28719672494E+02  0.27934059223E+02  0.41452075623E+02  0.41800000000E+01 0.  1.
         -5    1    3    3    0  502 -0.97601285120E+01 -0.22569481808E+02 -0.99960394483E+02  0.10302521285E+03  0.41800000000E+01 0.  1.
        -11    1    1    2    0    0 -0.35193222835E+01 -0.32736096998E+02 -0.10080049944E+02  0.34433197396E+02  0.00000000000E+00 0.  1.
         11    1    1    2    0    0  0.34982995029E+01  0.26585906313E+02 -0.13922008325E+03  0.14177898326E+03  0.00000000000E+00 0. -1.
</event>
<event>
 7    1  0.2394257E-009  0.1962584E+03  0.7561462E-02  0.1152935E+00
         -1   -1    0    0    0  501 -0.00000000000E+00  0.00000000000E+00  0.20055614899E+03  0.20055614899E+03  0.00000000000E+00 0.  1.
          1   -1    0    0  501    0  0.00000000000E+00 -0.00000000000E+00 -0.24177012150E+03  0.24177012150E+03  0.00000000000E+00 0. -1.
         25    2    1    2    0    0  0.14894668384E+03  0.10151073202E+03 -0.85126241909E+02  0.23533631397E+03  0.12508860966E+03 0.  0.
          5    1    3    3  502    0  0.91682429748E+02  0.12996643851E+02 -0.90696490374E+02  0.12968387117E+03  0.41800000000E+01 0. -1.
         -5    1    3    3    0  502  0.57264254097E+02  0.88514088165E+02  0.55702484644E+01  0.10565244280E+03  0.41800000000E+01 0. -1.
        -11    1    1    2    0    0 -0.50810930362E+02 -0.78518324435E+02 -0.75315102961E+01  0.93827509632E+02  0.00000000000E+00 0. -1.
         11    1    1    2    0    0 -0.98135753483E+02 -0.22992407580E+02  0.51443779692E+02  0.11316244689E+03  0.00000000000E+00 0.  1.
</event>
<event>
 7    1  0.2394257E-009  0.1223400E+03  0.7561462E-02  0.1239286E+00
         -2   -1    0    0    0  501 -0.00000000000E+00  0.00000000000E+00  0.10961033501E+03  0.10961033501E+03  0.00000000000E+00 0.  1.
          2   -1    0    0  501    0  0.00000000000E+00 -0.00000000000E+00 -0.16453391717E+03  0.16453391717E+03  0.00000000000E+00 0. -1.
         25    2    1    2    0    0  0.31231267444E+02  0.54547959722E+02  0.20946737001E+02  0.14156520964E+03  0.12510423979E+03 0.  0.
          5    1    3    3  502    0 -0.44041245570E+02  0.45498530391E+02  0.29338218320E+01  0.63528161390E+02  0.41800000000E+01 0. -1.
         -5    1    3    3    0  502  0.75272513014E+02  0.90494293314E+01  0.18012915169E+02  0.78037048250E+02  0.41800000000E+01 0. -1.
        -11    1    1    2    0    0 -0.60581738781E+02 -0.39330110271E+02 -0.66588755608E+02  0.98239844366E+02  0.00000000000E+00 0. -1.
         11    1    1    2    0    0  0.29350471337E+02 -0.15217849452E+02 -0.92815635500E+01  0.34339198179E+02  0.00000000000E+00 0.  1.
</event>
<event>
 7    1  0.2394257E-009  0.1195199E+03  0.7561462E-02  0.1243891E+00
          2   -1    0    0  501    0  0.00000000000E+00  0.00000000000E+00  0.52624938133E+03  0.52624938133E+03  0.00000000000E+00 0. -1.
         -2   -1    0    0    0  501 -0.00000000000E+00 -0.00000000000E+00 -0.50060544328E+02  0.50060544328E+02  0.00000000000E+00 0.  1.
         25    2    1    2    0    0 -0.12930392360E+02 -0.74842175866E+02  0.42303817771E+03  0.44763570650E+03  0.12509148489E+03 0.  0.
          5    1    3    3  502    0  0.42803944581E+02 -0.44698491328E+01  0.23839325437E+03  0.24228283751E+03  0.41800000000E+01 0. -1.
         -5    1    3    3    0  502 -0.55734336941E+02 -0.70372326733E+02  0.18464492334E+03  0.20535286898E+03  0.41800000000E+01 0. -1.
        -11    1    1    2    0    0  0.95819435053E+00 -0.15134125048E+02 -0.99404807510E+01  0.18132099573E+02  0.00000000000E+00 0.  1.
         11    1    1    2    0    0  0.11972198009E+02  0.89976300914E+02  0.63091140034E+02  0.11054211958E+03  0.00000000000E+00 0. -1.
</event>
<event>
 7    1  0.2394257E-009  0.1291817E+03  0.7561462E-02  0.1228675E+00
          2   -1    0    0  501    0  0.00000000000E+00  0.00000000000E+00  0.31217545837E+03  0.31217545837E+03  0.00000000000E+00 0. -1.
         -2   -1    0    0    0  501 -0.00000000000E+00 -0.00000000000E+00 -0.55921587406E+02  0.55921587406E+02  0.00000000000E+00 0.  1.
         25    2    1    2    0    0 -0.29004552626E+02 -0.67168145961E+02  0.16364271641E+03  0.21858113912E+03  0.12508377928E+03 0.  0.
          5    1    3    3  502    0  0.53318850566E+01 -0.97510562487E+02  0.12364506960E+03  0.15761444868E+03  0.41800000000E+01 0.  1.
         -5    1    3    3    0  502 -0.34336437682E+02  0.30342416527E+02  0.39997646809E+02  0.60966690443E+02  0.41800000000E+01 0.  1.
        -11    1    1    2    0    0 -0.31635750709E+02  0.29251737438E+02  0.51032927410E+02  0.66789554169E+02  0.00000000000E+00 0. -1.
         11    1    1    2    0    0  0.60640303335E+02  0.37916408523E+02  0.41578227147E+02  0.82726352491E+02  0.00000000000E+00 0.  1.
</event>
<event>
 7    1  0.2394257E-009  0.1634219E+03  0.7561462E-02  0.1184887E+00
          2   -1    0    0  501    0  0.00000000000E+00  0.00000000000E+00  0.32014837510E+03  0.32014837510E+03  0.00000000000E+00 0. -1.
         -2   -1    0    0    0  501 -0.00000000000E+00 -0.00000000000E+00 -0.11846658136E+03  0.11846658136E+03  0.00000000000E+00 0.  1.
         25    2    1    2    0    0  0.11475576879E+03  0.99861834865E+02  0.16644795131E+03  0.25786351848E+03  0.12508957243E+03 0.  0.
          5    1    3    3  502    0  0.86086163541E+02  0.10502682738E+03  0.61987195807E+02  0.14933635481E+03  0.41800000000E+01 0. -1.
         -5    1    3    3    0  502  0.28669605246E+02 -0.51649925168E+01  0.10446075551E+03  0.10852716367E+03  0.41800000000E+01 0. -1.
        -11    1    1    2    0    0 -0.24311559368E+02 -0.55963014583E+02 -0.22246206087E+02  0.64944627225E+02  0.00000000000E+00 0.  1.
         11    1    1    2    0    0 -0.90444209420E+02 -0.43898820282E+02  0.57480048512E+02  0.11580681075E+03  0.00000000000E+00 0. -1.
</event>
<event>
 7    1  0.2394257E-009  0.9739425E+02  0.7561462E-02  0.1285873E+00
          2   -1    0    0  501    0  0.00000000000E+00  0.00000000000E+00  0.29401106336E+03  0.29401106336E+03  0.00000000000E+00 0.  1.
         -2   -1    0    0    0  501 -0.00000000000E+00 -0.00000000000E+00 -0.43937832630E+02  0.43937832630E+02  0.00000000000E+00 0. -1.
         25    2    1    2    0    0 -0.13606906539E+02  0.21931445194E+02  0.11486575605E+03  0.17177870331E+03  0.12509054642E+03 0.  0.
          5    1    3    3  502    0 -0.65994891156E+02  0.31719210006E+02  0.76507634130E+02  0.10598266095E+03  0.41800000000E+01 0. -1.
         -5    1    3    3    0  502  0.52387984617E+02 -0.97877648124E+01  0.38358121922E+02  0.65796042356E+02  0.41800000000E+01 0. -1.
        -11    1    1    2    0    0 -0.94586979625E+01  0.18876565383E+02 -0.19693066991E+01  0.21205420455E+02  0.00000000000E+00 0. -1.
         11    1    1    2    0    0  0.23065604501E+02 -0.40808010577E+02  0.13717678137E+03  0.14496477222E+03  0.00000000000E+00 0.  1.
</event>
<event>
 7    1  0.2394257E-009  0.1324935E+03  0.7561462E-02  0.1223802E+00
         -1   -1    0    0    0  501 -0.00000000000E+00  0.00000000000E+00  0.37535476979E+02  0.37535476979E+02  0.00000000000E+00 0.  1.
          1   -1    0    0  501    0  0.00000000000E+00 -0.00000000000E+00 -0.55014118141E+03  0.55014118141E+03  0.00000000000E+00 0. -1.
         25    2    1    2    0    0  0.86152092482E+02 -0.28188259027E+02 -0.33429970864E+03  0.36826649552E+03  0.12508859077E+03 0.  0.
          5    1    3    3  502    0  0.11596722136E+03 -0.32845207708E+02 -0.29378635182E+03  0.31757691512E+03  0.41800000000E+01 0. -1.
         -5    1    3    3    0  502 -0.29815128874E+02  0.46569486809E+01 -0.40513356819E+02  0.50689580405E+02  0.41800000000E+01 0. -1.
        -11    1    1    2    0    0 -0.86480646974E+02  0.75319303048E+00 -0.81658485309E+02  0.11894359093E+03  0.00000000000E+00 0.  1.
         11    1    1    2    0    0  0.32855449178E+00  0.27435065996E+02 -0.96647510481E+02  0.10046657194E+03  0.00000000000E+00 0. -1.
</event>
<event>
 7    1  0.2394257E-009  0.1063162E+03  0.7561462E-02  0.1267548E+00
         -2   -1    0    0    0  501 -0.00000000000E+00  0.00000000000E+00  0.13775697326E+02  0.13775697326E+02  0.00000000000E+00 0.  1.
          2   -1    0    0  501    0  0.00000000000E+00 -0.00000000000E+00 -0.94030155763E+03  0.94030155763E+03  0.00000000000E+00 0. -1.
         25    2    1    2    0    0  0.98433013317E+01  0.26750795994E+02 -0.62062482500E+03  0.63374684602E+03  0.12508955095E+03 0.  0.
          5    1    3    3  502    0 -0.46285974677E+01 -0.47890158032E+02 -0.16970990894E+03  0.17644777341E+03  0.41800000000E+01 0.  1.
         -5    1    3    3    0  502  0.14471898799E+02  0.74640954026E+02 -0.45091491607E+03  0.45729907260E+03  0.41800000000E+01 0.  1.
        -11    1    1    2    0    0 -0.29107090532E+02  0.21533652172E+02 -0.70457464359E+02  0.79216003301E+02  0.00000000000E+00 0.  1.
         11    1    1    2    0    0  0.19263789200E+02 -0.48284448166E+02 -0.23544357095E+03  0.24111440564E+03  0.00000000000E+00 0. -1.
</event>
<event>
 7    1  0.4728831E-009  0.2407601E+03  0.7561462E-02  0.1119288E+00
         -1   -1    0    0    0  501 -0.00000000000E+00  0.00000000000E+00  0.13766100449E+03  0.13766100449E+03  0.00000000000E+00 0.  1.
          1   -1    0    0  501    0  0.00000000000E+00 -0.00000000000E+00 -0.53237600080E+03  0.53237600080E+03  0.00000000000E+00 0. -1.
         25    2    1    2    0    0 -0.22273609667E+03  0.89186055213E+02 -0.12585280136E+03  0.29841835091E+03  0.12509621636E+03 0.  0.
          5    1    3    3  502    0 -0.11627043062E+03  0.38050552195E+02 -0.13206732208E+03  0.18007195095E+03  0.41800000000E+01 0.  1.
         -5    1    3    3    0  502 -0.10646566605E+03  0.51135503018E+02  0.62145207146E+01  0.11834639996E+03  0.41800000000E+01 0.  1.
        -11    1    1    2    0    0  0.13091934097E+03 -0.63962829342E+02 -0.22186406418E+03  0.26543319377E+03  0.00000000000E+00 0.  1.
         11    1    1    2    0    0  0.91816755694E+02 -0.25223225871E+02 -0.46998130771E+02  0.10618546061E+03  0.00000000000E+00 0. -1.
</event>
<event>
 7    1  0.2394257E-009  0.2371938E+03  0.7561462E-02  0.1121676E+00
          1   -1    0    0  501    0  0.00000000000E+00  0.00000000000E+00  0.26891362266E+03  0.26891362266E+03  0.00000000000E+00 0. -1.
         -1   -1    0    0    0  501 -0.00000000000E+00 -0.00000000000E+00 -0.25957475816E+03  0.25957475816E+03  0.00000000000E+00 0.  1.
         25    2    1    2    0    0  0.22830884807E+03  0.56924003818E+02 -0.40533430859E+02  0.26954762620E+03  0.12509073288E+03 0.  0.
          5    1    3    3  502    0  0.99615599979E+02  0.36059464553E+02 -0.80500276943E+02  0.13312144730E+03  0.41800000000E+01 0.  1.
         -5    1    3    3    0  502  0.12869324809E+03  0.20864539265E+02  0.39966846084E+02  0.13642617890E+03  0.41800000000E+01 0.  1.
        -11    1    1    2    0    0 -0.17118178096E+03 -0.58132762626E+02 -0.34062385370E+01  0.18081543818E+03  0.00000000000E+00 0. -1.
         11    1    1    2    0    0 -0.57127067113E+02  0.12087588082E+01  0.53278533903E+02  0.78125316445E+02  0.00000000000E+00 0.  1.
</event>
<event>
 7    1  0.2394257E-009  0.2179296E+03  0.7561462E-02  0.1135436E+00
          2   -1    0    0  501    0  0.00000000000E+00  0.00000000000E+00  0.12813850406E+03  0.12813850406E+03  0.00000000000E+00 0. -1.
         -2   -1    0    0    0  501 -0.00000000000E+00 -0.00000000000E+00 -0.43705045268E+03  0.43705045268E+03  0.00000000000E+00 0.  1.
         25    2    1    2    0    0  0.15228123227E+03  0.12410534305E+03 -0.73134310006E+02  0.24410945670E+03  0.12509632159E+03 0.  0.
          5    1    3    3  502    0  0.17356466712E+03  0.11919272962E+03 -0.64436931237E+02  0.22022985941E+03  0.41800000000E+01 0. -1.
         -5    1    3    3    0  502 -0.21283434845E+02  0.49126134234E+01 -0.86973787690E+01  0.23879597293E+02  0.41800000000E+01 0. -1.
        -11    1    1    2    0    0 -0.99350943070E+02 -0.48033264157E+02 -0.18498051450E+03  0.21539636743E+03  0.00000000000E+00 0.  1.
         11    1    1    2    0    0 -0.52930289202E+02 -0.76072078891E+02 -0.50797124108E+02  0.10568313262E+03  0.00000000000E+00 0. -1.
</event>
<event>
 7    1  0.2394257E-009  0.1004146E+03  0.7561462E-02  0.1279427E+00
         -2   -1    0    0    0  501 -0.00000000000E+00  0.00000000000E+00  0.35092932936E+02  0.35092932936E+02  0.00000000000E+00 0. -1.
          2   -1    0    0  501    0  0.00000000000E+00 -0.00000000000E+00 -0.39068612018E+03  0.39068612018E+03  0.00000000000E+00 0.  1.
         25    2    1    2    0    0 -0.34676441820E+02 -0.92071143470E+01 -0.20315111794E+03  0.24125652187E+03  0.12508839296E+03 0.  0.
          5    1    3    3  502    0 -0.70580392359E+02  0.27543671890E+02 -0.14420660861E+03  0.16295172295E+03  0.41800000000E+01 0. -1.
         -5    1    3    3    0  502  0.35903950539E+02 -0.36750786237E+02 -0.58944509336E+02  0.78304798922E+02  0.41800000000E+01 0. -1.
        -11    1    1    2    0    0  0.39094013354E+02  0.31791687762E+02 -0.15342627805E+03  0.16148893487E+03  0.00000000000E+00 0.  1.
         11    1    1    2    0    0 -0.44175715336E+01 -0.22584573415E+02  0.98420875340E+00  0.23033596364E+02  0.00000000000E+00 0. -1.
</event>
<event>
 7    1  0.2394257E-009  0.1246165E+03  0.7561462E-02  0.1235670E+00
         -2   -1    0    0    0  501 -0.00000000000E+00  0.00000000000E+00  0.66881810572E+02  0.66881810572E+02  0.00000000000E+00 0.  1.
          2   -1    0    0  501    0  0.00000000000E+00 -0.00000000000E+00 -0.28909763868E+03  0.28909763868E+03  0.00000000000E+00 0. -1.
         25    2    1    2    0    0 -0.65442882601E+02  0.46782543341E+02 -0.17124294477E+03  0.22681257729E+03  0.12509365228E+03 0.  0.
          5    1    3    3  502    0 -0.34118201264E+02 -0.36625701951E+02 -0.10269425717E+03  0.11432006192E+03  0.41800000000E+01 0.  1.
         -5    1    3    3    0  502 -0.31324681337E+02  0.83408245292E+02 -0.68548687597E+02  0.11249251537E+03  0.41800000000E+01 0.  1.
        -11    1    1    2    0    0  0.24633682934E+00 -0.44574956901E+02 -0.45511633960E+02  0.63704758772E+02  0.00000000000E+00 0. -1.
         11    1    1    2    0    0  0.65196545772E+02 -0.22075864405E+01 -0.54612493813E+01  0.65462113190E+02  0.00000000000E+00 0.  1.
</event>
<event>
 7    1  0.2394257E-009  0.1077141E+03  0.7561462E-02  0.1264862E+00
         -2   -1    0    0    0  501 -0.00000000000E+00  0.00000000000E+00  0.19348720542E+03  0.19348720542E+03  0.00000000000E+00 0.  1.
          2   -1    0    0  501    0  0.00000000000E+00 -0.00000000000E+00 -0.16065775224E+03  0.16065775224E+03  0.00000000000E+00 0. -1.
         25    2    1    2    0    0  0.57884737713E+02  0.52586570711E+02  0.13109182935E+03  0.19735423960E+03  0.12509051877E+03 0.  0.
          5    1    3    3  502    0  0.76461326541E+02  0.50361647065E+02  0.14646727259E+03  0.17277952510E+03  0.41800000000E+01 0. -1.
         -5    1    3    3    0  502 -0.18576588829E+02  0.22249236454E+01 -0.15375443248E+02  0.24574714501E+02  0.41800000000E+01 0. -1.
        -11    1    1    2    0    0 -0.74140082776E+02 -0.44174622754E+02 -0.38888421461E+02  0.94659698358E+02  0.00000000000E+00 0.  1.
         11    1    1    2    0    0  0.16255345063E+02 -0.84119479568E+01 -0.59373954703E+02  0.62131019697E+02  0.00000000000E+00 0. -1.
</event>
<event>
 7    1  0.2394257E-009  0.7506706E+02  0.7561462E-02  0.1343664E+00
         -1   -1    0    0    0  501 -0.00000000000E+00  0.00000000000E+00  0.12354320413E+03  0.12354320413E+03  0.00000000000E+00 0.  1.
          1   -1    0    0  501    0  0.00000000000E+00 -0.00000000000E+00 -0.14478205533E+03  0.14478205533E+03  0.00000000000E+00 0. -1.
         25    2    1    2    0    0  0.37069672429E+02 -0.59363808202E+02 -0.58059260281E+02  0.15464590963E+03  0.12508500039E+03 0.  0.
          5    1    3    3  502    0  0.82146065644E+01  0.39502111192E+01 -0.80727461086E+02  0.81347890583E+02  0.41800000000E+01 0. -1.
         -5    1    3    3    0  502  0.28855065864E+02 -0.63314019321E+02  0.22668200806E+02  0.73298019048E+02  0.41800000000E+01 0. -1.
        -11    1    1    2    0    0 -0.13491756878E+02  0.28770523719E+02 -0.25239944954E+02  0.40581096091E+02  0.00000000000E+00 0. -1.
         11    1    1    2    0    0 -0.23577915551E+02  0.30593284483E+02  0.62060354030E+02  0.73098253738E+02  0.00000000000E+00 0.  1.
</event>
<event>
 7    1  0.2394257E-009  0.1435284E+03  0.7561462E-02  0.1208659E+00
          1   -1    0    0  501    0  0.00000000000E+00  0.00000000000E+00  0.12405647081E+03  0.12405647081E+03  0.00000000000E+00 0. -1.
         -1   -1    0    0    0  501 -0.00000000000E+00 -0.00000000000E+00 -0.22589488872E+03  0.22589488872E+03  0.00000000000E+00 0.  1.
         25    2    1    2    0    0 -0.10806806858E+03 -0.65788883851E+02 -0.56726328256E+02  0.18674026086E+03  0.12508862469E+03 0.  0.
          5    1    3    3  502    0 -0.17912693235E+02 -0.29583978694E+02 -0.79559761600E+02  0.86852198822E+02  0.41800000000E+01 0. -1.
         -5    1    3    3    0  502 -0.90155375342E+02 -0.36204905157E+02  0.22833433344E+02  0.99888062043E+02  0.41800000000E+01 0. -1.
        -11    1    1    2    0    0  0.91005059902E+02  0.42362388794E+01 -0.38814744255E+02  0.99027526573E+02  0.00000000000E+00 0. -1.
         11    1    1    2    0    0  0.17063008674E+02  0.61552644972E+02 -0.62973453925E+01  0.64183572096E+02  0.00000000000E+00 0.  1.
</event>
<event>
 7    1  0.2394257E-009  0.9260441E+02  0.7561462E-02  0.1296665E+00
         -2   -1    0    0    0  501 -0.00000000000E+00  0.00000000000E+00  0.81683532593E+02  0.81683532593E+02  0.00000000000E+00 0.  1.
          2   -1    0    0  501    0  0.00000000000E+00 -0.00000000000E+00 -0.22586227695E+03  0.22586227695E+03  0.00000000000E+00 0. -1.
         25    2    1    2    0    0  0.77151049422E+02  0.21820094632E+02 -0.96186420725E+02  0.17699609725E+03  0.12508952775E+03 0.  0.
          5    1    3    3  502    0  0.70629066620E+02  0.20362147315E+02 -0.12612274848E+03  0.14603938571E+03  0.41800000000E+01 0. -1.
         -5    1    3    3    0  502  0.65219828022E+01  0.14579473164E+01  0.29936327753E+02  0.30956711540E+02  0.41800000000E+01 0. -1.
        -11    1    1    2    0    0 -0.80904627526E+02  0.66326889405E+00 -0.40042413266E+01  0.81006374005E+02  0.00000000000E+00 0. -1.
         11    1    1    2    0    0  0.37535781042E+01 -0.22483363526E+02 -0.43988082305E+02  0.49543338290E+02  0.00000000000E+00 0.  1.
</event>
<event>
 7    1  0.2394257E-009  0.1281704E+03  0.7561462E-02  0.1230196E+00
         -2   -1    0    0    0  501 -0.00000000000E+00  0.00000000000E+00  0.36237970570E+02  0.36237970570E+02  0.00000000000E+00 0. -1.
          2   -1    0    0  501    0  0.00000000000E+00 -0.00000000000E+00 -0.49686646410E+03  0.49686646410E+03  0.00000000000E+00 0.  1.
         25    2    1    2    0    0  0.74350265884E+02 -0.18953419519E+02 -0.22434799387E+03  0.26808164173E+03  0.12509416504E+03 0.  0.
          5    1    3    3  502    0  0.10453102891E+03 -0.13613472519E+02 -0.20769113001E+03  0.23294879378E+03  0.41800000000E+01 0.  1.
         -5    1    3    3    0  502 -0.30180763028E+02 -0.53399469998E+01 -0.16656863865E+02  0.35132847945E+02  0.41800000000E+01 0.  1.
        -11    1    1    2    0    0 -0.12521046122E+02 -0.35423990231E+02 -0.68519373952E+02  0.78144355437E+02  0.00000000000E+00 0. -1.
         11    1    1    2    0    0 -0.61829219762E+02  0.54377409750E+02 -0.16776112570E+03  0.18687843751E+03  0.00000000000E+00 0.  1.
</event>
<event>
 7    1  0.2394257E-009  0.9913391E+02  0.7561462E-02  0.1282128E+00
         -2   -1    0    0    0  501 -0.00000000000E+00  0.00000000000E+00  0.78505890453E+03  0.78505890453E+03  0.00000000000E+00 0.  1.
          2   -1    0    0  501    0  0.00000000000E+00 -0.00000000000E+00 -0.26391890140E+02  0.26391890140E+02  0.00000000000E+00 0. -1.
         25    2    1    2    0    0 -0.61482605069E+01 -0.90962446194E+02  0.48733614201E+03  0.51132742871E+03  0.12508899358E+03 0.  0.
          5    1    3    3  502    0  0.18075510160E+02 -0.55783450034E+02  0.68370112726E+02  0.90169074961E+02  0.41800000000E+01 0. -1.
         -5    1    3    3    0  502 -0.24223770667E+02 -0.35178996160E+02  0.41896602929E+03  0.42115835375E+03  0.41800000000E+01 0. -1.
        -11    1    1    2    0    0 -0.13031649764E+02  0.42136627433E+02  0.22758276472E+03  0.23181724281E+03  0.00000000000E+00 0.  1.
         11    1    1    2    0    0  0.19179910271E+02  0.48825818761E+02  0.43748107653E+02  0.68306123143E+02  0.00000000000E+00 0. -1.
</event>
<event>
 7    1  0.2394257E-009  0.1107349E+03  0.7561462E-02  0.1259215E+00
         -1   -1    0    0    0  501 -0.00000000000E+00  0.00000000000E+00  0.28975185486E+02  0.28975185486E+02  0.00000000000E+00 0.  1.
          1   -1    0    0  501    0  0.00000000000E+00 -0.00000000000E+00 -0.52227668730E+03  0.52227668730E+03  0.00000000000E+00 0. -1.
         25    2    1    2    0    0  0.16666793494E+02  0.23045701505E+02 -0.16201769166E+03  0.20665584484E+03  0.12509204385E+03 0.  0.
          5    1    3    3  502    0 -0.51173170286E+02  0.30228805672E+02 -0.83162497895E+02  0.10230321356E+03  0.41800000000E+01 0.  1.
         -5    1    3    3    0  502  0.67839963780E+02 -0.71831041668E+01 -0.78855193767E+02  0.10435263128E+03  0.41800000000E+01 0.  1.
        -11    1    1    2    0    0 -0.23593719159E+02 -0.55525910476E+02 -0.23972742845E+03  0.24720240749E+03  0.00000000000E+00 0.  1.
         11    1    1    2    0    0  0.69269256658E+01  0.32480208972E+02 -0.91556381698E+02  0.97393620446E+02  0.00000000000E+00 0. -1.
</event>
<event>
 7    1  0.2927028E-009  0.1868323E+03  0.7561462E-02  0.1161350E+00
          2   -1    0    0  501    0  0.00000000000E+00  0.00000000000E+00  0.11647247278E+04  0.11647247278E+04  0.00000000000E+00 0. -1.
         -2   -1    0    0    0  501 -0.00000000000E+00 -0.00000000000E+00 -0.39515056329E+02  0.39515056329E+02  0.00000000000E+00 0.  1.
         25    2    1    2    0    0  0.93164975755E+02 -0.14540343774E+03  0.77022056950E+03  0.79919285837E+03  0.12509047432E+03 0.  0.
          5    1    3    3  502    0  0.93714775407E+01 -0.55184033592E+02  0.48846423163E+03  0.49167863502E+03  0.41800000000E+01 0. -1.
         -5    1    3    3    0  502  0.83793498214E+02 -0.90219404152E+02  0.28175633787E+03  0.30751422335E+03  0.41800000000E+01 0. -1.
        -11    1    1    2    0    0 -0.89080810106E+02  0.56825839307E+02  0.21020566789E+03  0.23526791017E+03  0.00000000000E+00 0.  1.
         11    1    1    2    0    0 -0.40841656496E+01  0.88577598438E+02  0.14478343412E+03  0.16977901563E+03  0.00000000000E+00 0. -1.
</event>
<event>
 7    1  0.2394257E-009  0.8281172E+02  0.7561462E-02  0.1321256E+00
         -3   -1    0    0    0  501 -0.00000000000E+00  0.00000000000E+00  0.23675910822E+02  0.23675910822E+02  0.00000000000E+00 0.  1.
          3   -1    0    0  501    0  0.00000000000E+00 -0.00000000000E+00 -0.47010125908E+03  0.47010125908E+03  0.00000000000E+00 0. -1.
         25    2    1    2    0    0  0.11682304989E+02 -0.11766732226E+02 -0.26932978017E+03  0.29742823472E+03  0.12510032807E+03 0.  0.
          5    1    3    3  502    0 -0.44103787921E+02 -0.12688111648E+02 -0.21339366361E+03  0.21831275812E+03  0.41800000000E+01 0.  1.
         -5    1    3    3    0  502  0.55786092910E+02  0.92137942218E+00 -0.55936116559E+02  0.79115476601E+02  0.41800000000E+01 0.  1.
        -11    1    1    2    0    0 -0.54302015101E+01  0.37101096490E+02 -0.16183002989E+03  0.16611723879E+03  0.00000000000E+00 0. -1.
         11    1    1    2    0    0 -0.62521034789E+01 -0.25334364264E+02 -0.15265538203E+02  0.30231696400E+02  0.00000000000E+00 0.  1.
</event>
<event>
 7    1  0.2394257E-009  0.7056446E+02  0.7561462E-02  0.1358184E+00
          3   -1    0    0  501    0  0.00000000000E+00  0.00000000000E+00  0.37102118246E+02  0.37102118246E+02  0.00000000000E+00 0. -1.
         -3   -1    0    0    0  501 -0.00000000000E+00 -0.00000000000E+00 -0.43303805070E+03  0.43303805070E+03  0.00000000000E+00 0.  1.
         25    2    1    2    0    0 -0.92835662451E+00  0.35877074791E+02 -0.32287130847E+03  0.34811129552E+03  0.12509023102E+03 0.  0.
          5    1    3    3  502    0  0.14230534784E+02  0.58622463218E+00 -0.30531209334E+03  0.30567269836E+03  0.41800000000E+01 0. -1.
         -5    1    3    3    0  502 -0.15158891408E+02  0.35290850159E+02 -0.17559215127E+02  0.42438597167E+02  0.41800000000E+01 0. -1.
        -11    1    1    2    0    0  0.19313641097E+02  0.20610649400E+02 -0.51675354250E+02  0.58891067557E+02  0.00000000000E+00 0. -1.
         11    1    1    2    0    0 -0.18385284473E+02 -0.56487724191E+02 -0.21389269729E+02  0.63137805861E+02  0.00000000000E+00 0.  1.
</event>
<event>
 7    1  0.2394257E-009  0.9744808E+02  0.7561462E-02  0.1285756E+00
         -1   -1    0    0    0  501 -0.00000000000E+00  0.00000000000E+00  0.10029353556E+03  0.10029353556E+03  0.00000000000E+00 0.  1.
          1   -1    0    0  501    0  0.00000000000E+00 -0.00000000000E+00 -0.17960775251E+03  0.17960775251E+03  0.00000000000E+00 0. -1.
         25    2    1    2    0    0 -0.17092232997E+02 -0.84876992026E+01 -0.12354387420E+03  0.17684806942E+03  0.12509182762E+03 0.  0.
          5    1    3    3  502    0 -0.54626700965E+02 -0.42707673815E+02 -0.43515870460E+02  0.81970270482E+02  0.41800000000E+01 0.  1.
         -5    1    3    3    0  502  0.37534467969E+02  0.34219974612E+02 -0.80028003742E+02  0.94877798937E+02  0.41800000000E+01 0.  1.
        -11    1    1    2    0    0  0.41312552374E+02 -0.11698624253E+02  0.54963663595E+02  0.69746606433E+02  0.00000000000E+00 0.  1.
         11    1    1    2    0    0 -0.24220319377E+02  0.20186323456E+02 -0.10734006337E+02  0.33306612218E+02  0.00000000000E+00 0. -1.
</event>
<event>
 7    1  0.2394257E-009  0.1144770E+03  0.7561462E-02  0.1252497E+00
          1   -1    0    0  501    0  0.00000000000E+00  0.00000000000E+00  0.10671166021E+03  0.10671166021E+03  0.00000000000E+00 0. -1.
         -1   -1    0    0    0  501 -0.00000000000E+00 -0.00000000000E+00 -0.16658782452E+03  0.16658782452E+03  0.00000000000E+00 0.  1.
         25    2    1    2    0    0 -0.15500722131E+02 -0.76591027893E+02 -0.41349959797E+02  0.15317996230E+03  0.12509126162E+03 0.  0.
          5    1    3    3  502    0  0.37680405737E+02  0.14879305410E+02 -0.41124493033E+01  0.40933987655E+02  0.41800000000E+01 0.  1.
         -5    1    3    3    0  502 -0.53181127869E+02 -0.91470333303E+02 -0.37237510494E+02  0.11224597464E+03  0.41800000000E+01 0.  1.
        -11    1    1    2    0    0  0.34446950384E+01  0.66575275684E+02 -0.51083380682E+02  0.83985981200E+02  0.00000000000E+00 0.  1.
         11    1    1    2    0    0  0.12056027093E+02  0.10015752209E+02  0.32557176172E+02  0.36133541231E+02  0.00000000000E+00 0. -1.
</event>
<event>
 7    1  0.2394257E-009  0.2983206E+03  0.7561462E-02  0.1086083E+00
          1   -1    0    0  501    0  0.00000000000E+00  0.00000000000E+00  0.91157281107E+03  0.91157281107E+03  0.00000000000E+00 0. -1.
         -1   -1    0    0    0  501 -0.00000000000E+00 -0.00000000000E+00 -0.16362645147E+03  0.16362645147E+03  0.00000000000E+00 0.  1.
         25    2    1    2    0    0 -0.26437346912E+03  0.10620101443E+03  0.70736455418E+03  0.77277651732E+03  0.12508775546E+03 0.  0.
          5    1    3    3  502    0 -0.27729333971E+03  0.96206559324E+02  0.67974100626E+03  0.74041380747E+03  0.41800000000E+01 0. -1.
         -5    1    3    3    0  502  0.12919870589E+02  0.99944551032E+01  0.27623547928E+02  0.32362709852E+02  0.41800000000E+01 0. -1.
        -11    1    1    2    0    0  0.15675279234E+03 -0.77474070699E+02  0.68163892568E+02  0.18766988513E+03  0.00000000000E+00 0. -1.
         11    1    1    2    0    0  0.10762067678E+03 -0.28726943729E+02 -0.27582087153E+02  0.11475286009E+03  0.00000000000E+00 0.  1.
</event>
<event>
 7    1  0.2394257E-009  0.9829157E+02  0.7561462E-02  0.1283930E+00
         -2   -1    0    0    0  501 -0.00000000000E+00  0.00000000000E+00  0.40742201644E+02  0.40742201644E+02  0.00000000000E+00 0. -1.
          2   -1    0    0  501    0  0.00000000000E+00 -0.00000000000E+00 -0.39081571261E+03  0.39081571261E+03  0.00000000000E+00 0.  1.
         25    2    1    2    0    0  0.42858025009E+02  0.44387626596E+02 -0.22286986698E+03  0.26292168115E+03  0.12509900524E+03 0.  0.
          5    1    3    3  502    0  0.55278554308E+02  0.21408480089E+02 -0.22830776240E+03  0.23591512956E+03  0.41800000000E+01 0.  1.
         -5    1    3    3    0  502 -0.12420529299E+02  0.22979146507E+02  0.54378954187E+01  0.27006551591E+02  0.41800000000E+01 0.  1.
        -11    1    1    2    0    0 -0.62458926870E+00 -0.64094967289E+02 -0.74769749455E+02  0.98483858459E+02  0.00000000000E+00 0.  1.
         11    1    1    2    0    0 -0.42233435741E+02  0.19707340693E+02 -0.52433894528E+02  0.70152374636E+02  0.00000000000E+00 0. -1.
</event>
<event>
 7    1  0.2394257E-009  0.2617404E+03  0.7561462E-02  0.1106102E+00
         -1   -1    0    0    0  501 -0.00000000000E+00  0.00000000000E+00  0.37729607167E+02  0.37729607167E+02  0.00000000000E+00 0.  1.
          1   -1    0    0  501    0  0.00000000000E+00 -0.00000000000E+00 -0.20842130928E+04  0.20842130928E+04  0.00000000000E+00 0. -1.
         25    2    1    2    0    0 -0.11739056896E+03  0.21225970430E+03 -0.13768757628E+04  0.14036629678E+04  0.12509249900E+03 0.  0.
          5    1    3    3  502    0 -0.39462366196E+02  0.18014245574E+03 -0.10493631128E+04  0.10654524849E+04  0.41800000000E+01 0. -1.
         -5    1    3    3    0  502 -0.77928202766E+02  0.32117248569E+02 -0.32751265007E+03  0.33821048298E+03  0.41800000000E+01 0. -1.
        -11    1    1    2    0    0  0.12871434296E+03 -0.18780987879E+03 -0.63387778445E+03  0.67352875089E+03  0.00000000000E+00 0. -1.
         11    1    1    2    0    0 -0.11323773993E+02 -0.24449825511E+02 -0.35729938313E+02  0.44750981182E+02  0.00000000000E+00 0.  1.
</event>
<event>
 7    1  0.2394257E-009  0.6733051E+02  0.7561462E-02  0.1369413E+00
          3   -1    0    0  501    0  0.00000000000E+00  0.00000000000E+00  0.11542177157E+02  0.11542177157E+02  0.00000000000E+00 0. -1.
         -3   -1    0    0    0  501 -0.00000000000E+00 -0.00000000000E+00 -0.94563254075E+03  0.94563254075E+03  0.00000000000E+00 0.  1.
         25    2    1    2    0    0 -0.25405592128E+02 -0.44127695496E+02 -0.74356069446E+03  0.75572651505E+03  0.12508941439E+03 0.  0.
          5    1    3    3  502    0 -0.13390692754E+02 -0.52485550439E+02 -0.11718535765E+03  0.12916626536E+03  0.41800000000E+01 0. -1.
         -5    1    3    3    0  502 -0.12014899374E+02  0.83578549432E+01 -0.62637533680E+03  0.62656024970E+03  0.41800000000E+01 0. -1.
        -11    1    1    2    0    0 -0.69612626701E+00  0.38378255283E+02 -0.10254817692E+03  0.10949659201E+03  0.00000000000E+00 0. -1.
         11    1    1    2    0    0  0.26101718395E+02  0.57494402127E+01 -0.87981492213E+02  0.91951610850E+02  0.00000000000E+00 0.  1.
</event>
<event>
 7    1  0.2394257E-009  0.1497405E+03  0.7561462E-02  0.1200792E+00
          1   -1    0    0  501    0  0.00000000000E+00  0.00000000000E+00  0.21464093719E+03  0.21464093719E+03  0.00000000000E+00 0. -1.
         -1   -1    0    0    0  501 -0.00000000000E+00 -0.00000000000E+00 -0.12878280329E+03  0.12878280329E+03  0.00000000000E+00 0.  1.
         25    2    1    2    0    0 -0.12041135098E+03  0.78868193961E+01  0.81947746080E+02  0.19215543535E+03  0.12508870006E+03 0.  0.
          5    1    3    3  502    0 -0.84439581055E+02 -0.35711333919E+02 -0.89509646724E+00  0.91780258317E+02  0.41800000000E+01 0.  1.
         -5    1    3    3    0  502 -0.35971769925E+02  0.43598153315E+02  0.82842842547E+02  0.10037517704E+03  0.41800000000E+01 0.  1.
        -11    1    1    2    0    0  0.23336172628E+02  0.37263209945E+02 -0.22967386709E+01  0.44027250389E+02  0.00000000000E+00 0. -1.
         11    1    1    2    0    0  0.97075178352E+02 -0.45150029341E+02  0.62071264876E+01  0.10724105474E+03  0.00000000000E+00 0.  1.
</event>
<event>
 7    1  0.2394257E-009  0.1971300E+03  0.7561462E-02  0.1152183E+00
          1   -1    0    0  501    0  0.00000000000E+00  0.00000000000E+00  0.11754615099E+03  0.11754615099E+03  0.00000000000E+00 0. -1.
         -1   -1    0    0    0  501 -0.00000000000E+00 -0.00000000000E+00 -0.54868435282E+03  0.54868435282E+03  0.00000000000E+00 0.  1.
         25    2    1    2    0    0 -0.11984096550E+03 -0.11708208035E+03 -0.16400057489E+02  0.20972945801E+03  0.12508962036E+03 0.  0.
          5    1    3    3  502    0 -0.94086840464E+02 -0.99853632240E+01 -0.28336883835E+02  0.98855917439E+02  0.41800000000E+01 0. -1.
         -5    1    3    3    0  502 -0.25754125032E+02 -0.10709671713E+03  0.11936826347E+02  0.11087354057E+03  0.41800000000E+01 0. -1.
        -11    1    1    2    0    0 -0.46106812934E+01  0.45542034238E+02 -0.77948791989E+02  0.90395516687E+02  0.00000000000E+00 0.  1.
         11    1    1    2    0    0  0.12445164679E+03  0.71540046112E+02 -0.33678935236E+03  0.36610552911E+03  0.00000000000E+00 0. -1.
</event>
<event>
 7    1  0.2394257E-009  0.8902666E+02  0.7561462E-02  0.1305226E+00
         -2   -1    0    0    0  501 -0.00000000000E+00  0.00000000000E+00  0.14084759746E+02  0.14084759746E+02  0.00000000000E+00 0. -1.
          2   -1    0    0  501    0  0.00000000000E+00 -0.00000000000E+00 -0.11994531336E+04  0.11994531336E+04  0.00000000000E+00 0.  1.
         25    2    1    2    0    0 -0.20305659745E+02  0.67410700034E+02 -0.72579920961E+03  0.73985685272E+03  0.12508855885E+03 0.  0.
          5    1    3    3  502    0  0.25396763924E+01  0.51175912954E+02 -0.91720997196E+02  0.10514579283E+03  0.41800000000E+01 0.  1.
         -5    1    3    3    0  502 -0.22845336137E+02  0.16234787081E+02 -0.63407821242E+03  0.63471105990E+03  0.41800000000E+01 0.  1.
        -11    1    1    2    0    0 -0.20024238865E+02 -0.31804194037E+00 -0.24586742122E+02  0.31710868499E+02  0.00000000000E+00 0. -1.
         11    1    1    2    0    0  0.40329898610E+02 -0.67092658094E+02 -0.43498242216E+03  0.44197017216E+03  0.00000000000E+00 0.  1.
</event>
<event>
 7    1  0.2394257E-009  0.1664124E+03  0.7561462E-02  0.1181642E+00
         -3   -1    0    0    0  501 -0.00000000000E+00  0.00000000000E+00  0.27643669029E+03  0.27643669029E+03  0.00000000000E+00 0.  1.
          3   -1    0    0  501    0  0.00000000000E+00 -0.00000000000E+00 -0.12189256013E+03  0.12189256013E+03  0.00000000000E+00 0. -1.
         25    2    1    2    0    0 -0.10588550264E+03 -0.69030913657E+02  0.16391094599E+03  0.24184821299E+03  0.12508698254E+03 0.  0.
          5    1    3    3  502    0  0.17370142336E+02  0.18333094380E+02  0.33953993439E+02  0.42522585349E+02  0.41800000000E+01 0. -1.
         -5    1    3    3    0  502 -0.12325564497E+03 -0.87364008037E+02  0.12995695255E+03  0.19932562764E+03  0.41800000000E+01 0. -1.
        -11    1    1    2    0    0  0.54473064566E+02  0.86129267592E+02 -0.33214051767E+01  0.10196370546E+03  0.00000000000E+00 0.  1.
         11    1    1    2    0    0  0.51412438070E+02 -0.17098353936E+02 -0.60454106535E+01  0.54517331975E+02  0.00000000000E+00 0. -1.
</event>
<event>
 7    1  0.2394257E-009  0.1251539E+03  0.7561462E-02  0.1234829E+00
         -2   -1    0    0    0  501 -0.00000000000E+00  0.00000000000E+00  0.63432755606E+03  0.63432755606E+03  0.00000000000E+00 0.  1.
          2   -1    0    0  501    0  0.00000000000E+00 -0.00000000000E+00 -0.26677769224E+02  0.26677769224E+02  0.00000000000E+00 0. -1.
         25    2    1    2    0    0 -0.52727675821E+02 -0.22530004041E+02  0.39421505607E+03  0.41753800835E+03  0.12507865169E+03 0.  0.
          5    1    3    3  502    0 -0.42848532138E+02  0.48551203912E+02  0.20986608636E+03  0.21966898441E+03  0.41800000000E+01 0. -1.
         -5    1    3    3    0  502 -0.98791436831E+01 -0.71081207953E+02  0.18434896971E+03  0.19786902394E+03  0.41800000000E+01 0. -1.
        -11    1    1    2    0    0  0.20644805294E+02 -0.39007132222E+02  0.55131499212E+02  0.70620440067E+02  0.00000000000E+00 0.  1.
         11    1    1    2    0    0  0.32082870527E+02  0.61537136264E+02  0.15830323156E+03  0.17284687687E+03  0.00000000000E+00 0. -1.
</event>
<event>
 7    1  0.2394257E-009  0.1138144E+03  0.7561462E-02  0.1253665E+00
         -2   -1    0    0    0  501 -0.00000000000E+00  0.00000000000E+00  0.60274276793E+02  0.60274276793E+02  0.00000000000E+00 0.  1.
          2   -1    0    0  501    0  0.00000000000E+00 -0.00000000000E+00 -0.22368182008E+03  0.22368182008E+03  0.00000000000E+00 0. -1.
         25    2    1    2    0    0 -0.20304224453E+02 -0.34876962967E+02 -0.78976233541E+02  0.15333990309E+03  0.12508883379E+03 0.  0.
          5    1    3    3  502    0 -0.96976642637E+01  0.45567266217E+02 -0.12645291361E+02  0.48454063155E+02  0.41800000000E+01 0.  1.
         -5    1    3    3    0  502 -0.10606560189E+02 -0.80444229184E+02 -0.66330942180E+02  0.10488583993E+03  0.41800000000E+01 0.  1.
        -11    1    1    2    0    0  0.55109688324E+02  0.34070694040E+02 -0.52871787384E+02  0.83626047621E+02  0.00000000000E+00 0. -1.
         11    1    1    2    0    0 -0.34805463871E+02  0.80626892709E+00 -0.31559522366E+02  0.46990146168E+02  0.00000000000E+00 0.  1.
</event>
<event>
 7    1  0.2394257E-009  0.1478862E+03  0.7561462E-02  0.1203095E+00
         -2   -1    0    0    0  501 -0.00000000000E+00  0.00000000000E+00  0.86838650409E+02  0.86838650409E+02  0.00000000000E+00 0.  1.
          2   -1    0    0  501    0  0.00000000000E+00 -0.00000000000E+00 -0.56511430115E+03  0.56511430115E+03  0.00000000000E+00 0. -1.
         25    2    1    2    0    0 -0.80227705497E+02 -0.11105133234E+03 -0.44645848988E+03  0.48346867220E+03  0.12509152918E+03 0.  0.
          5    1    3    3  502    0 -0.72764081441E+02 -0.10538943649E+03 -0.20473300722E+03  0.24152561255E+03  0.41800000000E+01 0.  1.
         -5    1    3    3    0  502 -0.74636240559E+01 -0.56618958546E+01 -0.24172548266E+03  0.24194305966E+03  0.41800000000E+01 0.  1.
        -11    1    1    2    0    0  0.49982099063E+02  0.88056488693E+01  0.13671566196E+02  0.52561025494E+02  0.00000000000E+00 0.  1.
         11    1    1    2    0    0  0.30245606434E+02  0.10224568347E+03 -0.45488727063E+02  0.11592325387E+03  0.00000000000E+00 0. -1.
</event>
<event>
 7    1  0.2394257E-009  0.1302349E+03  0.7561462E-02  0.1227108E+00
         -2   -1    0    0    0  501 -0.00000000000E+00  0.00000000000E+00  0.25446102964E+02  0.25446102964E+02  0.00000000000E+00 0.  1.
          2   -1    0    0  501    0  0.00000000000E+00 -0.00000000000E+00 -0.91675084420E+03  0.91675084420E+03  0.00000000000E+00 0. -1.
         25    2    1    2    0    0 -0.77529400214E+02  0.66803529498E+02 -0.58316991430E+03  0.60515237651E+03  0.12509488561E+03 0.  0.
          5    1    3    3  502    0  0.20395597358E+02  0.29813852099E+02 -0.50216428807E+02  0.62000066861E+02  0.41800000000E+01 0. -1.
         -5    1    3    3    0  502 -0.97924997572E+02  0.36989677398E+02 -0.53295348549E+03  0.54315230965E+03  0.41800000000E+01 0. -1.
        -11    1    1    2    0    0  0.46692614006E+02 -0.74166734173E+02 -0.13446475568E+03  0.16050443976E+03  0.00000000000E+00 0.  1.
         11    1    1    2    0    0  0.30836786207E+02  0.73632046758E+01 -0.17367007126E+03  0.17654013090E+03  0.00000000000E+00 0. -1.
</event>
<event>
 7    1  0.2394257E-009  0.9108635E+02  0.7561462E-02  0.1300242E+00
          4   -1    0    0  501    0  0.00000000000E+00  0.00000000000E+00  0.51455356283E+03  0.51455356283E+03  0.00000000000E+00 0.  1.
         -4   -1    0    0    0  501 -0.00000000000E+00 -0.00000000000E+00 -0.29123708253E+02  0.29123708253E+02  0.00000000000E+00 0. -1.
         25    2    1    2    0    0  0.34198117543E+02  0.42477056706E+02  0.19971407001E+03  0.24188224393E+03  0.12508996194E+03 0.  0.
          5    1    3    3  502    0  0.41294894253E+02  0.56841667466E+02  0.21061089454E+03  0.22206004762E+03  0.41800000000E+01 0. -1.
         -5    1    3    3    0  502 -0.70967767092E+01 -0.14364610760E+02 -0.10896824523E+02  0.19822196312E+02  0.41800000000E+01 0. -1.
        -11    1    1    2    0    0 -0.12032232066E+02 -0.63531121668E+02  0.22020530549E+03  0.22950240651E+03  0.00000000000E+00 0.  1.
         11    1    1    2    0    0 -0.22165885477E+02  0.21054064963E+02  0.65510479079E+02  0.72292620644E+02  0.00000000000E+00 0. -1.
</event>
<event>
 7    1  0.2394257E-009  0.9756399E+02  0.7561462E-02  0.1285504E+00
         -1   -1    0    0    0  501 -0.00000000000E+00  0.00000000000E+00  0.18497450158E+02  0.18497450158E+02  0.00000000000E+00 0.  1.
          1   -1    0    0  501    0  0.00000000000E+00 -0.00000000000E+00 -0.13001889982E+04  0.13001889982E+04  0.00000000000E+00 0. -1.
         25    2    1    2    0    0  0.90477145303E+02 -0.89188079373E+01 -0.94827633974E+03  0.96080237617E+03  0.12509008984E+03 0.  0.
          5    1    3    3  502    0  0.22907748569E+02 -0.18035199398E+02 -0.38544961576E+02  0.48509997163E+02  0.41800000000E+01 0.  1.
         -5    1    3    3    0  502  0.67569396735E+02  0.91163914612E+01 -0.90973137817E+03  0.91229237900E+03  0.41800000000E+01 0.  1.
        -11    1    1    2    0    0 -0.42688991029E+02  0.21713063466E+02 -0.28382320592E+03  0.28783575056E+03  0.00000000000E+00 0. -1.
         11    1    1    2    0    0 -0.47788154275E+02 -0.12794255529E+02 -0.49592002372E+02  0.70048321627E+02  0.00000000000E+00 0.  1.
</event>
<event>
 7    1  0.2394257E-009  0.1444151E+03  0.7561462E-02  0.1207509E+00
         -1   -1    0    0    0  501 -0.00000000000E+00  0.00000000000E+00  0.12154147000E+03  0.12154147000E+03  0.00000000000E+00 0.  1.
          1   -1    0    0  501    0  0.00000000000E+00 -0.00000000000E+00 -0.17690365287E+03  0.17690365287E+03  0.00000000000E+00 0. -1.
         25    2    1    2    0    0 -0.65110914169E+02 -0.66620043441E+02 -0.71258297321E+01  0.15613486530E+03  0.12509859064E+03 0.  0.
          5    1    3    3  502    0 -0.64053443474E+02 -0.10177874310E+03 -0.20195347882E+01  0.12034661228E+03  0.41800000000E+01 0.  1.
         -5    1    3    3    0  502 -0.10574706948E+01  0.35158699658E+02 -0.51062949439E+01  0.35788253017E+02  0.41800000000E+01 0.  1.
        -11    1    1    2    0    0 -0.24998634372E+02  0.12278118118E+02 -0.38950997114E+01  0.28122156865E+02  0.00000000000E+00 0.  1.
         11    1    1    2    0    0  0.90109548541E+02  0.54341925323E+02 -0.44341253426E+02  0.11418810070E+03  0.00000000000E+00 0. -1.
</event>
<event>
 7    1  0.2394257E-009  0.8039342E+02  0.7561462E-02  0.1327939E+00
          2   -1    0    0  501    0  0.00000000000E+00  0.00000000000E+00  0.19226310261E+03  0.19226310261E+03  0.00000000000E+00 0. -1.
         -2   -1    0    0    0  501 -0.00000000000E+00 -0.00000000000E+00 -0.67762458230E+02  0.67762458230E+02  0.00000000000E+00 0.  1.
         25    2    1    2    0    0  0.32535297303E+02 -0.13497768587E+02  0.67391292278E+02  0.14638935002E+03  0.12509004836E+03 0.  0.
          5    1    3    3  502    0  0.70498090636E+02  0.18288593238E+02  0.15569668681E+02  0.74594506559E+02  0.41800000000E+01 0.  1.
         -5    1    3    3    0  502 -0.37962793333E+02 -0.31786361826E+02  0.51821623597E+02  0.71794843464E+02  0.41800000000E+01 0.  1.
        -11    1    1    2    0    0 -0.15559413735E+02  0.14325782475E+02 -0.23289879795E+02  0.31460163701E+02  0.00000000000E+00 0.  1.
         11    1    1    2    0    0 -0.16975883569E+02 -0.82801388745E+00  0.80399231898E+02  0.82176047116E+02  0.00000000000E+00 0. -1.
</event>
<event>
 7    1  0.2394257E-009  0.1957542E+03  0.7561462E-02  0.1153371E+00
         -2   -1    0    0    0  501 -0.00000000000E+00  0.00000000000E+00  0.80679217109E+02  0.80679217109E+02  0.00000000000E+00 0.  1.
          2   -1    0    0  501    0  0.00000000000E+00 -0.00000000000E+00 -0.95266168595E+03  0.95266168595E+03  0.00000000000E+00 0. -1.
         25    2    1    2    0    0  0.11717660586E+03  0.12562833000E+03 -0.79800440620E+03  0.82581484756E+03  0.12508515448E+03 0.  0.
          5    1    3    3  502    0  0.50767393573E+02  0.12096746528E+03 -0.65495955657E+03  0.66798199755E+03  0.41800000000E+01 0.  1.
         -5    1    3    3    0  502  0.66409212283E+02  0.46608647209E+01 -0.14304484964E+03  0.15783285001E+03  0.41800000000E+01 0.  1.
        -11    1    1    2    0    0 -0.53065958707E+02 -0.11749803746E+03 -0.55053447486E+02  0.14018796974E+03  0.00000000000E+00 0. -1.
         11    1    1    2    0    0 -0.64110647149E+02 -0.81302925374E+01 -0.18924615153E+02  0.67338085756E+02  0.00000000000E+00 0.  1.
</event>
<event>
 7    1  0.2394257E-009  0.2138170E+03  0.7561462E-02  0.1138578E+00
         -1   -1    0    0    0  501 -0.00000000000E+00  0.00000000000E+00  0.14002310234E+03  0.14002310234E+03  0.00000000000E+00 0.  1.
          1   -1    0    0  501    0  0.00000000000E+00 -0.00000000000E+00 -0.43917924057E+03  0.43917924057E+03  0.00000000000E+00 0. -1.
         25    2    1    2    0    0  0.14478259639E+03  0.13253022925E+03 -0.33131371739E+02  0.23508960139E+03  0.12507266290E+03 0.  0.
          5    1    3    3  502    0 -0.58487454106E+01  0.64539231995E+02 -0.24958980186E+02  0.69569701604E+02  0.41800000000E+01 0. -1.
         -5    1    3    3    0  502  0.15063134180E+03  0.67990997258E+02 -0.81723915532E+01  0.16551989978E+03  0.41800000000E+01 0. -1.
        -11    1    1    2    0    0 -0.71299623308E+02 -0.79303231716E+02 -0.21504851211E+03  0.24003854150E+03  0.00000000000E+00 0. -1.
         11    1    1    2    0    0 -0.73482973082E+02 -0.53226997538E+02 -0.50976254388E+02  0.10407420003E+03  0.00000000000E+00 0.  1.
</event>
<event>
 7    1  0.2394257E-009  0.1299899E+03  0.7561462E-02  0.1227471E+00
         -1   -1    0    0    0  501 -0.00000000000E+00  0.00000000000E+00  0.19101471896E+03  0.19101471896E+03  0.00000000000E+00 0.  1.
          1   -1    0    0  501    0  0.00000000000E+00 -0.00000000000E+00 -0.11900480017E+03  0.11900480017E+03  0.00000000000E+00 0. -1.
         25    2    1    2    0    0 -0.91727873134E+02  0.48868637788E+02  0.14806534552E+02  0.16331527428E+03  0.12510195394E+03 0.  0.
          5    1    3    3  502    0 -0.75911503534E+02 -0.56490867658E+01 -0.38434658416E+02  0.85376600527E+02  0.41800000000E+01 0. -1.
         -5    1    3    3    0  502 -0.15816369600E+02  0.54517724554E+02  0.53241192968E+02  0.77938673754E+02  0.41800000000E+01 0. -1.
        -11    1    1    2    0    0  0.46817488646E+02 -0.64121671201E+02  0.10405010490E+02  0.80073280213E+02  0.00000000000E+00 0. -1.
         11    1    1    2    0    0  0.44910384488E+02  0.15253033413E+02  0.46798373742E+02  0.66630964634E+02  0.00000000000E+00 0.  1.
</event>
<event>
 7    1  0.2394257E-009  0.9136292E+02  0.7561462E-02  0.1299584E+00
          1   -1    0    0  501    0  0.00000000000E+00  0.00000000000E+00  0.74642123142E+03  0.74642123142E+03  0.00000000000E+00 0. -1.
         -1   -1    0    0    0  501 -0.00000000000E+00 -0.00000000000E+00 -0.17264079411E+02  0.17264079411E+02  0.00000000000E+00 0.  1.
         25    2    1    2    0    0 -0.53226557304E+01  0.35918802145E+02  0.51710038655E+03  0.53325351647E+03  0.12509201432E+03 0.  0.
          5    1    3    3  502    0 -0.38719614348E+02 -0.16418712849E+02  0.38407867442E+03  0.38639705384E+03  0.41800000000E+01 0.  1.
         -5    1    3    3    0  502  0.33396958617E+02  0.52337514994E+02  0.13302171213E+03  0.14685646264E+03  0.41800000000E+01 0.  1.
        -11    1    1    2    0    0 -0.21235616166E+02 -0.45331580253E+02  0.72781669785E+02  0.88335015814E+02  0.00000000000E+00 0.  1.
         11    1    1    2    0    0  0.26558271896E+02  0.94127781084E+01  0.13927509567E+03  0.14209677854E+03  0.00000000000E+00 0. -1.
</event>
<event>
 7    1  0.2394257E-009  0.1087834E+03  0.7561462E-02  0.1262840E+00
          1   -1    0    0  501    0  0.00000000000E+00  0.00000000000E+00  0.59857227812E+03  0.59857227812E+03  0.00000000000E+00 0. -1.
         -1   -1    0    0    0  501 -0.00000000000E+00 -0.00000000000E+00 -0.23854729425E+02  0.23854729425E+02  0.00000000000E+00 0.  1.
         25    2    1    2    0    0  0.23774513146E+02 -0.23261651035E+02  0.22693593947E+03  0.26125389328E+03  0.12508934505E+03 0.  0.
          5    1    3    3  502    0 -0.11302257231E+02  0.43208744182E+02  0.41451218470E+02  0.61077102951E+02  0.41800000000E+01 0. -1.
         -5    1    3    3    0  502  0.35076770377E+02 -0.66470395217E+02  0.18548472100E+03  0.20017679033E+03  0.41800000000E+01 0. -1.
        -11    1    1    2    0    0 -0.51167849194E+01  0.57881769781E+02  0.20630665179E+03  0.21433365422E+03  0.00000000000E+00 0.  1.
         11    1    1    2    0    0 -0.18657728227E+02 -0.34620118746E+02  0.14147495744E+03  0.14683946004E+03  0.00000000000E+00 0. -1.
</event>
<event>
 7    1  0.2394257E-009  0.1273228E+03  0.7561462E-02  0.1231483E+00
         -2   -1    0    0    0  501 -0.00000000000E+00  0.00000000000E+00  0.39756305351E+03  0.39756305351E+03  0.00000000000E+00 0. -1.
          2   -1    0    0  501    0  0.00000000000E+00 -0.00000000000E+00 -0.58567000023E+02  0.58567000023E+02  0.00000000000E+00 0.  1.
         25    2    1    2    0    0  0.28577526702E+02 -0.10089525960E+03  0.20711709096E+03  0.26371248869E+03  0.12510099473E+03 0.  0.
          5    1    3    3  502    0  0.42003154707E+02  0.52908055354E+01  0.17636295035E+02  0.46051807034E+02  0.41800000000E+01 0.  1.
         -5    1    3    3    0  502 -0.13425628005E+02 -0.10618606513E+03  0.18948079592E+03  0.21766068166E+03  0.41800000000E+01 0.  1.
        -11    1    1    2    0    0 -0.16379850261E+02  0.48351904435E+02  0.12238161035E+01  0.51065682046E+02  0.00000000000E+00 0.  1.
         11    1    1    2    0    0 -0.12197676441E+02  0.52543355163E+02  0.13065514643E+03  0.14135188280E+03  0.00000000000E+00 0. -1.
</event>
<event>
 7    1  0.2394257E-009  0.2442245E+03  0.7561462E-02  0.1117010E+00
          2   -1    0    0  501    0  0.00000000000E+00  0.00000000000E+00  0.14992360458E+04  0.14992360458E+04  0.00000000000E+00 0.  1.
         -2   -1    0    0    0  501 -0.00000000000E+00 -0.00000000000E+00 -0.69120315451E+02  0.69120315451E+02  0.00000000000E+00 0. -1.
         25    2    1    2    0    0  0.11384751634E+03 -0.21518485250E+03  0.28866575097E+03  0.39779651577E+03  0.12509346289E+03 0.  0.
          5    1    3    3  502    0  0.96281821017E+02 -0.17322565812E+03  0.14109018697E+03  0.24331303078E+03  0.41800000000E+01 0. -1.
         -5    1    3    3    0  502  0.17565695322E+02 -0.41959194376E+02  0.14757556400E+03  0.15448348499E+03  0.41800000000E+01 0. -1.
        -11    1    1    2    0    0 -0.33787180097E+02  0.43277786205E+02  0.12434247959E+03  0.13592495190E+03  0.00000000000E+00 0. -1.
         11    1    1    2    0    0 -0.80060336242E+02  0.17190706629E+03  0.10171074998E+04  0.10346348936E+04  0.00000000000E+00 0.  1.
</event>
<event>
 7    1  0.2394257E-009  0.1524073E+03  0.7561462E-02  0.1197546E+00
          1   -1    0    0  501    0  0.00000000000E+00  0.00000000000E+00  0.81318574327E+03  0.81318574327E+03  0.00000000000E+00 0. -1.
         -1   -1    0    0    0  501 -0.00000000000E+00 -0.00000000000E+00 -0.29488583553E+02  0.29488583553E+02  0.00000000000E+00 0.  1.
         25    2    1    2    0    0 -0.60879099927E+02 -0.89027287352E+02  0.35386572902E+03  0.39051318622E+03  0.12508985465E+03 0.  0.
          5    1    3    3  502    0  0.38683673962E+02 -0.23505135184E+02  0.11091231531E+03  0.11986630928E+03  0.41800000000E+01 0.  1.
         -5    1    3    3    0  502 -0.99562773889E+02 -0.65522152168E+02  0.24295341371E+03  0.27064687695E+03  0.41800000000E+01 0.  1.
        -11    1    1    2    0    0 -0.77794779501E+01  0.67778921407E+02  0.22261471045E+03  0.23283430111E+03  0.00000000000E+00 0.  1.
         11    1    1    2    0    0  0.68658577877E+02  0.21248365945E+02  0.20721672025E+03  0.21932683949E+03  0.00000000000E+00 0. -1.
</event>
<event>
 7    1  0.2394257E-009  0.1568596E+03  0.7561462E-02  0.1192289E+00
          1   -1    0    0  501    0  0.00000000000E+00  0.00000000000E+00  0.25584731779E+02  0.25584731779E+02  0.00000000000E+00 0. -1.
         -1   -1    0    0    0  501 -0.00000000000E+00 -0.00000000000E+00 -0.11213654558E+04  0.11213654558E+04  0.00000000000E+00 0.  1.
         25    2    1    2    0    0 -0.35592861254E+00 -0.12921559257E+03 -0.61292434818E+03  0.63876100789E+03  0.12507027050E+03 0.  0.
          5    1    3    3  502    0 -0.44998591085E+02 -0.60989484712E+02 -0.14399491827E+03  0.16277776056E+03  0.41800000000E+01 0.  1.
         -5    1    3    3    0  502  0.44642662472E+02 -0.68226107862E+02 -0.46892942991E+03  0.47598324733E+03  0.41800000000E+01 0.  1.
        -11    1    1    2    0    0  0.41332907543E+02  0.37887008856E+02 -0.21655064124E+03  0.22369178552E+03  0.00000000000E+00 0.  1.
         11    1    1    2    0    0 -0.40976978931E+02  0.91328583718E+02 -0.26630573456E+03  0.28449739413E+03  0.00000000000E+00 0. -1.
</event>
<event>
 7    1  0.2394257E-009  0.7822244E+02  0.7561462E-02  0.1334173E+00
         -1   -1    0    0    0  501 -0.00000000000E+00  0.00000000000E+00  0.95771776047E+02  0.95771776047E+02  0.00000000000E+00 0.  1.
          1   -1    0    0  501    0  0.00000000000E+00 -0.00000000000E+00 -0.13857741154E+03  0.13857741154E+03  0.00000000000E+00 0. -1.
         25    2    1    2    0    0 -0.18279479986E+01 -0.96402452089E+01 -0.63216528268E+02  0.14049894450E+03  0.12508936101E+03 0.  0.
          5    1    3    3  502    0 -0.54695374553E+02 -0.31685478527E+02 -0.52055190062E+02  0.81992492092E+02  0.41800000000E+01 0. -1.
         -5    1    3    3    0  502  0.52867426555E+02  0.22045233318E+02 -0.11161338206E+02  0.58506452406E+02  0.41800000000E+01 0. -1.
        -11    1    1    2    0    0  0.17560607011E+02  0.94257302237E+01  0.53564658950E+02  0.57152357758E+02  0.00000000000E+00 0.  1.
         11    1    1    2    0    0 -0.15732659012E+02  0.21451498520E+00 -0.33153766177E+02  0.36697885334E+02  0.00000000000E+00 0. -1.
</event>
<event>
 7    1  0.2394257E-009  0.1473336E+03  0.7561462E-02  0.1203788E+00
         -2   -1    0    0    0  501 -0.00000000000E+00  0.00000000000E+00  0.40519907821E+03  0.40519907821E+03  0.00000000000E+00 0.  1.
          2   -1    0    0  501    0  0.00000000000E+00 -0.00000000000E+00 -0.87244315914E+02  0.87244315914E+02  0.00000000000E+00 0. -1.
         25    2    1    2    0    0  0.12667410021E+03 -0.15533947632E+02  0.28971041977E+03  0.34039278785E+03  0.12508993367E+03 0.  0.
          5    1    3    3  502    0 -0.11137420010E+02 -0.20460473437E+02  0.11686930768E+03  0.11924168975E+03  0.41800000000E+01 0. -1.
         -5    1    3    3    0  502  0.13781152022E+03  0.49265258052E+01  0.17284111209E+03  0.22115109810E+03  0.41800000000E+01 0. -1.
        -11    1    1    2    0    0 -0.10195122744E+03  0.27464649887E+02 -0.87907949005E+01  0.10595111064E+03  0.00000000000E+00 0. -1.
         11    1    1    2    0    0 -0.24722872766E+02 -0.11930702255E+02  0.37035137430E+02  0.46099495643E+02  0.00000000000E+00 0.  1.
</event>
<event>
 7    1  0.2394257E-009  0.7840654E+02  0.7561462E-02  0.1333635E+00
         -2   -1    0    0    0  501 -0.00000000000E+00  0.00000000000E+00  0.27974581400E+03  0.27974581400E+03  0.00000000000E+00 0.  1.
          2   -1    0    0  501    0  0.00000000000E+00 -0.00000000000E+00 -0.48160571044E+02  0.48160571044E+02  0.00000000000E+00 0. -1.
         25    2    1    2    0    0  0.36433405634E+02  0.18460560336E+02  0.14652242429E+03  0.19693720850E+03  0.12508900007E+03 0.  0.
          5    1    3    3  502    0  0.76381752326E+01  0.27186316839E+02 -0.15231242584E+02  0.32355844832E+02  0.41800000000E+01 0.  1.
         -5    1    3    3    0  502  0.28795230402E+02 -0.87257565025E+01  0.16175366687E+03  0.16458136367E+03  0.41800000000E+01 0.  1.
        -11    1    1    2    0    0 -0.42353334718E+02 -0.50155665507E+02  0.45216861098E+02  0.79711732334E+02  0.00000000000E+00 0. -1.
         11    1    1    2    0    0  0.59199290837E+01  0.31695105171E+02  0.39845957565E+02  0.51257444205E+02  0.00000000000E+00 0.  1.
</event>
<event>
 7    1  0.2394257E-009  0.1318531E+03  0.7561462E-02  0.1224732E+00
         -2   -1    0    0    0  501 -0.00000000000E+00  0.00000000000E+00  0.37413268275E+02  0.37413268275E+02  0.00000000000E+00 0.  1.
          2   -1    0    0  501    0  0.00000000000E+00 -0.00000000000E+00 -0.49652730589E+03  0.49652730589E+03  0.00000000000E+00 0. -1.
         25    2    1    2    0    0 -0.51852976205E+02 -0.62232825710E+02 -0.28380373998E+03  0.32055308382E+03  0.12509220994E+03 0.  0.
          5    1    3    3  502    0 -0.91150295195E+02 -0.49457504270E+02 -0.16741878214E+03  0.19697954730E+03  0.41800000000E+01 0.  1.
         -5    1    3    3    0  502  0.39297318991E+02 -0.12775321439E+02 -0.11638495784E+03  0.12357353652E+03  0.41800000000E+01 0.  1.
        -11    1    1    2    0    0  0.34430176673E+02 -0.16192964907E+02 -0.34960187645E+02  0.51670725739E+02  0.00000000000E+00 0. -1.
         11    1    1    2    0    0  0.17422799532E+02  0.78425790617E+02 -0.14035010999E+03  0.16171676460E+03  0.00000000000E+00 0.  1.
</event>
<event>
 7    1  0.2394257E-009  0.1022627E+03  0.7561462E-02  0.1275608E+00
         -1   -1    0    0    0  501 -0.00000000000E+00  0.00000000000E+00  0.56370652960E+02  0.56370652960E+02  0.00000000000E+00 0.  1.
          1   -1    0    0  501    0  0.00000000000E+00 -0.00000000000E+00 -0.41746831226E+03  0.41746831226E+03  0.00000000000E+00 0. -1.
         25    2    1    2    0    0 -0.57524783908E+02 -0.67216015900E+02 -0.29088075826E+03  0.32876475989E+03  0.12509020050E+03 0.  0.
          5    1    3    3  502    0 -0.11411542465E+02 -0.66304032878E+02 -0.51193640383E+02  0.84644605811E+02  0.41800000000E+01 0.  1.
         -5    1    3    3    0  502 -0.46113241443E+02 -0.91198302186E+00 -0.23968711788E+03  0.24412015408E+03  0.41800000000E+01 0.  1.
        -11    1    1    2    0    0  0.24768727159E+02  0.44548635644E+02  0.13183948597E+02  0.52648715876E+02  0.00000000000E+00 0.  1.
         11    1    1    2    0    0  0.32756056749E+02  0.22667380256E+02 -0.83400849632E+02  0.92425489453E+02  0.00000000000E+00 0. -1.
</event>
<event>
 7    1  0.2394257E-009  0.1717823E+03  0.7561462E-02  0.1176002E+00
          1   -1    0    0  501    0  0.00000000000E+00  0.00000000000E+00  0.24599640504E+03  0.24599640504E+03  0.00000000000E+00 0. -1.
         -1   -1    0    0    0  501 -0.00000000000E+00 -0.00000000000E+00 -0.14174154908E+03  0.14174154908E+03  0.00000000000E+00 0.  1.
         25    2    1    2    0    0 -0.97190207113E+02  0.11436225969E+03  0.73506074056E+02  0.20874356523E+03  0.12508425281E+03 0.  0.
          5    1    3    3  502    0 -0.94664342976E+01 -0.24756738909E+02  0.26328813145E+02  0.37592396856E+02  0.41800000000E+01 0. -1.
         -5    1    3    3    0  502 -0.87723772815E+02  0.13911899860E+03  0.47177260911E+02  0.17115116837E+03  0.41800000000E+01 0. -1.
        -11    1    1    2    0    0  0.57851931675E+02 -0.86271727843E+02 -0.23329992872E+02  0.10646100502E+03  0.00000000000E+00 0.  1.
         11    1    1    2    0    0  0.39338275438E+02 -0.28090531848E+02  0.54078774775E+02  0.72533383866E+02  0.00000000000E+00 0. -1.
</event>
<event>
 7    1  0.2394257E-009  0.1566367E+03  0.7561462E-02  0.1192547E+00
         -3   -1    0    0    0  501 -0.00000000000E+00  0.00000000000E+00  0.76945444065E+03  0.76945444065E+03  0.00000000000E+00 0.  1.
          3   -1    0    0  501    0  0.00000000000E+00 -0.00000000000E+00 -0.48575495393E+02  0.48575495393E+02  0.00000000000E+00 0. -1.
         25    2    1    2    0    0 -0.10801935529E+03  0.73775825774E+02  0.57526336031E+03  0.60306428457E+03  0.12509014359E+03 0.  0.
          5    1    3    3  502    0 -0.10247603777E+03  0.10224768694E+03  0.40091691952E+03  0.42627195141E+03  0.41800000000E+01 0. -1.
         -5    1    3    3    0  502 -0.55433175192E+01 -0.28471861170E+02  0.17434644079E+03  0.17679233316E+03  0.41800000000E+01 0. -1.
        -11    1    1    2    0    0  0.11078308911E+03 -0.61800234516E+02  0.84020878347E+02  0.15215672781E+03  0.00000000000E+00 0. -1.
         11    1    1    2    0    0 -0.27637338173E+01 -0.11975591257E+02  0.61594706602E+02  0.62808923665E+02  0.00000000000E+00 0.  1.
</event>
<event>
 7    1  0.2394257E-009  0.1058960E+03  0.7561462E-02  0.1268364E+00
         -2   -1    0    0    0  501 -0.00000000000E+00  0.00000000000E+00  0.73367606680E+02  0.73367606680E+02  0.00000000000E+00 0.  1.
          2   -1    0    0  501    0  0.00000000000E+00 -0.00000000000E+00 -0.16831967777E+03  0.16831967777E+03  0.00000000000E+00 0. -1.
         25    2    1    2    0    0  0.29206676291E+02  0.13619612074E+01 -0.34827268169E+02  0.13310164819E+03  0.12509286656E+03 0.  0.
          5    1    3    3  502    0  0.23003380429E+02  0.60389606561E+02 -0.12248159298E+01  0.64769071831E+02  0.41800000000E+01 0. -1.
         -5    1    3    3    0  502  0.62032958623E+01 -0.59027645354E+02 -0.33602452239E+02  0.68332576360E+02  0.41800000000E+01 0. -1.
        -11    1    1    2    0    0 -0.60367714753E+01  0.39823971553E+02 -0.41382590020E+02  0.57748680304E+02  0.00000000000E+00 0. -1.
         11    1    1    2    0    0 -0.23169904816E+02 -0.41185932760E+02 -0.18742212903E+02  0.50836955957E+02  0.00000000000E+00 0.  1.
</event>
<event>
 7    1  0.2394257E-009  0.2510282E+03  0.7561462E-02  0.1112657E+00
         -1   -1    0    0    0  501 -0.00000000000E+00  0.00000000000E+00  0.14337696596E+03  0.14337696596E+03  0.00000000000E+00 0.  1.
          1   -1    0    0  501    0  0.00000000000E+00 -0.00000000000E+00 -0.54383435464E+03  0.54383435464E+03  0.00000000000E+00 0. -1.
         25    2    1    2    0    0 -0.23360231823E+03 -0.31952098433E+02 -0.79535651799E+02  0.27850260211E+03  0.12508716879E+03 0.  0.
          5    1    3    3  502    0 -0.17996413191E+03  0.31800311150E+02 -0.45289873376E+02  0.18832682654E+03  0.41800000000E+01 0.  1.
         -5    1    3    3    0  502 -0.53638186321E+02 -0.63752409583E+02 -0.34245778423E+02  0.90175775568E+02  0.41800000000E+01 0.  1.
        -11    1    1    2    0    0  0.15304077216E+03  0.18397094213E+02 -0.27431146466E+03  0.31465331821E+03  0.00000000000E+00 0. -1.
         11    1    1    2    0    0  0.80561546073E+02  0.13555004220E+02 -0.46610272223E+02  0.94055400280E+02  0.00000000000E+00 0.  1.
</event>
<event>
 7    1  0.2394257E-009  0.1253946E+03  0.7561462E-02  0.1234454E+00
         -1   -1    0    0    0  501 -0.00000000000E+00  0.00000000000E+00  0.37444351420E+02  0.37444351420E+02  0.00000000000E+00 0.  1.
          1   -1    0    0  501    0  0.00000000000E+00 -0.00000000000E+00 -0.88212790839E+03  0.88212790839E+03  0.00000000000E+00 0. -1.
         25    2    1    2    0    0 -0.83710958078E+02 -0.85013028797E+02 -0.64687697310E+03  0.66957903557E+03  0.12510606288E+03 0.  0.
          5    1    3    3  502    0 -0.24685075914E+02  0.23860764813E+01 -0.15722038660E+02  0.29659757812E+02  0.41800000000E+01 0. -1.
         -5    1    3    3    0  502 -0.59025882164E+02 -0.87399105278E+02 -0.63115493444E+03  0.63991927775E+03  0.41800000000E+01 0. -1.
        -11    1    1    2    0    0  0.50589536024E+02  0.41661270683E+02 -0.27341530641E+02  0.71010716993E+02  0.00000000000E+00 0.  1.
         11    1    1    2    0    0  0.33121422054E+02  0.43351758114E+02 -0.17046505323E+03  0.17898250725E+03  0.00000000000E+00 0. -1.
</event>
<event>
 7    1  0.2394257E-009  0.1123220E+03  0.7561462E-02  0.1256329E+00
          1   -1    0    0  501    0  0.00000000000E+00  0.00000000000E+00  0.57143004265E+03  0.57143004265E+03  0.00000000000E+00 0. -1.
         -1   -1    0    0    0  501 -0.00000000000E+00 -0.00000000000E+00 -0.34741814389E+02  0.34741814389E+02  0.00000000000E+00 0.  1.
         25    2    1    2    0    0 -0.31731519574E+02 -0.79847739945E+02  0.37507056181E+03  0.40460698179E+03  0.12508530077E+03 0.  0.
          5    1    3    3  502    0  0.12419460697E+02 -0.50451219998E+02  0.33223771924E+03  0.33630186305E+03  0.41800000000E+01 0. -1.
         -5    1    3    3    0  502 -0.44150980270E+02 -0.29396519946E+02  0.42832842565E+02  0.68305118739E+02  0.41800000000E+01 0. -1.
        -11    1    1    2    0    0 -0.19647163627E+02 -0.48611893408E+01  0.38867327028E+02  0.43821356788E+02  0.00000000000E+00 0. -1.
         11    1    1    2    0    0  0.51378683201E+02  0.84708929285E+02  0.12275033943E+03  0.15774351847E+03  0.00000000000E+00 0.  1.
</event>
<event>
 7    1  0.2394257E-009  0.2473455E+03  0.7561462E-02  0.1114994E+00
         -2   -1    0    0    0  501 -0.00000000000E+00  0.00000000000E+00  0.51540759962E+02  0.51540759962E+02  0.00000000000E+00 0.  1.
          2   -1    0    0  501    0  0.00000000000E+00 -0.00000000000E+00 -0.12916166807E+04  0.12916166807E+04  0.00000000000E+00 0. -1.
         25    2    1    2    0    0  0.22846624972E+03 -0.22063958744E+02 -0.77273548215E+03  0.81575211518E+03  0.12509093694E+03 0.  0.
          5    1    3    3  502    0 -0.10245106333E+02  0.12559052468E+02 -0.25193273691E+02  0.30246742667E+02  0.41800000000E+01 0. -1.
         -5    1    3    3    0  502  0.23871135605E+03 -0.34623011212E+02 -0.74754220846E+03  0.78550537251E+03  0.41800000000E+01 0. -1.
        -11    1    1    2    0    0 -0.63649760432E+02 -0.19798086878E+02 -0.19757153947E+03  0.20851323568E+03  0.00000000000E+00 0. -1.
         11    1    1    2    0    0 -0.16481648928E+03  0.41862045622E+02 -0.26976889908E+03  0.31889208976E+03  0.00000000000E+00 0.  1.
</event>
<event>
 7    1  0.2394257E-009  0.6648630E+02  0.7561462E-02  0.1372466E+00
         -2   -1    0    0    0  501 -0.00000000000E+00  0.00000000000E+00  0.27894381358E+02  0.27894381358E+02  0.00000000000E+00 0. -1.
          2   -1    0    0  501    0  0.00000000000E+00 -0.00000000000E+00 -0.50490627687E+03  0.50490627687E+03  0.00000000000E+00 0.  1.
         25    2    1    2    0    0  0.26786822742E+02 -0.11944169764E+01 -0.34826032340E+03  0.37101095828E+03  0.12507964584E+03 0.  0.
          5    1    3    3  502    0  0.11494763958E+02  0.10340552223E+02 -0.35086750633E+03  0.35123288003E+03  0.41800000000E+01 0. -1.
         -5    1    3    3    0  502  0.15292058784E+02 -0.11534969199E+02  0.26071829290E+01  0.19778078246E+02  0.41800000000E+01 0. -1.
        -11    1    1    2    0    0 -0.55652553336E+02 -0.22476916605E+02 -0.70324907280E+02  0.92455454446E+02  0.00000000000E+00 0.  1.
         11    1    1    2    0    0  0.28865730595E+02  0.23671333581E+02 -0.58426664838E+02  0.69334245509E+02  0.00000000000E+00 0. -1.
</event>
<event>
 7    1  0.2394257E-009  0.9132775E+02  0.7561462E-02  0.1299668E+00
         -2   -1    0    0    0  501 -0.00000000000E+00  0.00000000000E+00  0.30760435744E+02  0.30760435744E+02  0.00000000000E+00 0.  1.
          2   -1    0    0  501    0  0.00000000000E+00 -0.00000000000E+00 -0.48732659813E+03  0.48732659813E+03  0.00000000000E+00 0. -1.
         25    2    1    2    0    0  0.15472244471E+02 -0.26892888250E+02 -0.35934220959E+03  0.38175407805E+03  0.12508690869E+03 0.  0.
          5    1    3    3  502    0  0.68941111839E+02 -0.29772204288E+01 -0.17014647618E+03  0.18365466642E+03  0.41800000000E+01 0.  1.
         -5    1    3    3    0  502 -0.53468867369E+02 -0.23915667822E+02 -0.18919573341E+03  0.19809941163E+03  0.41800000000E+01 0.  1.
        -11    1    1    2    0    0 -0.24506094317E+02 -0.19431215530E+01 -0.10271876965E+03  0.10561945852E+03  0.00000000000E+00 0. -1.
         11    1    1    2    0    0  0.90338498462E+01  0.28836009803E+02  0.54948168541E+01  0.30713497305E+02  0.00000000000E+00 0.  1.
</event>
<event>
 7    1  0.2486898E-009  0.1288137E+03  0.7561462E-02  0.1229227E+00
          2   -1    0    0  501    0  0.00000000000E+00  0.00000000000E+00  0.39293814656E+03  0.39293814656E+03  0.00000000000E+00 0.  1.
         -2   -1    0    0    0  501 -0.00000000000E+00 -0.00000000000E+00 -0.55916473841E+02  0.55916473841E+02  0.00000000000E+00 0. -1.
         25    2    1    2    0    0 -0.24959823024E+02  0.88323995410E+02  0.24571036925E+03  0.29059412279E+03  0.12508891922E+03 0.  0.
          5    1    3    3  502    0 -0.45535625652E+02 -0.15898047326E+02  0.87059902724E+02  0.99614959593E+02  0.41800000000E+01 0. -1.
         -5    1    3    3    0  502  0.20575802628E+02  0.10422204274E+03  0.15865046653E+03  0.19097916320E+03  0.41800000000E+01 0. -1.
        -11    1    1    2    0    0 -0.53401392247E+01 -0.63514017850E+02  0.55479280960E+01  0.63979114222E+02  0.00000000000E+00 0. -1.
         11    1    1    2    0    0  0.30299962249E+02 -0.24809977560E+02  0.85763375369E+02  0.94281383387E+02  0.00000000000E+00 0.  1.
</event>
<event>
 7    1  0.2394257E-009  0.1011700E+03  0.7561462E-02  0.1277855E+00
         -2   -1    0    0    0  501 -0.00000000000E+00  0.00000000000E+00  0.33377298126E+02  0.33377298126E+02  0.00000000000E+00 0.  1.
          2   -1    0    0  501    0  0.00000000000E+00 -0.00000000000E+00 -0.37294650936E+03  0.37294650936E+03  0.00000000000E+00 0. -1.
         25    2    1    2    0    0  0.65680907403E+01 -0.32901140848E+01 -0.24706748467E+03  0.27702698059E+03  0.12509053253E+03 0.  0.
          5    1    3    3  502    0 -0.77171755759E-01  0.59874839521E+02 -0.14229132713E+03  0.15443217456E+03  0.41800000000E+01 0. -1.
         -5    1    3    3    0  502  0.66452624961E+01 -0.63164953606E+02 -0.10477615754E+03  0.12259480604E+03  0.41800000000E+01 0. -1.
        -11    1    1    2    0    0  0.35965334700E+02 -0.47741365105E+00 -0.74943175040E+02  0.83127689183E+02  0.00000000000E+00 0. -1.
         11    1    1    2    0    0 -0.42533425441E+02  0.37675277359E+01 -0.17558551521E+02  0.46169137706E+02  0.00000000000E+00 0.  1.
</event>
<event>
 7    1  0.2394257E-009  0.9925224E+02  0.7561462E-02  0.1281876E+00
         -1   -1    0    0    0  501 -0.00000000000E+00  0.00000000000E+00  0.21413140757E+03  0.21413140757E+03  0.00000000000E+00 0.  1.
          1   -1    0    0  501    0  0.00000000000E+00 -0.00000000000E+00 -0.11283154338E+03  0.11283154338E+03  0.00000000000E+00 0. -1.
         25    2    1    2    0    0 -0.41570264854E+02  0.26959712491E+02  0.16003672045E+03  0.20908078536E+03  0.12509240543E+03 0.  0.
          5    1    3    3  502    0  0.30953772045E+02  0.41277851795E+02  0.10418551168E+03  0.11633610917E+03  0.41800000000E+01 0.  1.
         -5    1    3    3    0  502 -0.72524036899E+02 -0.14318139303E+02  0.55851208778E+02  0.92744676199E+02  0.41800000000E+01 0.  1.
        -11    1    1    2    0    0  0.35584973346E+02  0.86241971681E+01 -0.70905864464E+02  0.79801683692E+02  0.00000000000E+00 0. -1.
         11    1    1    2    0    0  0.59852915088E+01 -0.35583909659E+02  0.12169008201E+02  0.38080481899E+02  0.00000000000E+00 0.  1.
</event>
<event>
 7    1  0.2394257E-009  0.1423138E+03  0.7561462E-02  0.1210249E+00
         -1   -1    0    0    0  501 -0.00000000000E+00  0.00000000000E+00  0.10537731544E+03  0.10537731544E+03  0.00000000000E+00 0.  1.
          1   -1    0    0  501    0  0.00000000000E+00 -0.00000000000E+00 -0.26926506719E+03  0.26926506719E+03  0.00000000000E+00 0. -1.
         25    2    1    2    0    0 -0.76799815125E+02 -0.82732655142E+02 -0.13896184656E+03  0.21841106163E+03  0.12510033258E+03 0.  0.
          5    1    3    3  502    0 -0.10047964108E+03 -0.38174929359E+02 -0.56135682719E+02  0.12133495282E+03  0.41800000000E+01 0.  1.
         -5    1    3    3    0  502  0.23679825951E+02 -0.44557725783E+02 -0.82826163842E+02  0.97076108805E+02  0.41800000000E+01 0.  1.
        -11    1    1    2    0    0  0.42061249071E+02  0.81445044157E+02 -0.57816395814E+02  0.10837517943E+03  0.00000000000E+00 0. -1.
         11    1    1    2    0    0  0.34738566054E+02  0.12876109850E+01  0.32890490623E+02  0.47856141581E+02  0.00000000000E+00 0.  1.
</event>
<event>
 7    1  0.2394257E-009  0.1040337E+03  0.7561462E-02  0.1272035E+00
          1   -1    0    0  501    0  0.00000000000E+00  0.00000000000E+00  0.22711047379E+02  0.22711047379E+02  0.00000000000E+00 0. -1.
         -1   -1    0    0    0  501 -0.00000000000E+00 -0.00000000000E+00 -0.58716457217E+03  0.58716457217E+03  0.00000000000E+00 0.  1.
         25    2    1    2    0    0  0.27535278073E+02  0.21109574288E+02 -0.30397674125E+03  0.33053062847E+03  0.12507930073E+03 0.  0.
          5    1    3    3  502    0  0.42630142709E+02  0.67965877910E+02 -0.18332694417E+03  0.20015726438E+03  0.41800000000E+01 0. -1.
         -5    1    3    3    0  502 -0.15094864636E+02 -0.46856303622E+02 -0.12064979708E+03  0.13037336409E+03  0.41800000000E+01 0. -1.
        -11    1    1    2    0    0 -0.39661023452E+02  0.13307574326E+02 -0.47631741934E+02  0.63394567238E+02  0.00000000000E+00 0. -1.
         11    1    1    2    0    0  0.12125745379E+02 -0.34417148614E+02 -0.21284504161E+03  0.21595042384E+03  0.00000000000E+00 0.  1.
</event>
<event>
 7    1  0.2394257E-009  0.9369880E+02  0.7561462E-02  0.1294134E+00
          1   -1    0    0  501    0  0.00000000000E+00  0.00000000000E+00  0.24285492060E+04  0.24285492060E+04  0.00000000000E+00 0. -1.
         -1   -1    0    0    0  501 -0.00000000000E+00 -0.00000000000E+00 -0.13972775607E+02  0.13972775607E+02  0.00000000000E+00 0.  1.
         25    2    1    2    0    0  0.41003232284E+02  0.23792452975E+02  0.22073722661E+04  0.22114219688E+04  0.12508979544E+03 0.  0.
          5    1    3    3  502    0 -0.37459739697E+02  0.25608206222E+02  0.45202984494E+03  0.45432088378E+03  0.41800000000E+01 0.  1.
         -5    1    3    3    0  502  0.78462971981E+02 -0.18157532471E+01  0.17553424212E+04  0.17571010850E+04  0.41800000000E+01 0.  1.
        -11    1    1    2    0    0 -0.22344623079E+02 -0.34958425339E+02  0.20509955380E+03  0.20925391430E+03  0.00000000000E+00 0. -1.
         11    1    1    2    0    0 -0.18658609204E+02  0.11165972364E+02  0.21046105031E+01  0.21846098545E+02  0.00000000000E+00 0.  1.
</event>
<event>
 7    1  0.2394257E-009  0.1100102E+03  0.7561462E-02  0.1260551E+00
          1   -1    0    0  501    0  0.00000000000E+00  0.00000000000E+00  0.33331331244E+02  0.33331331244E+02  0.00000000000E+00 0. -1.
         -1   -1    0    0    0  501 -0.00000000000E+00 -0.00000000000E+00 -0.41347357748E+03  0.41347357748E+03  0.00000000000E+00 0.  1.
         25    2    1    2    0    0  0.14792315281E+02  0.33778059247E+02 -0.24781609490E+03  0.28003637785E+03  0.12509111140E+03 0.  0.
          5    1    3    3  502    0  0.63843122430E+02  0.33387606887E+02 -0.93836686122E+02  0.11837851426E+03  0.41800000000E+01 0. -1.
         -5    1    3    3    0  502 -0.49050807149E+02  0.39045236035E+00 -0.15397940878E+03  0.16165786360E+03  0.41800000000E+01 0. -1.
        -11    1    1    2    0    0 -0.27614395910E+00 -0.64575267200E+02 -0.10429003779E+03  0.12266398564E+03  0.00000000000E+00 0.  1.
         11    1    1    2    0    0 -0.14516171322E+02  0.30797207953E+02 -0.28036113540E+02  0.44104545230E+02  0.00000000000E+00 0. -1.
</event>
<event>
 7    1  0.2394257E-009  0.1828628E+03  0.7561462E-02  0.1165061E+00
         -1   -1    0    0    0  501 -0.00000000000E+00  0.00000000000E+00  0.26309179864E+03  0.26309179864E+03  0.00000000000E+00 0.  1.
          1   -1    0    0  501    0  0.00000000000E+00 -0.00000000000E+00 -0.14064469032E+03  0.14064469032E+03  0.00000000000E+00 0. -1.
         25    2    1    2    0    0  0.15312751630E+03 -0.29033842842E+02  0.36936907873E+02  0.20322791577E+03  0.12508497236E+03 0.  0.
          5    1    3    3  502    0  0.16453656751E+03 -0.14216244013E+02  0.57685547982E+02  0.17498422354E+03  0.41800000000E+01 0.  1.
         -5    1    3    3    0  502 -0.11409051213E+02 -0.14817598829E+02 -0.20748640109E+02  0.28243692234E+02  0.41800000000E+01 0.  1.
        -11    1    1    2    0    0 -0.13995144403E+03 -0.98572507568E+01  0.66085265178E+02  0.15508331423E+03  0.00000000000E+00 0.  1.
         11    1    1    2    0    0 -0.13176072267E+02  0.38891093599E+02  0.19424935268E+02  0.45425258963E+02  0.00000000000E+00 0. -1.
</event>
<event>
 7    1  0.2394257E-009  0.2861708E+03  0.7561462E-02  0.1092366E+00
         -2   -1    0    0    0  501 -0.00000000000E+00  0.00000000000E+00  0.84935193395E+02  0.84935193395E+02  0.00000000000E+00 0.  1.
          2   -1    0    0  501    0  0.00000000000E+00 -0.00000000000E+00 -0.10739895535E+04  0.10739895535E+04  0.00000000000E+00 0. -1.
         25    2    1    2    0    0 -0.39592447292E+02  0.27073897354E+03 -0.62802471521E+03  0.69636758010E+03  0.12508241291E+03 0.  0.
          5    1    3    3  502    0 -0.68479508249E+02  0.25658630886E+03 -0.52506499955E+03  0.58841881606E+03  0.41800000000E+01 0. -1.
         -5    1    3    3    0  502  0.28887060956E+02  0.14152664688E+02 -0.10295971566E+03  0.10794876404E+03  0.41800000000E+01 0. -1.
        -11    1    1    2    0    0  0.68737003150E+01 -0.11288762867E+03 -0.79852932386E+02  0.13844621798E+03  0.00000000000E+00 0.  1.
         11    1    1    2    0    0  0.32718746977E+02 -0.15785134487E+03 -0.28117671249E+03  0.32411094880E+03  0.00000000000E+00 0. -1.
</event>
<event>
 7    1  0.2394257E-009  0.5707568E+02  0.7561462E-02  0.1410530E+00
          2   -1    0    0  501    0  0.00000000000E+00  0.00000000000E+00  0.13254465093E+03  0.13254465093E+03  0.00000000000E+00 0. -1.
         -2   -1    0    0    0  501 -0.00000000000E+00 -0.00000000000E+00 -0.11195669781E+03  0.11195669781E+03  0.00000000000E+00 0.  1.
         25    2    1    2    0    0 -0.15189071545E+01  0.43250460504E+02 -0.26757209635E+02  0.13504175341E+03  0.12508963780E+03 0.  0.
          5    1    3    3  502    0  0.23792750106E+02  0.15276813315E+02  0.45320579923E+02  0.53580811371E+02  0.41800000000E+01 0. -1.
         -5    1    3    3    0  502 -0.25311657260E+02  0.27973647189E+02 -0.72077789557E+02  0.81460942038E+02  0.41800000000E+01 0. -1.
        -11    1    1    2    0    0  0.10660033024E+02 -0.25735480907E+02  0.72387388526E+02  0.77562138310E+02  0.00000000000E+00 0. -1.
         11    1    1    2    0    0 -0.91411258690E+01 -0.17514979596E+02 -0.25042225780E+02  0.31897457021E+02  0.00000000000E+00 0.  1.
</event>
<event>
 7    1  0.2394257E-009  0.1139536E+03  0.7561462E-02  0.1253419E+00
         -1   -1    0    0    0  501 -0.00000000000E+00  0.00000000000E+00  0.11058735918E+02  0.11058735918E+02  0.00000000000E+00 0.  1.
          1   -1    0    0  501    0  0.00000000000E+00 -0.00000000000E+00 -0.12230664491E+04  0.12230664491E+04  0.00000000000E+00 0. -1.
         25    2    1    2    0    0  0.35676292334E+02  0.18112837640E+02 -0.78809578047E+03  0.79896399933E+03  0.12509052844E+03 0.  0.
          5    1    3    3  502    0  0.82461580364E+02  0.10644837011E+02 -0.53491921592E+03  0.54135872095E+03  0.41800000000E+01 0.  1.
         -5    1    3    3    0  502 -0.46785288030E+02  0.74680006291E+01 -0.25317656455E+03  0.25760527838E+03  0.41800000000E+01 0.  1.
        -11    1    1    2    0    0 -0.21661911103E+02  0.35551245522E+02 -0.21620045659E+03  0.22017213011E+03  0.00000000000E+00 0. -1.
         11    1    1    2    0    0 -0.14014381231E+02 -0.53664083162E+02 -0.20771147609E+03  0.21498905554E+03  0.00000000000E+00 0.  1.
</event>
<event>
 7    1  0.2394257E-009  0.7260859E+02  0.7561462E-02  0.1351441E+00
         -1   -1    0    0    0  501 -0.00000000000E+00  0.00000000000E+00  0.23320090317E+03  0.23320090317E+03  0.00000000000E+00 0.  1.
          1   -1    0    0  501    0  0.00000000000E+00 -0.00000000000E+00 -0.56514767358E+02  0.56514767358E+02  0.00000000000E+00 0. -1.
         25    2    1    2    0    0 -0.12420667448E+02 -0.24855976342E+02  0.71168128059E+02  0.14657547146E+03  0.12508946336E+03 0.  0.
          5    1    3    3  502    0  0.23486965921E+02 -0.69841638102E+01  0.96033983556E+02  0.99198863450E+02  0.41800000000E+01 0. -1.
         -5    1    3    3    0  502 -0.35907633369E+02 -0.17871812532E+02 -0.24865855497E+02  0.47376608014E+02  0.41800000000E+01 0. -1.
        -11    1    1    2    0    0  0.35322221302E+02 -0.11429191602E+02  0.10032452842E+02  0.38456934984E+02  0.00000000000E+00 0. -1.
         11    1    1    2    0    0 -0.22901553854E+02  0.36285167944E+02  0.95485554915E+02  0.10468326408E+03  0.00000000000E+00 0.  1.
</event>
<event>
 7    1  0.2394257E-009  0.1255970E+03  0.7561462E-02  0.1234139E+00
          2   -1    0    0  501    0  0.00000000000E+00  0.00000000000E+00  0.58664280393E+03  0.58664280393E+03  0.00000000000E+00 0. -1.
         -2   -1    0    0    0  501 -0.00000000000E+00 -0.00000000000E+00 -0.39734539312E+02  0.39734539312E+02  0.00000000000E+00 0.  1.
         25    2    1    2    0    0 -0.61053751336E+02  0.58785725213E+02  0.44042805519E+03  0.46562779613E+03  0.12509616577E+03 0.  0.
          5    1    3    3  502    0  0.35247976261E+02  0.30622263166E+01  0.66070183097E+02  0.75063563431E+02  0.41800000000E+01 0. -1.
         -5    1    3    3    0  502 -0.96301727597E+02  0.55723498896E+02  0.37435787209E+03  0.39056423270E+03  0.41800000000E+01 0. -1.
        -11    1    1    2    0    0  0.19436748547E+02 -0.59510152771E+02  0.21621636953E+02  0.66232474372E+02  0.00000000000E+00 0.  1.
         11    1    1    2    0    0  0.41617002789E+02  0.72442755819E+00  0.84858572477E+02  0.94517072740E+02  0.00000000000E+00 0. -1.
</event>
<event>
 7    1  0.2394257E-009  0.1890167E+03  0.7561462E-02  0.1159351E+00
         -2   -1    0    0    0  501 -0.00000000000E+00  0.00000000000E+00  0.67502809033E+02  0.67502809033E+02  0.00000000000E+00 0.  1.
          2   -1    0    0  501    0  0.00000000000E+00 -0.00000000000E+00 -0.60358460722E+03  0.60358460722E+03  0.00000000000E+00 0. -1.
         25    2    1    2    0    0  0.12076989366E+03  0.11373254181E+03 -0.22282295083E+03  0.30466081108E+03  0.12509070353E+03 0.  0.
          5    1    3    3  502    0  0.91939657814E+02  0.30601018825E+01 -0.82962629390E+02  0.12394569447E+03  0.41800000000E+01 0. -1.
         -5    1    3    3    0  502  0.28830235850E+02  0.11067243993E+03 -0.13986032144E+03  0.18071511661E+03  0.41800000000E+01 0. -1.
        -11    1    1    2    0    0 -0.52973775690E+02 -0.79563898722E+02 -0.92646701109E+02  0.13311666356E+03  0.00000000000E+00 0.  1.
         11    1    1    2    0    0 -0.67796117974E+02 -0.34168643090E+02 -0.22061214625E+03  0.23330994161E+03  0.00000000000E+00 0. -1.
</event>
<event>
 7    1  0.2394257E-009  0.1141370E+03  0.7561462E-02  0.1253095E+00
         -1   -1    0    0    0  501 -0.00000000000E+00  0.00000000000E+00  0.53497800156E+03  0.53497800156E+03  0.00000000000E+00 0.  1.
          1   -1    0    0  501    0  0.00000000000E+00 -0.00000000000E+00 -0.33059991902E+02  0.33059991902E+02  0.00000000000E+00 0. -1.
         25    2    1    2    0    0  0.33817654229E+02  0.67711531743E+02  0.29142467072E+03  0.32604334039E+03  0.12508971116E+03 0.  0.
          5    1    3    3  502    0  0.64070371223E+02 -0.17939385863E+01  0.88268361744E+02  0.10916504372E+03  0.41800000000E+01 0. -1.
         -5    1    3    3    0  502 -0.30252716994E+02  0.69505470329E+02  0.20315630898E+03  0.21687829668E+03  0.41800000000E+01 0. -1.
        -11    1    1    2    0    0 -0.27184871422E+02 -0.84158238121E+01  0.61446706550E+01  0.29113575907E+02  0.00000000000E+00 0. -1.
         11    1    1    2    0    0 -0.66327828077E+01 -0.59295707931E+02  0.20434866828E+03  0.21288107716E+03  0.00000000000E+00 0.  1.
</event>
<event>
 7    1  0.2394257E-009  0.1096945E+03  0.7561462E-02  0.1261137E+00
          1   -1    0    0  501    0  0.00000000000E+00  0.00000000000E+00  0.19583642092E+03  0.19583642092E+03  0.00000000000E+00 0. -1.
         -1   -1    0    0    0  501 -0.00000000000E+00 -0.00000000000E+00 -0.65138100992E+02  0.65138100992E+02  0.00000000000E+00 0.  1.
         25    2    1    2    0    0  0.15431531004E+02 -0.31480179002E+02  0.70517765955E+02  0.14781403347E+03  0.12508836619E+03 0.  0.
          5    1    3    3  502    0  0.66142475141E+02 -0.34771110429E+02  0.59588321252E+02  0.95666595883E+02  0.41800000000E+01 0. -1.
         -5    1    3    3    0  502 -0.50710944137E+02  0.32909314268E+01  0.10929444703E+02  0.52147437582E+02  0.41800000000E+01 0. -1.
        -11    1    1    2    0    0  0.16940607864E+01 -0.29841509480E+02  0.31200323749E+02  0.43207010218E+02  0.00000000000E+00 0. -1.
         11    1    1    2    0    0 -0.17125591791E+02  0.61321688482E+02  0.28980230226E+02  0.69953478229E+02  0.00000000000E+00 0.  1.
</event>
<event>
 7    1  0.2394257E-009  0.1293207E+03  0.7561462E-02  0.1228467E+00
          1   -1    0    0  501    0  0.00000000000E+00  0.00000000000E+00  0.25714042190E+03  0.25714042190E+03  0.00000000000E+00 0. -1.
         -1   -1    0    0    0  501 -0.00000000000E+00 -0.00000000000E+00 -0.83903881625E+02  0.83903881625E+02  0.00000000000E+00 0.  1.
         25    2    1    2    0    0  0.57542559758E+02 -0.71944686821E+02  0.51516638873E+02  0.16367501297E+03  0.12509341168E+03 0.  0.
          5    1    3    3  502    0 -0.44803237903E+01 -0.70208499989E+02 -0.15595008405E+02  0.72180215150E+02  0.41800000000E+01 0.  1.
         -5    1    3    3    0  502  0.62022883548E+02 -0.17361868327E+01  0.67111647278E+02  0.91494797823E+02  0.41800000000E+01 0.  1.
        -11    1    1    2    0    0 -0.45842047223E+02 -0.68223680600E+01  0.27055381184E+02  0.53665926346E+02  0.00000000000E+00 0.  1.
         11    1    1    2    0    0 -0.11700512535E+02  0.78767054881E+02  0.94664520219E+02  0.12370336421E+03  0.00000000000E+00 0. -1.
</event>
<event>
 7    1  0.2394257E-009  0.9259053E+02  0.7561462E-02  0.1296697E+00
         -1   -1    0    0    0  501 -0.00000000000E+00  0.00000000000E+00  0.17970915775E+02  0.17970915775E+02  0.00000000000E+00 0.  1.
          1   -1    0    0  501    0  0.00000000000E+00 -0.00000000000E+00 -0.62612977721E+03  0.62612977721E+03  0.00000000000E+00 0. -1.
         25    2    1    2    0    0 -0.65734668351E+01  0.19487669112E+02 -0.36518584689E+03  0.38656310970E+03  0.12508938924E+03 0.  0.
          5    1    3    3  502    0 -0.45640473958E-01 -0.53326603821E+02 -0.14866199669E+03  0.15799237456E+03  0.41800000000E+01 0.  1.
         -5    1    3    3    0  502 -0.65278263611E+01  0.72814272932E+02 -0.21652385020E+03  0.22857073514E+03  0.41800000000E+01 0.  1.
        -11    1    1    2    0    0  0.50057707042E+01  0.19151154390E+02 -0.11574760212E+02  0.22930318985E+02  0.00000000000E+00 0.  1.
         11    1    1    2    0    0  0.15676961309E+01 -0.38638823501E+02 -0.23139825433E+03  0.23460726429E+03  0.00000000000E+00 0. -1.
</event>
<event>
 7    1  0.2394257E-009  0.1175761E+03  0.7561462E-02  0.1247150E+00
         -1   -1    0    0    0  501 -0.00000000000E+00  0.00000000000E+00  0.24448052864E+02  0.24448052864E+02  0.00000000000E+00 0.  1.
          1   -1    0    0  501    0  0.00000000000E+00 -0.00000000000E+00 -0.76945895065E+03  0.76945895065E+03  0.00000000000E+00 0. -1.
         25    2    1    2    0    0  0.69445840738E+02  0.29129882375E+02 -0.36350986075E+03  0.39173665378E+03  0.12508761812E+03 0.  0.
          5    1    3    3  502    0  0.10273030374E+03  0.28871684514E+02 -0.31614707421E+03  0.33369677014E+03  0.41800000000E+01 0. -1.
         -5    1    3    3    0  502 -0.33284463002E+02  0.25819786052E+00 -0.47362786547E+02  0.58039883640E+02  0.41800000000E+01 0. -1.
        -11    1    1    2    0    0 -0.25494412387E+02  0.17354301359E+02 -0.24238804983E+02  0.39225712302E+02  0.00000000000E+00 0.  1.
         11    1    1    2    0    0 -0.43951428352E+02 -0.46484183734E+02 -0.35726223205E+03  0.36294463743E+03  0.00000000000E+00 0. -1.
</event>
<event>
 7    1  0.2394257E-009  0.1004712E+03  0.7561462E-02  0.1279308E+00
          2   -1    0    0  501    0  0.00000000000E+00  0.00000000000E+00  0.31316341296E+03  0.31316341296E+03  0.00000000000E+00 0. -1.
         -2   -1    0    0    0  501 -0.00000000000E+00 -0.00000000000E+00 -0.38956924374E+02  0.38956924374E+02  0.00000000000E+00 0.  1.
         25    2    1    2    0    0 -0.27173710210E+02 -0.20289631035E+02  0.11989447483E+03  0.17655711497E+03  0.12509056757E+03 0.  0.
          5    1    3    3  502    0  0.44708116699E+02  0.71491459395E+01  0.74052638726E+02  0.86897593112E+02  0.41800000000E+01 0.  1.
         -5    1    3    3    0  502 -0.71881826909E+02 -0.27438776975E+02  0.45841836102E+02  0.89659521853E+02  0.41800000000E+01 0.  1.
        -11    1    1    2    0    0  0.19666386305E+01  0.43863058172E+02  0.54701730623E+02  0.70143530513E+02  0.00000000000E+00 0.  1.
         11    1    1    2    0    0  0.25207071580E+02 -0.23573427137E+02  0.99610283135E+02  0.10541969185E+03  0.00000000000E+00 0. -1.
</event>
<event>
 7    1  0.2394257E-009  0.1616850E+03  0.7561462E-02  0.1186807E+00
          1   -1    0    0  501    0  0.00000000000E+00  0.00000000000E+00  0.14754232718E+04  0.14754232718E+04  0.00000000000E+00 0. -1.
         -1   -1    0    0    0  501 -0.00000000000E+00 -0.00000000000E+00 -0.19913505503E+02  0.19913505503E+02  0.00000000000E+00 0.  1.
         25    2    1    2    0    0 -0.41882836828E+02  0.11726010754E+03  0.96624515034E+03  0.98223298070E+03  0.12509129862E+03 0.  0.
          5    1    3    3  502    0  0.40148840652E+02  0.69163392396E+02  0.49983695026E+03  0.50621137235E+03  0.41800000000E+01 0. -1.
         -5    1    3    3    0  502 -0.82031677480E+02  0.48096715143E+02  0.46640820008E+03  0.47602160835E+03  0.41800000000E+01 0. -1.
        -11    1    1    2    0    0  0.63351270683E+02 -0.61239008181E+02  0.35952450538E+03  0.37016411170E+03  0.00000000000E+00 0. -1.
         11    1    1    2    0    0 -0.21468433855E+02 -0.56021099358E+02  0.12974011054E+03  0.14293968486E+03  0.00000000000E+00 0.  1.
</event>
<event>
 7    1  0.2394257E-009  0.1834170E+03  0.7561462E-02  0.1164536E+00
         -2   -1    0    0    0  501 -0.00000000000E+00  0.00000000000E+00  0.59991277876E+02  0.59991277876E+02  0.00000000000E+00 0.  1.
          2   -1    0    0  501    0  0.00000000000E+00 -0.00000000000E+00 -0.89626417808E+03  0.89626417808E+03  0.00000000000E+00 0. -1.
         25    2    1    2    0    0 -0.15019607204E+03 -0.10261781426E+03 -0.23583009514E+03  0.32303710287E+03  0.12509140738E+03 0.  0.
          5    1    3    3  502    0 -0.18999346988E+02 -0.25843865608E+02 -0.13910136944E+03  0.14281296845E+03  0.41800000000E+01 0.  1.
         -5    1    3    3    0  502 -0.13119672505E+03 -0.76773948648E+02 -0.96728725700E+02  0.18022413443E+03  0.41800000000E+01 0.  1.
        -11    1    1    2    0    0  0.57560139120E+02  0.31367072025E+02 -0.10192338251E+03  0.12118349197E+03  0.00000000000E+00 0.  1.
         11    1    1    2    0    0  0.92635932918E+02  0.71250742231E+02 -0.49851942255E+03  0.51203486112E+03  0.00000000000E+00 0. -1.
</event>
<event>
 7    1  0.2394257E-009  0.1315949E+03  0.7561462E-02  0.1225108E+00
         -1   -1    0    0    0  501 -0.00000000000E+00  0.00000000000E+00  0.22936111531E+02  0.22936111531E+02  0.00000000000E+00 0.  1.
          1   -1    0    0  501    0  0.00000000000E+00 -0.00000000000E+00 -0.94300904397E+03  0.94300904397E+03  0.00000000000E+00 0. -1.
         25    2    1    2    0    0 -0.93001319398E+01 -0.92337213125E+02 -0.60894033212E+03  0.62854497494E+03  0.12509118301E+03 0.  0.
          5    1    3    3  502    0 -0.53596398497E+02 -0.57607542939E+02 -0.18810691519E+03  0.20394334233E+03  0.41800000000E+01 0.  1.
         -5    1    3    3    0  502  0.44296266557E+02 -0.34729670186E+02 -0.42083341692E+03  0.42460163262E+03  0.41800000000E+01 0.  1.
        -11    1    1    2    0    0  0.38978330163E+02  0.90123406040E+02 -0.20716978215E+03  0.22926154752E+03  0.00000000000E+00 0.  1.
         11    1    1    2    0    0 -0.29678198223E+02  0.22138070846E+01 -0.10396281817E+03  0.10813863303E+03  0.00000000000E+00 0. -1.
</event>
<event>
 7    1  0.2394257E-009  0.1357907E+03  0.7561462E-02  0.1219108E+00
         -1   -1    0    0    0  501 -0.00000000000E+00  0.00000000000E+00  0.58202931231E+02  0.58202931231E+02  0.00000000000E+00 0.  1.
          1   -1    0    0  501    0  0.00000000000E+00 -0.00000000000E+00 -0.36125183639E+03  0.36125183639E+03  0.00000000000E+00 0. -1.
         25    2    1    2    0    0  0.53560262578E+02 -0.69604019211E+02 -0.10625370181E+03  0.18614710052E+03  0.12508985837E+03 0.  0.
          5    1    3    3  502    0  0.64587015726E+02  0.11122147686E+02 -0.72601547144E+02  0.97896076618E+02  0.41800000000E+01 0. -1.
         -5    1    3    3    0  502 -0.11026753148E+02 -0.80726166897E+02 -0.33652154666E+02  0.88251023907E+02  0.41800000000E+01 0. -1.
        -11    1    1    2    0    0  0.24560330689E+02  0.12476665129E+02 -0.56653695240E+02  0.62996176079E+02  0.00000000000E+00 0. -1.
         11    1    1    2    0    0 -0.78120593267E+02  0.57127354082E+02 -0.14014150811E+03  0.17031149102E+03  0.00000000000E+00 0.  1.
</event>
<event>
 7    1  0.2394257E-009  0.7770998E+02  0.7561462E-02  0.1335679E+00
         -1   -1    0    0    0  501 -0.00000000000E+00  0.00000000000E+00  0.54403931500E+02  0.54403931500E+02  0.00000000000E+00 0.  1.
          1   -1    0    0  501    0  0.00000000000E+00 -0.00000000000E+00 -0.33423218360E+03  0.33423218360E+03  0.00000000000E+00 0. -1.
         25    2    1    2    0    0 -0.58180930757E+02  0.17358704812E+02 -0.78156217944E+02  0.15950736964E+03  0.12509141150E+03 0.  0.
          5    1    3    3  502    0 -0.69288667033E+02 -0.38248931941E+01  0.80149663862E+01  0.69980434933E+02  0.41800000000E+01 0. -1.
         -5    1    3    3    0  502  0.11107736276E+02  0.21183598006E+02 -0.86171184331E+02  0.89526934710E+02  0.41800000000E+01 0. -1.
        -11    1    1    2    0    0  0.46853923418E+02 -0.94336192094E+01 -0.20836032009E+03  0.21377162183E+03  0.00000000000E+00 0. -1.
         11    1    1    2    0    0  0.11327007339E+02 -0.79250856024E+01  0.66882859432E+01  0.15357123621E+02  0.00000000000E+00 0.  1.
</event>
<event>
 7    1  0.2394257E-009  0.1074255E+03  0.7561462E-02  0.1265413E+00
         -1   -1    0    0    0  501 -0.00000000000E+00  0.00000000000E+00  0.56268216369E+02  0.56268216369E+02  0.00000000000E+00 0.  1.
          1   -1    0    0  501    0  0.00000000000E+00 -0.00000000000E+00 -0.24441840432E+03  0.24441840432E+03  0.00000000000E+00 0. -1.
         25    2    1    2    0    0  0.19156053289E+02 -0.41374894626E+02 -0.10221095305E+03  0.16784906259E+03  0.12508953835E+03 0.  0.
          5    1    3    3  502    0 -0.28967534826E+02 -0.61079765151E+02 -0.20247975366E+02  0.70691645130E+02  0.41800000000E+01 0.  1.
         -5    1    3    3    0  502  0.48123588116E+02  0.19704870525E+02 -0.81962977686E+02  0.97157417456E+02  0.41800000000E+01 0.  1.
        -11    1    1    2    0    0  0.25437868502E+02  0.43407064088E+02 -0.22130150440E+02  0.54963641848E+02  0.00000000000E+00 0.  1.
         11    1    1    2    0    0 -0.44593921791E+02 -0.20321694620E+01 -0.63809084461E+02  0.77873916257E+02  0.00000000000E+00 0. -1.
</event>
<event>
 7    1  0.2394257E-009  0.8778492E+02  0.7561462E-02  0.1308306E+00
          2   -1    0    0  501    0  0.00000000000E+00  0.00000000000E+00  0.64750968214E+02  0.64750968214E+02  0.00000000000E+00 0.  1.
         -2   -1    0    0    0  501 -0.00000000000E+00 -0.00000000000E+00 -0.22265847130E+03  0.22265847130E+03  0.00000000000E+00 0. -1.
         25    2    1    2    0    0  0.21151708820E+02  0.17033575537E+02 -0.41476959773E+02  0.13455504413E+03  0.12508870544E+03 0.  0.
          5    1    3    3  502    0  0.14895886683E+02 -0.31421327283E+02  0.31184980573E+02  0.46895230692E+02  0.41800000000E+01 0.  1.
         -5    1    3    3    0  502  0.62558221368E+01  0.48454902820E+02 -0.72661940346E+02  0.87659813443E+02  0.41800000000E+01 0.  1.
        -11    1    1    2    0    0 -0.11288197340E+02 -0.53014104751E+02 -0.96188031943E+02  0.11040858749E+03  0.00000000000E+00 0. -1.
         11    1    1    2    0    0 -0.98635114799E+01  0.35980529214E+02 -0.20242511372E+02  0.42445807896E+02  0.00000000000E+00 0.  1.
</event>
<event>
 7    1  0.2394257E-009  0.1143581E+03  0.7561462E-02  0.1252706E+00
          1   -1    0    0  501    0  0.00000000000E+00  0.00000000000E+00  0.82182950493E+03  0.82182950493E+03  0.00000000000E+00 0. -1.
         -1   -1    0    0    0  501 -0.00000000000E+00 -0.00000000000E+00 -0.28007461498E+02  0.28007461498E+02  0.00000000000E+00 0.  1.
         25    2    1    2    0    0 -0.12241225720E+02 -0.80819669956E+02  0.24050600417E+03  0.28314574076E+03  0.12508679310E+03 0.  0.
          5    1    3    3  502    0 -0.19191282130E+02 -0.91965433869E+02  0.84179037932E+02  0.12621223857E+03  0.41800000000E+01 0.  1.
         -5    1    3    3    0  502  0.69500564105E+01  0.11145763913E+02  0.15632696624E+03  0.15693350219E+03  0.41800000000E+01 0.  1.
        -11    1    1    2    0    0 -0.20038568659E+02 -0.11491801966E+02  0.74842370381E+02  0.78326152405E+02  0.00000000000E+00 0.  1.
         11    1    1    2    0    0  0.32279794379E+02  0.92311471922E+02  0.47847366888E+03  0.48836507327E+03  0.00000000000E+00 0. -1.
</event>
<event>
 7    1  0.2394257E-009  0.1017170E+03  0.7561462E-02  0.1276726E+00
          1   -1    0    0  501    0  0.00000000000E+00  0.00000000000E+00  0.32476754937E+02  0.32476754937E+02  0.00000000000E+00 0. -1.
         -1   -1    0    0    0  501 -0.00000000000E+00 -0.00000000000E+00 -0.50731569875E+03  0.50731569875E+03  0.00000000000E+00 0.  1.
         25    2    1    2    0    0  0.19510901627E+02 -0.86055023287E+02 -0.28484330440E+03  0.32336957723E+03  0.12508410410E+03 0.  0.
          5    1    3    3  502    0  0.75636751856E+01 -0.97479196599E+02 -0.28958369113E+03  0.30567235649E+03  0.41800000000E+01 0.  1.
         -5    1    3    3    0  502  0.11947226442E+02  0.11424173313E+02  0.47403867308E+01  0.17697220739E+02  0.41800000000E+01 0.  1.
        -11    1    1    2    0    0 -0.12706666880E+02  0.68989447320E+02 -0.18428292435E+03  0.19718316214E+03  0.00000000000E+00 0.  1.
         11    1    1    2    0    0 -0.68042347471E+01  0.17065575967E+02 -0.57127150582E+01  0.19239714314E+02  0.00000000000E+00 0. -1.
</event>
<event>
 7    1  0.2394257E-009  0.1088222E+03  0.7561462E-02  0.1262767E+00
         -2   -1    0    0    0  501 -0.00000000000E+00  0.00000000000E+00  0.20395523782E+02  0.20395523782E+02  0.00000000000E+00 0.  1.
          2   -1    0    0  501    0  0.00000000000E+00 -0.00000000000E+00 -0.10089174005E+04  0.10089174005E+04  0.00000000000E+00 0. -1.
         25    2    1    2    0    0 -0.66665371253E+02  0.65907690256E+02 -0.50093726331E+03  0.52475990754E+03  0.12508686356E+03 0.  0.
          5    1    3    3  502    0 -0.40718689141E+01  0.36298117120E+01 -0.34834408445E+03  0.34841186722E+03  0.41800000000E+01 0. -1.
         -5    1    3    3    0  502 -0.62593502339E+02  0.62277878544E+02 -0.15259317885E+03  0.17634804032E+03  0.41800000000E+01 0. -1.
        -11    1    1    2    0    0 -0.66149309788E+01 -0.45953353578E+02 -0.10983754226E+03  0.11924660879E+03  0.00000000000E+00 0.  1.
         11    1    1    2    0    0  0.73280302232E+02 -0.19954336678E+02 -0.37774707114E+03  0.38530640795E+03  0.00000000000E+00 0. -1.
</event>
<event>
 7    1  0.2394257E-009  0.1901507E+03  0.7561462E-02  0.1158325E+00
         -2   -1    0    0    0  501 -0.00000000000E+00  0.00000000000E+00  0.25685317798E+02  0.25685317798E+02  0.00000000000E+00 0.  1.
          2   -1    0    0  501    0  0.00000000000E+00 -0.00000000000E+00 -0.17411011215E+04  0.17411011215E+04  0.00000000000E+00 0. -1.
         25    2    1    2    0    0 -0.37721905250E+02  0.17313796497E+03 -0.10587280696E+04  0.10807185725E+04  0.12509120846E+03 0.  0.
          5    1    3    3  502    0  0.18572797635E+02  0.27451412435E+02 -0.48339805040E+03  0.48455100494E+03  0.41800000000E+01 0. -1.
         -5    1    3    3    0  502 -0.56294702885E+02  0.14568655254E+03 -0.57533001923E+03  0.59616756754E+03  0.41800000000E+01 0. -1.
        -11    1    1    2    0    0 -0.18042881303E+02 -0.80748538919E+02 -0.38380094205E+03  0.39261817994E+03  0.00000000000E+00 0. -1.
         11    1    1    2    0    0  0.55764786553E+02 -0.92389426052E+02 -0.27288679200E+03  0.29344968685E+03  0.00000000000E+00 0.  1.
</event>
<event>
 7    1  0.2394257E-009  0.9699916E+02  0.7561462E-02  0.1286736E+00
         -1   -1    0    0    0  501 -0.00000000000E+00  0.00000000000E+00  0.42418753445E+02  0.42418753445E+02  0.00000000000E+00 0.  1.
          1   -1    0    0  501    0  0.00000000000E+00 -0.00000000000E+00 -0.32038004087E+03  0.32038004087E+03  0.00000000000E+00 0. -1.
         25    2    1    2    0    0  0.25374188582E+02  0.96516579168E+01 -0.10724438556E+03  0.16699153263E+03  0.12509120588E+03 0.  0.
          5    1    3    3  502    0 -0.29468551121E+02 -0.40097700830E+02 -0.23691514521E+02  0.55271885957E+02  0.41800000000E+01 0.  1.
         -5    1    3    3    0  502  0.54842739702E+02  0.49749358747E+02 -0.83552871037E+02  0.11171964667E+03  0.41800000000E+01 0.  1.
        -11    1    1    2    0    0  0.15850881718E+01 -0.33720630733E+02 -0.16805411586E+02  0.37709618138E+02  0.00000000000E+00 0.  1.
         11    1    1    2    0    0 -0.26959276753E+02  0.24068972816E+02 -0.15391149028E+03  0.15809764355E+03  0.00000000000E+00 0. -1.
</event>
<event>
 7    1  0.2592991E-009  0.3195183E+03  0.7561462E-02  0.1075871E+00
          2   -1    0    0  501    0  0.00000000000E+00  0.00000000000E+00  0.11857330734E+04  0.11857330734E+04  0.00000000000E+00 0. -1.
         -2   -1    0    0    0  501 -0.00000000000E+00 -0.00000000000E+00 -0.15042948627E+03  0.15042948627E+03  0.00000000000E+00 0.  1.
         25    2    1    2    0    0  0.56308128036E+02  0.30836252034E+03  0.11002306403E+03  0.35497971558E+03  0.12508986617E+03 0.  0.
          5    1    3    3  502    0 -0.39929571091E+01  0.14967399342E+03  0.10885904792E+03  0.18516482583E+03  0.41800000000E+01 0. -1.
         -5    1    3    3    0  502  0.60301085145E+02  0.15868852692E+03  0.11640161181E+01  0.16981488975E+03  0.41800000000E+01 0. -1.
        -11    1    1    2    0    0  0.94870766969E-01 -0.17031026696E+03  0.59298264896E+03  0.61695544248E+03  0.00000000000E+00 0. -1.
         11    1    1    2    0    0 -0.56402998803E+02 -0.13805225338E+03  0.33229787410E+03  0.36422740159E+03  0.00000000000E+00 0.  1.
</event>
<event>
 7    1  0.2394257E-009  0.4768199E+02  0.7561462E-02  0.1458261E+00
          3   -1    0    0  501    0  0.00000000000E+00  0.00000000000E+00  0.56231292485E+02  0.56231292485E+02  0.00000000000E+00 0. -1.
         -3   -1    0    0    0  501 -0.00000000000E+00 -0.00000000000E+00 -0.22314983749E+03  0.22314983749E+03  0.00000000000E+00 0.  1.
         25    2    1    2    0    0  0.23155020822E+01 -0.21721669074E+01 -0.10952579218E+03  0.16629275953E+03  0.12508917963E+03 0.  0.
          5    1    3    3  502    0 -0.52911671400E+01 -0.73250322817E+01  0.27318759903E+02  0.29076443906E+02  0.41800000000E+01 0.  1.
         -5    1    3    3    0  502  0.76066692222E+01  0.51528653743E+01 -0.13684455208E+03  0.13721631562E+03  0.41800000000E+01 0.  1.
        -11    1    1    2    0    0  0.33595543081E+02  0.15513931469E+02  0.74758028953E+01  0.37752221305E+02  0.00000000000E+00 0. -1.
         11    1    1    2    0    0 -0.35911045163E+02 -0.13341764562E+02 -0.64868555716E+02  0.75336149139E+02  0.00000000000E+00 0.  1.
</event>
<event>
 7    1  0.2394257E-009  0.7622248E+02  0.7561462E-02  0.1340127E+00
         -1   -1    0    0    0  501 -0.00000000000E+00  0.00000000000E+00  0.21433847759E+03  0.21433847759E+03  0.00000000000E+00 0.  1.
          1   -1    0    0  501    0  0.00000000000E+00 -0.00000000000E+00 -0.70061944906E+02  0.70061944906E+02  0.00000000000E+00 0. -1.
         25    2    1    2    0    0 -0.47426625586E+02 -0.32715128476E+02  0.98060983425E+02  0.16906809890E+03  0.12509396928E+03 0.  0.
          5    1    3    3  502    0 -0.15847402479E+02 -0.46678410911E+02 -0.14259290015E+02  0.51486055998E+02  0.41800000000E+01 0. -1.
         -5    1    3    3    0  502 -0.31579223106E+02  0.13963282435E+02  0.11232027344E+03  0.11758204291E+03  0.41800000000E+01 0. -1.
        -11    1    1    2    0    0  0.11254780049E+02 -0.79409786016E+01  0.58033562718E+02  0.59645818100E+02  0.00000000000E+00 0.  1.
         11    1    1    2    0    0  0.36171845537E+02  0.40656107077E+02 -0.11818013455E+02  0.55686505495E+02  0.00000000000E+00 0. -1.
</event>
<event>
 7    1  0.2394257E-009  0.1392965E+03  0.7561462E-02  0.1214279E+00
         -2   -1    0    0    0  501 -0.00000000000E+00  0.00000000000E+00  0.39031990363E+02  0.39031990363E+02  0.00000000000E+00 0. -1.
          2   -1    0    0  501    0  0.00000000000E+00 -0.00000000000E+00 -0.72737622624E+03  0.72737622624E+03  0.00000000000E+00 0.  1.
         25    2    1    2    0    0  0.94688226054E+02  0.62550723629E+02 -0.50718235050E+03  0.53456514301E+03  0.12508997677E+03 0.  0.
          5    1    3    3  502    0 -0.12343425658E+02  0.48932150963E+02 -0.25912602882E+03  0.26402743563E+03  0.41800000000E+01 0. -1.
         -5    1    3    3    0  502  0.10703165171E+03  0.13618572666E+02 -0.24805632168E+03  0.27053770738E+03  0.41800000000E+01 0. -1.
        -11    1    1    2    0    0 -0.84746500594E+02 -0.36828423932E+02 -0.66327055735E+02  0.11374348550E+03  0.00000000000E+00 0. -1.
         11    1    1    2    0    0 -0.99417254601E+01 -0.25722299696E+02 -0.11483482965E+03  0.11809958809E+03  0.00000000000E+00 0.  1.
</event>
<event>
 7    1  0.2394257E-009  0.1047976E+03  0.7561462E-02  0.1270519E+00
          3   -1    0    0  501    0  0.00000000000E+00  0.00000000000E+00  0.30748418977E+03  0.30748418977E+03  0.00000000000E+00 0. -1.
         -3   -1    0    0    0  501 -0.00000000000E+00 -0.00000000000E+00 -0.51342195635E+02  0.51342195635E+02  0.00000000000E+00 0.  1.
         25    2    1    2    0    0  0.49733685880E+02 -0.34725058776E+02  0.15215980335E+03  0.20610448447E+03  0.12508870270E+03 0.  0.
          5    1    3    3  502    0 -0.10539202221E+02  0.18679612700E+02  0.11545841332E+03  0.11750795854E+03  0.41800000000E+01 0. -1.
         -5    1    3    3    0  502  0.60272888101E+02 -0.53404671477E+02  0.36701390031E+02  0.88596525924E+02  0.41800000000E+01 0. -1.
        -11    1    1    2    0    0 -0.21867594673E+02 -0.29718271934E+02  0.16149638768E+02  0.40276273609E+02  0.00000000000E+00 0.  1.
         11    1    1    2    0    0 -0.27866091207E+02  0.64443330710E+02  0.87832552011E+02  0.11244562733E+03  0.00000000000E+00 0. -1.
</event>
<event>
 7    1  0.2394257E-009  0.1057115E+03  0.7561462E-02  0.1268724E+00
         -2   -1    0    0    0  501 -0.00000000000E+00  0.00000000000E+00  0.10827622810E+03  0.10827622810E+03  0.00000000000E+00 0.  1.
          2   -1    0    0  501    0  0.00000000000E+00 -0.00000000000E+00 -0.12649755832E+03  0.12649755832E+03  0.00000000000E+00 0. -1.
         25    2    1    2    0    0 -0.39482525019E+02 -0.21671971327E+02  0.14550536013E+01  0.13296078558E+03  0.12509160322E+03 0.  0.
          5    1    3    3  502    0 -0.40728154122E+02  0.36524561901E+02 -0.34122531737E+02  0.64611498454E+02  0.41800000000E+01 0. -1.
         -5    1    3    3    0  502  0.12456291033E+01 -0.58196533228E+02  0.35577585339E+02  0.68349287123E+02  0.41800000000E+01 0. -1.
        -11    1    1    2    0    0  0.33848270182E+02  0.54899361194E+02 -0.21706781196E+02  0.68050199146E+02  0.00000000000E+00 0. -1.
         11    1    1    2    0    0  0.56342548370E+01 -0.33227389867E+02  0.20303973705E+01  0.33762801697E+02  0.00000000000E+00 0.  1.
</event>
<event>
 7    1  0.2394257E-009  0.1351721E+03  0.7561462E-02  0.1219977E+00
          1   -1    0    0  501    0  0.00000000000E+00  0.00000000000E+00  0.29508042915E+03  0.29508042915E+03  0.00000000000E+00 0.  1.
         -1   -1    0    0    0  501 -0.00000000000E+00 -0.00000000000E+00 -0.63436030113E+02  0.63436030113E+02  0.00000000000E+00 0. -1.
         25    2    1    2    0    0  0.36368697641E+01 -0.81084490728E+02  0.13136793050E+03  0.19872799186E+03  0.12508940853E+03 0.  0.
          5    1    3    3  502    0  0.41079896103E+02 -0.97032115842E+02  0.76464230704E+02  0.13025759228E+03  0.41800000000E+01 0. -1.
         -5    1    3    3    0  502 -0.37443026339E+02  0.15947625114E+02  0.54903699792E+02  0.68470399583E+02  0.41800000000E+01 0. -1.
        -11    1    1    2    0    0  0.43958686317E+02  0.25567646918E+02  0.34687251613E+02  0.61557096229E+02  0.00000000000E+00 0.  1.
         11    1    1    2    0    0 -0.47595556081E+02  0.55516843810E+02  0.65589216926E+02  0.98231371172E+02  0.00000000000E+00 0. -1.
</event>
<event>
 7    1  0.2394257E-009  0.1147269E+03  0.7561462E-02  0.1252059E+00
         -2   -1    0    0    0  501 -0.00000000000E+00  0.00000000000E+00  0.43497323890E+02  0.43497323890E+02  0.00000000000E+00 0.  1.
          2   -1    0    0  501    0  0.00000000000E+00 -0.00000000000E+00 -0.42084419974E+03  0.42084419974E+03  0.00000000000E+00 0. -1.
         25    2    1    2    0    0 -0.24631553431E+02 -0.27314462780E+02 -0.32903254007E+03  0.35392433208E+03  0.12508887686E+03 0.  0.
          5    1    3    3  502    0  0.51102831504E+02 -0.62600714987E+01 -0.13275037147E+03  0.14244585430E+03  0.41800000000E+01 0.  1.
         -5    1    3    3    0  502 -0.75734384935E+02 -0.21054391281E+02 -0.19628216860E+03  0.21147847778E+03  0.41800000000E+01 0.  1.
        -11    1    1    2    0    0  0.29562332526E+02 -0.29670502015E+02 -0.16944240020E+02  0.45181605373E+02  0.00000000000E+00 0.  1.
         11    1    1    2    0    0 -0.49307790948E+01  0.56984964795E+02 -0.31370095757E+02  0.65235586170E+02  0.00000000000E+00 0. -1.
</event>
<event>
 7    1  0.2394257E-009  0.6875799E+02  0.7561462E-02  0.1364368E+00
         -1   -1    0    0    0  501 -0.00000000000E+00  0.00000000000E+00  0.36890294388E+02  0.36890294388E+02  0.00000000000E+00 0.  1.
          1   -1    0    0  501    0  0.00000000000E+00 -0.00000000000E+00 -0.38930298881E+03  0.38930298881E+03  0.00000000000E+00 0. -1.
         25    2    1    2    0    0 -0.21160875370E+02 -0.29050009762E+02 -0.13802509775E+03  0.18971382381E+03  0.12509485049E+03 0.  0.
          5    1    3    3  502    0  0.26204246624E+02 -0.12549266230E+02  0.11818493589E+02  0.31643258599E+02  0.41800000000E+01 0. -1.
         -5    1    3    3    0  502 -0.47365121994E+02 -0.16500743533E+02 -0.14984359134E+03  0.15807056521E+03  0.41800000000E+01 0. -1.
        -11    1    1    2    0    0  0.35347593722E+02  0.17023344522E+02 -0.21431942937E+03  0.21788084919E+03  0.00000000000E+00 0. -1.
         11    1    1    2    0    0 -0.14186718352E+02  0.12026665240E+02 -0.68167297361E-01  0.18598610195E+02  0.00000000000E+00 0.  1.
</event>
<event>
 7    1  0.2394257E-009  0.1866633E+03  0.7561462E-02  0.1161506E+00
         -2   -1    0    0    0  501 -0.00000000000E+00  0.00000000000E+00  0.77235671101E+02  0.77235671101E+02  0.00000000000E+00 0.  1.
          2   -1    0    0  501    0  0.00000000000E+00 -0.00000000000E+00 -0.52602373721E+03  0.52602373721E+03  0.00000000000E+00 0. -1.
         25    2    1    2    0    0 -0.12969568414E+03  0.10896701719E+03 -0.23377091894E+03  0.31462749048E+03  0.12508730513E+03 0.  0.
          5    1    3    3  502    0 -0.14424420432E+03  0.66616392373E+02 -0.14513531588E+03  0.21523444550E+03  0.41800000000E+01 0.  1.
         -5    1    3    3    0  502  0.14548520180E+02  0.42350624816E+02 -0.88635603050E+02  0.99393044977E+02  0.41800000000E+01 0.  1.
        -11    1    1    2    0    0  0.52046155032E+02 -0.45301354194E+02 -0.24405312266E+02  0.73189030682E+02  0.00000000000E+00 0.  1.
         11    1    1    2    0    0  0.77649529112E+02 -0.63665662995E+02 -0.19061183491E+03  0.21544288715E+03  0.00000000000E+00 0. -1.
</event>
<event>
 7    1  0.2394257E-009  0.9508222E+02  0.7561462E-02  0.1290991E+00
         -1   -1    0    0    0  501 -0.00000000000E+00  0.00000000000E+00  0.17244111905E+03  0.17244111905E+03  0.00000000000E+00 0.  1.
          1   -1    0    0  501    0  0.00000000000E+00 -0.00000000000E+00 -0.88134010541E+02  0.88134010541E+02  0.00000000000E+00 0. -1.
         25    2    1    2    0    0  0.46751165890E+02 -0.23788438655E+02  0.73196927937E+02  0.15412743458E+03  0.12508363004E+03 0.  0.
          5    1    3    3  502    0  0.54163418851E+02  0.40081026571E+02  0.55262039392E+02  0.87244083068E+02  0.41800000000E+01 0. -1.
         -5    1    3    3    0  502 -0.74122529608E+01 -0.63869465226E+02  0.17934888545E+02  0.66883351511E+02  0.41800000000E+01 0. -1.
        -11    1    1    2    0    0 -0.34069265542E+02  0.28773266031E+02  0.48957112227E+02  0.66222462430E+02  0.00000000000E+00 0.  1.
         11    1    1    2    0    0 -0.12681900348E+02 -0.49848273760E+01 -0.37846931656E+02  0.40225232581E+02  0.00000000000E+00 0. -1.
</event>
<event>
 7    1  0.2394257E-009  0.7784639E+02  0.7561462E-02  0.1335277E+00
          1   -1    0    0  501    0  0.00000000000E+00  0.00000000000E+00  0.69081235073E+02  0.69081235073E+02  0.00000000000E+00 0. -1.
         -1   -1    0    0    0  501 -0.00000000000E+00 -0.00000000000E+00 -0.18462261621E+03  0.18462261621E+03  0.00000000000E+00 0.  1.
         25    2    1    2    0    0  0.16236553032E+02  0.10222476407E+02 -0.48064286921E+02  0.13537496611E+03  0.12509229030E+03 0.  0.
          5    1    3    3  502    0 -0.30238507145E+01  0.32544183980E+02  0.34438519768E+02  0.47662895714E+02  0.41800000000E+01 0.  1.
         -5    1    3    3    0  502  0.19260403746E+02 -0.22321707573E+02 -0.82502806689E+02  0.87712070395E+02  0.41800000000E+01 0.  1.
        -11    1    1    2    0    0  0.15353599876E+02 -0.44068751018E+02 -0.51142080353E+02  0.69233663982E+02  0.00000000000E+00 0.  1.
         11    1    1    2    0    0 -0.31590152908E+02  0.33846274611E+02 -0.16335013860E+02  0.49095221189E+02  0.00000000000E+00 0. -1.
</event>
<event>
 7    1  0.2394257E-009  0.9939474E+02  0.7561462E-02  0.1281574E+00
          2   -1    0    0  501    0  0.00000000000E+00  0.00000000000E+00  0.11731586044E+03  0.11731586044E+03  0.00000000000E+00 0. -1.
         -2   -1    0    0    0  501 -0.00000000000E+00 -0.00000000000E+00 -0.13052647768E+03  0.13052647768E+03  0.00000000000E+00 0.  1.
         25    2    1    2    0    0 -0.30007879515E+02  0.10805046498E+02 -0.54621501285E+02  0.14016718506E+03  0.12508440951E+03 0.  0.
          5    1    3    3  502    0  0.40050385898E+02 -0.30097367138E+01 -0.55496145169E+02  0.68632255204E+02  0.41800000000E+01 0.  1.
         -5    1    3    3    0  502 -0.70058265414E+02  0.13814783212E+02  0.87464388361E+00  0.71534929859E+02  0.41800000000E+01 0.  1.
        -11    1    1    2    0    0 -0.13516582562E+02  0.26375063498E+02  0.40801371175E+02  0.50429097439E+02  0.00000000000E+00 0. -1.
         11    1    1    2    0    0  0.43524462078E+02 -0.37180109996E+02  0.60951286486E+00  0.57246055623E+02  0.00000000000E+00 0.  1.
</event>
<event>
 7    1  0.2394257E-009  0.2607302E+03  0.7561462E-02  0.1106705E+00
          2   -1    0    0  501    0  0.00000000000E+00  0.00000000000E+00  0.14326829058E+04  0.14326829058E+04  0.00000000000E+00 0.  1.
         -2   -1    0    0    0  501 -0.00000000000E+00 -0.00000000000E+00 -0.51893385866E+02  0.51893385866E+02  0.00000000000E+00 0. -1.
         25    2    1    2    0    0 -0.33485131268E+02  0.24395188175E+03  0.82041174592E+03  0.86565356378E+03  0.12508750947E+03 0.  0.
          5    1    3    3  502    0  0.98713301699E+01 -0.11706157622E+02  0.32721541879E+02  0.36368241483E+02  0.41800000000E+01 0. -1.
         -5    1    3    3    0  502 -0.43356461438E+02  0.25565803937E+03  0.78769020404E+03  0.82928532230E+03  0.41800000000E+01 0. -1.
        -11    1    1    2    0    0  0.25601226389E+02 -0.18089437335E+03  0.49549304657E+03  0.52810184273E+03  0.00000000000E+00 0. -1.
         11    1    1    2    0    0  0.78839048799E+01 -0.63057508398E+02  0.64884727418E+02  0.90820885118E+02  0.00000000000E+00 0.  1.
</event>
<event>
 7    1  0.2394257E-009  0.1178045E+03  0.7561462E-02  0.1246763E+00
          2   -1    0    0  501    0  0.00000000000E+00  0.00000000000E+00  0.13298724353E+03  0.13298724353E+03  0.00000000000E+00 0. -1.
         -2   -1    0    0    0  501 -0.00000000000E+00 -0.00000000000E+00 -0.14712969569E+03  0.14712969569E+03  0.00000000000E+00 0.  1.
         25    2    1    2    0    0  0.26171843945E+02 -0.40867043141E+02 -0.80554777381E+02  0.15649834373E+03  0.12509028259E+03 0.  0.
          5    1    3    3  502    0 -0.40673010276E+02 -0.50983871295E+02 -0.49497688434E+02  0.81982574109E+02  0.41800000000E+01 0.  1.
         -5    1    3    3    0  502  0.66844854221E+02  0.10116828154E+02 -0.31057088947E+02  0.74515769617E+02  0.41800000000E+01 0.  1.
        -11    1    1    2    0    0  0.33495608837E+02  0.21439529833E+02  0.15029000122E+02  0.42514469248E+02  0.00000000000E+00 0.  1.
         11    1    1    2    0    0 -0.59667452782E+02  0.19427513308E+02  0.51383325108E+02  0.81104126245E+02  0.00000000000E+00 0. -1.
</event>
<event>
 7    1  0.2394257E-009  0.1086395E+03  0.7561462E-02  0.1263110E+00
          1   -1    0    0  501    0  0.00000000000E+00  0.00000000000E+00  0.98472307272E+03  0.98472307272E+03  0.00000000000E+00 0. -1.
         -1   -1    0    0    0  501 -0.00000000000E+00 -0.00000000000E+00 -0.13834837990E+02  0.13834837990E+02  0.00000000000E+00 0.  1.
         25    2    1    2    0    0 -0.22848357556E+02 -0.11769488010E+02  0.68185210448E+03  0.69370736362E+03  0.12508815155E+03 0.  0.
          5    1    3    3  502    0 -0.69486668352E+02  0.18293100825E+02  0.37228048952E+03  0.37917445839E+03  0.41800000000E+01 0.  1.
         -5    1    3    3    0  502  0.46638310795E+02 -0.30062588835E+02  0.30957161496E+03  0.31453290523E+03  0.41800000000E+01 0.  1.
        -11    1    1    2    0    0  0.12031543687E+02 -0.37413164938E+02  0.71779247521E+02  0.81833754214E+02  0.00000000000E+00 0.  1.
         11    1    1    2    0    0  0.10816813869E+02  0.49182652948E+02  0.21725688273E+03  0.22301679288E+03  0.00000000000E+00 0. -1.
</event>
<event>
 7    1  0.2394257E-009  0.1251498E+03  0.7561462E-02  0.1234835E+00
          3   -1    0    0  501    0  0.00000000000E+00  0.00000000000E+00  0.15756887875E+03  0.15756887875E+03  0.00000000000E+00 0. -1.
         -3   -1    0    0    0  501 -0.00000000000E+00 -0.00000000000E+00 -0.13567786599E+03  0.13567786599E+03  0.00000000000E+00 0.  1.
         25    2    1    2    0    0  0.58388208118E+02 -0.75672293583E+02  0.25443597760E+02  0.15946605101E+03  0.12508623383E+03 0.  0.
          5    1    3    3  502    0  0.91542397998E+01 -0.65723588369E+02 -0.39439023679E+02  0.77306527300E+02  0.41800000000E+01 0. -1.
         -5    1    3    3    0  502  0.49233968318E+02 -0.99487052137E+01  0.64882621438E+02  0.82159523711E+02  0.41800000000E+01 0. -1.
        -11    1    1    2    0    0 -0.83123593695E+02  0.68334869663E+02  0.83327678356E+00  0.10760985360E+03  0.00000000000E+00 0. -1.
         11    1    1    2    0    0  0.24735385577E+02  0.73374239191E+01 -0.43858617809E+01  0.26170840128E+02  0.00000000000E+00 0.  1.
</event>
<event>
 7    1  0.2394257E-009  0.7780123E+02  0.7561462E-02  0.1335410E+00
         -2   -1    0    0    0  501 -0.00000000000E+00  0.00000000000E+00  0.28311985567E+02  0.28311985567E+02  0.00000000000E+00 0.  1.
          2   -1    0    0  501    0  0.00000000000E+00 -0.00000000000E+00 -0.99837401808E+03  0.99837401808E+03  0.00000000000E+00 0. -1.
         25    2    1    2    0    0  0.31380840482E+02  0.37861095973E+02 -0.87237104489E+03  0.88266462853E+03  0.12508951498E+03 0.  0.
          5    1    3    3  502    0  0.29501902316E+02  0.57763232396E+02 -0.20664607567E+03  0.21662646710E+03  0.41800000000E+01 0.  1.
         -5    1    3    3    0  502  0.18789381653E+01 -0.19902136424E+02 -0.66572496922E+03  0.66603816143E+03  0.41800000000E+01 0.  1.
        -11    1    1    2    0    0  0.89000875297E+01 -0.27051205645E+02  0.86761296765E+01  0.29770027058E+02  0.00000000000E+00 0.  1.
         11    1    1    2    0    0 -0.40280928011E+02 -0.10809890328E+02 -0.10636711730E+03  0.11425134806E+03  0.00000000000E+00 0. -1.
</event>
<event>
 7    1  0.2394257E-009  0.1159141E+03  0.7561462E-02  0.1249994E+00
         -2   -1    0    0    0  501 -0.00000000000E+00  0.00000000000E+00  0.31991108579E+03  0.31991108579E+03  0.00000000000E+00 0.  1.
          2   -1    0    0  501    0  0.00000000000E+00 -0.00000000000E+00 -0.64283769599E+02  0.64283769599E+02  0.00000000000E+00 0. -1.
         25    2    1    2    0    0 -0.79252761451E+02 -0.49136721211E+02  0.11269461264E+03  0.19246402796E+03  0.12508760438E+03 0.  0.
          5    1    3    3  502    0 -0.41897509801E+02  0.28544423010E+02  0.89757952649E+02  0.10317047967E+03  0.41800000000E+01 0. -1.
         -5    1    3    3    0  502 -0.37355251650E+02 -0.77681144222E+02  0.22936659994E+02  0.89293548284E+02  0.41800000000E+01 0. -1.
        -11    1    1    2    0    0  0.52094503336E+02  0.41051642414E+02  0.14869318530E+03  0.16281504224E+03  0.00000000000E+00 0.  1.
         11    1    1    2    0    0  0.27158258116E+02  0.80850787970E+01 -0.57604817599E+01  0.28915785190E+02  0.00000000000E+00 0. -1.
</event>
<event>
 7    1  0.2394257E-009  0.8360497E+02  0.7561462E-02  0.1319122E+00
         -1   -1    0    0    0  501 -0.00000000000E+00  0.00000000000E+00  0.13220627226E+02  0.13220627226E+02  0.00000000000E+00 0.  1.
          1   -1    0    0  501    0  0.00000000000E+00 -0.00000000000E+00 -0.10302818832E+04  0.10302818832E+04  0.00000000000E+00 0. -1.
         25    2    1    2    0    0 -0.98573228204E+01 -0.25167930705E+02 -0.72501741872E+03  0.73622579437E+03  0.12509025261E+03 0.  0.
          5    1    3    3  502    0  0.25228968300E+02 -0.34856614928E+02 -0.86921360842E+02  0.97078729989E+02  0.41800000000E+01 0.  1.
         -5    1    3    3    0  502 -0.35086291120E+02  0.96886842235E+01 -0.63809605788E+03  0.63914706438E+03  0.41800000000E+01 0.  1.
        -11    1    1    2    0    0 -0.36186444232E+02  0.19040742058E+02 -0.76061088055E+02  0.86355646720E+02  0.00000000000E+00 0.  1.
         11    1    1    2    0    0  0.46043767052E+02  0.61271886467E+01 -0.21598274923E+03  0.22092106936E+03  0.00000000000E+00 0. -1.
</event>
<event>
 7    1  0.2394257E-009  0.9541768E+02  0.7561462E-02  0.1290238E+00
         -2   -1    0    0    0  501 -0.00000000000E+00  0.00000000000E+00  0.27180026176E+02  0.27180026176E+02  0.00000000000E+00 0.  1.
          2   -1    0    0  501    0  0.00000000000E+00 -0.00000000000E+00 -0.58457742004E+03  0.58457742004E+03  0.00000000000E+00 0. -1.
         25    2    1    2    0    0 -0.35861950637E+02  0.32736880293E+02 -0.22128609410E+03  0.25879091881E+03  0.12508965337E+03 0.  0.
          5    1    3    3  502    0 -0.49374085792E+02  0.45947883113E+02 -0.44417441817E+02  0.80866493976E+02  0.41800000000E+01 0.  1.
         -5    1    3    3    0  502  0.13512135155E+02 -0.13211002820E+02 -0.17686865229E+03  0.17792442484E+03  0.41800000000E+01 0.  1.
        -11    1    1    2    0    0 -0.72314288073E+01 -0.54950128747E+02 -0.13174862356E+03  0.14293183698E+03  0.00000000000E+00 0. -1.
         11    1    1    2    0    0  0.43093379445E+02  0.22213248454E+02 -0.20436267620E+03  0.21003469042E+03  0.00000000000E+00 0.  1.
</event>
<event>
 7    1  0.2394257E-009  0.1919360E+03  0.7561462E-02  0.1156727E+00
          1   -1    0    0  501    0  0.00000000000E+00  0.00000000000E+00  0.29388824434E+03  0.29388824434E+03  0.00000000000E+00 0. -1.
         -1   -1    0    0    0  501 -0.00000000000E+00 -0.00000000000E+00 -0.21878831604E+03  0.21878831604E+03  0.00000000000E+00 0.  1.
         25    2    1    2    0    0  0.15828258029E+03  0.63514770179E+02 -0.11532481185E+03  0.24090094533E+03  0.12508377983E+03 0.  0.
          5    1    3    3  502    0  0.11480869554E+03 -0.81127978401E+01 -0.10593987434E+03  0.15648509013E+03  0.41800000000E+01 0. -1.
         -5    1    3    3    0  502  0.43473884758E+02  0.71627568019E+02 -0.93849375111E+01  0.84415855195E+02  0.41800000000E+01 0. -1.
        -11    1    1    2    0    0 -0.16519228232E+03 -0.55590871096E+02  0.14983496701E+03  0.22984636701E+03  0.00000000000E+00 0.  1.
         11    1    1    2    0    0  0.69097020227E+01 -0.79238990831E+01  0.40589773139E+02  0.41929248052E+02  0.00000000000E+00 0. -1.
</event>
<event>
 7    1  0.2394257E-009  0.9212390E+02  0.7561462E-02  0.1297788E+00
         -3   -1    0    0    0  501 -0.00000000000E+00  0.00000000000E+00  0.23156334053E+02  0.23156334053E+02  0.00000000000E+00 0.  1.
          3   -1    0    0  501    0  0.00000000000E+00 -0.00000000000E+00 -0.64476822707E+03  0.64476822707E+03  0.00000000000E+00 0. -1.
         25    2    1    2    0    0  0.35714746685E+02 -0.49854710928E+02 -0.41974582967E+03  0.44225904957E+03  0.12508185350E+03 0.  0.
          5    1    3    3  502    0  0.15663065263E+02  0.15079217761E+02 -0.59869581455E+01  0.22935354576E+02  0.41800000000E+01 0.  1.
         -5    1    3    3    0  502  0.20051681423E+02 -0.64933928689E+02 -0.41375887152E+03  0.41932369500E+03  0.41800000000E+01 0.  1.
        -11    1    1    2    0    0 -0.57557947483E+02  0.39768350961E+02 -0.18014009112E+03  0.19324826386E+03  0.00000000000E+00 0. -1.
         11    1    1    2    0    0  0.21843200798E+02  0.10086359967E+02 -0.21725972234E+02  0.32417247693E+02  0.00000000000E+00 0.  1.
</event>
<event>
 7    1  0.2394257E-009  0.1943171E+03  0.7561462E-02  0.1154624E+00
         -3   -1    0    0    0  501 -0.00000000000E+00  0.00000000000E+00  0.53233203772E+02  0.53233203772E+02  0.00000000000E+00 0.  1.
          3   -1    0    0  501    0  0.00000000000E+00 -0.00000000000E+00 -0.82877171049E+03  0.82877171049E+03  0.00000000000E+00 0. -1.
         25    2    1    2    0    0 -0.15105851798E+03  0.88265144724E+02 -0.45768131387E+03  0.50569635586E+03  0.12508879902E+03 0.  0.
          5    1    3    3  502    0 -0.87670843850E+02  0.91288135039E+02 -0.17539330106E+03  0.21633303705E+03  0.41800000000E+01 0.  1.
         -5    1    3    3    0  502 -0.63387674132E+02 -0.30229903154E+01 -0.28228801281E+03  0.28936331882E+03  0.41800000000E+01 0.  1.
        -11    1    1    2    0    0  0.11206944060E+03 -0.10717347023E+03 -0.27282528098E+03  0.31381419053E+03  0.00000000000E+00 0. -1.
         11    1    1    2    0    0  0.38989077385E+02  0.18908325505E+02 -0.45031911873E+02  0.62494367872E+02  0.00000000000E+00 0.  1.
</event>
<event>
 7    1  0.2571355E-009  0.1057436E+03  0.7561462E-02  0.1268662E+00
         -1   -1    0    0    0  501 -0.00000000000E+00  0.00000000000E+00  0.64588300810E+02  0.64588300810E+02  0.00000000000E+00 0.  1.
          1   -1    0    0  501    0  0.00000000000E+00 -0.00000000000E+00 -0.30205306007E+03  0.30205306007E+03  0.00000000000E+00 0. -1.
         25    2    1    2    0    0  0.23196234736E+02  0.78013944782E+02 -0.87854166454E+02  0.17317458591E+03  0.12508733651E+03 0.  0.
          5    1    3    3  502    0 -0.10524482292E+02  0.21902607125E+02  0.29672808177E+02  0.38580265312E+02  0.41800000000E+01 0. -1.
         -5    1    3    3    0  502  0.33720717028E+02  0.56111337657E+02 -0.11752697463E+03  0.13459432060E+03  0.41800000000E+01 0. -1.
        -11    1    1    2    0    0 -0.17304898662E+00 -0.93490830717E+02 -0.12686694436E+03  0.15759374018E+03  0.00000000000E+00 0.  1.
         11    1    1    2    0    0 -0.23023185749E+02  0.15476885934E+02 -0.22743648448E+02  0.35873034789E+02  0.00000000000E+00 0. -1.
</event>
<event>
 7    1  0.2394257E-009  0.1275521E+03  0.7561462E-02  0.1231134E+00
          2   -1    0    0  501    0  0.00000000000E+00  0.00000000000E+00  0.56557470101E+03  0.56557470101E+03  0.00000000000E+00 0. -1.
         -2   -1    0    0    0  501 -0.00000000000E+00 -0.00000000000E+00 -0.43309298110E+02  0.43309298110E+02  0.00000000000E+00 0.  1.
         25    2    1    2    0    0  0.11194171099E+02  0.92473017699E+02  0.40451790714E+03  0.43354264629E+03  0.12509164835E+03 0.  0.
          5    1    3    3  502    0 -0.54828455797E+02  0.22263970266E+02  0.14423494904E+03  0.15595844595E+03  0.41800000000E+01 0. -1.
         -5    1    3    3    0  502  0.66022626896E+02  0.70209047433E+02  0.26028295810E+03  0.27758420035E+03  0.41800000000E+01 0. -1.
        -11    1    1    2    0    0  0.31791281755E+01 -0.80622720479E+02  0.13002922764E+03  0.15302852660E+03  0.00000000000E+00 0. -1.
         11    1    1    2    0    0 -0.14373299274E+02 -0.11850297220E+02 -0.12281731880E+02  0.22312826226E+02  0.00000000000E+00 0.  1.
</event>
<event>
 7    1  0.2394257E-009  0.2546435E+03  0.7561462E-02  0.1110405E+00
          1   -1    0    0  501    0  0.00000000000E+00  0.00000000000E+00  0.11764671054E+04  0.11764671054E+04  0.00000000000E+00 0. -1.
         -1   -1    0    0    0  501 -0.00000000000E+00 -0.00000000000E+00 -0.74318217303E+02  0.74318217303E+02  0.00000000000E+00 0.  1.
         25    2    1    2    0    0  0.14911540253E+03 -0.19343811008E+03  0.82998443916E+03  0.87417366409E+03  0.12510683449E+03 0.  0.
          5    1    3    3  502    0  0.76975014432E+02 -0.13811156305E+03  0.32967835936E+03  0.36565728452E+03  0.41800000000E+01 0. -1.
         -5    1    3    3    0  502  0.72140388098E+02 -0.55326547026E+02  0.50030607980E+03  0.50851637956E+03  0.41800000000E+01 0. -1.
        -11    1    1    2    0    0 -0.37763458170E+02  0.12224045832E+03  0.12641388350E+03  0.17985905139E+03  0.00000000000E+00 0.  1.
         11    1    1    2    0    0 -0.11135194436E+03  0.71197651757E+02  0.14575056547E+03  0.19675260726E+03  0.00000000000E+00 0. -1.
</event>
<event>
 7    1  0.2394257E-009  0.8807260E+02  0.7561462E-02  0.1307587E+00
          3   -1    0    0  501    0  0.00000000000E+00  0.00000000000E+00  0.24360577465E+03  0.24360577465E+03  0.00000000000E+00 0. -1.
         -3   -1    0    0    0  501 -0.00000000000E+00 -0.00000000000E+00 -0.32889293619E+02  0.32889293619E+02  0.00000000000E+00 0.  1.
         25    2    1    2    0    0 -0.30219443245E+02  0.13493410236E+02  0.13300172329E+03  0.18555855391E+03  0.12508889504E+03 0.  0.
          5    1    3    3  502    0  0.48595590711E+02 -0.11191546870E+01  0.43865083200E+02  0.65607940586E+02  0.41800000000E+01 0.  1.
         -5    1    3    3    0  502 -0.78815033956E+02  0.14612564923E+02  0.89136640088E+02  0.11995061333E+03  0.41800000000E+01 0.  1.
        -11    1    1    2    0    0  0.26254628966E+02  0.62205760318E+01  0.41145716908E+02  0.49203365009E+02  0.00000000000E+00 0.  1.
         11    1    1    2    0    0  0.39648142788E+01 -0.19713986268E+02  0.36569040831E+02  0.41733149344E+02  0.00000000000E+00 0. -1.
</event>
<event>
 7    1  0.2394257E-009  0.1107200E+03  0.7561462E-02  0.1259242E+00
         -4   -1    0    0    0  501 -0.00000000000E+00  0.00000000000E+00  0.84077811705E+02  0.84077811705E+02  0.00000000000E+00 0.  1.
          4   -1    0    0  501    0  0.00000000000E+00 -0.00000000000E+00 -0.26218302159E+03  0.26218302159E+03  0.00000000000E+00 0. -1.
         25    2    1    2    0    0 -0.87846701599E+02 -0.51937832408E+02 -0.10135983545E+03  0.19062056392E+03  0.12509117367E+03 0.  0.
          5    1    3    3  502    0 -0.48090844762E+02 -0.61328014806E+02 -0.12187084098E+03  0.14471982944E+03  0.41800000000E+01 0. -1.
         -5    1    3    3    0  502 -0.39755856837E+02  0.93901823981E+01  0.20511005534E+02  0.45900734486E+02  0.41800000000E+01 0. -1.
        -11    1    1    2    0    0  0.69756552277E+02  0.44676146531E+02 -0.68976879418E+01  0.83123478954E+02  0.00000000000E+00 0.  1.
         11    1    1    2    0    0  0.18090149322E+02  0.72616858770E+01 -0.69847686493E+02  0.72516790419E+02  0.00000000000E+00 0. -1.
</event>
<event>
 7    1  0.2394257E-009  0.1002863E+03  0.7561462E-02  0.1279695E+00
          2   -1    0    0  501    0  0.00000000000E+00  0.00000000000E+00  0.22241543817E+03  0.22241543817E+03  0.00000000000E+00 0. -1.
         -2   -1    0    0    0  501 -0.00000000000E+00 -0.00000000000E+00 -0.81697527652E+02  0.81697527652E+02  0.00000000000E+00 0.  1.
         25    2    1    2    0    0  0.48993523408E+02  0.59610389362E+02  0.97423423023E+02  0.17633168442E+03  0.12509106971E+03 0.  0.
          5    1    3    3  502    0  0.34333715215E+01 -0.22252177076E+02  0.77027355515E+02  0.80359400958E+02  0.41800000000E+01 0. -1.
         -5    1    3    3    0  502  0.45560151887E+02  0.81862566439E+02  0.20396067508E+02  0.95972283466E+02  0.41800000000E+01 0. -1.
        -11    1    1    2    0    0 -0.53510236800E+02 -0.49827349020E+02 -0.96502281037E+01  0.73751183415E+02  0.00000000000E+00 0.  1.
         11    1    1    2    0    0  0.45167133914E+01 -0.97830403422E+01  0.52944715602E+02  0.54030097986E+02  0.00000000000E+00 0. -1.
</event>
<event>
 7    1  0.2394257E-009  0.7406167E+02  0.7561462E-02  0.1346802E+00
          1   -1    0    0  501    0  0.00000000000E+00  0.00000000000E+00  0.11356644154E+04  0.11356644154E+04  0.00000000000E+00 0.  1.
         -1   -1    0    0    0  501 -0.00000000000E+00 -0.00000000000E+00 -0.14303283870E+02  0.14303283870E+02  0.00000000000E+00 0. -1.
         25    2    1    2    0    0  0.33600395672E+02 -0.58717069535E+00  0.88610426377E+03  0.89552089815E+03  0.12509029298E+03 0.  0.
          5    1    3    3  502    0  0.32086604218E+02 -0.20426212270E+02  0.86627939150E+03  0.86712411848E+03  0.41800000000E+01 0. -1.
         -5    1    3    3    0  502  0.15137914540E+01  0.19839041574E+02  0.19824872276E+02  0.28396779675E+02  0.41800000000E+01 0. -1.
        -11    1    1    2    0    0 -0.54426636762E+02 -0.22088839990E+02  0.19567189754E+03  0.20429798611E+03  0.00000000000E+00 0.  1.
         11    1    1    2    0    0  0.20826241090E+02  0.22676010685E+02  0.39584970174E+02  0.50148814964E+02  0.00000000000E+00 0. -1.
</event>
<event>
 7    1  0.2394257E-009  0.1104925E+03  0.7561462E-02  0.1259660E+00
          3   -1    0    0  501    0  0.00000000000E+00  0.00000000000E+00  0.27681035242E+03  0.27681035242E+03  0.00000000000E+00 0. -1.
         -3   -1    0    0    0  501 -0.00000000000E+00 -0.00000000000E+00 -0.56171813216E+02  0.56171813216E+02  0.00000000000E+00 0.  1.
         25    2    1    2    0    0 -0.63131976511E+01 -0.45300451397E+02  0.17943310863E+03  0.22346270577E+03  0.12508938019E+03 0.  0.
          5    1    3    3  502    0  0.21410203280E+02  0.37877075888E+02  0.43602487606E+02  0.61739120561E+02  0.41800000000E+01 0.  1.
         -5    1    3    3    0  502 -0.27723400931E+02 -0.83177527284E+02  0.13583062103E+03  0.16172358521E+03  0.41800000000E+01 0.  1.
        -11    1    1    2    0    0 -0.21348867829E+02  0.55929732088E+02  0.13842072786E+01  0.59881759483E+02  0.00000000000E+00 0.  1.
         11    1    1    2    0    0  0.27662065480E+02 -0.10629280692E+02  0.39821223293E+02  0.49637700382E+02  0.00000000000E+00 0. -1.
</event>
<event>
 7    1  0.4187640E-009  0.2370323E+03  0.7561462E-02  0.1121786E+00
          2   -1    0    0  501    0  0.00000000000E+00  0.00000000000E+00  0.97946869356E+03  0.97946869356E+03  0.00000000000E+00 0. -1.
         -2   -1    0    0    0  501 -0.00000000000E+00 -0.00000000000E+00 -0.64677100711E+02  0.64677100711E+02  0.00000000000E+00 0.  1.
         25    2    1    2    0    0 -0.20685657642E+03 -0.89030983201E+02  0.41667011989E+03  0.48987376239E+03  0.12508459174E+03 0.  0.
          5    1    3    3  502    0 -0.59944520119E+02 -0.52298454924E+02  0.26003902773E+03  0.27196735507E+03  0.41800000000E+01 0. -1.
         -5    1    3    3    0  502 -0.14691205630E+03 -0.36732528277E+02  0.15663109216E+03  0.21790640732E+03  0.41800000000E+01 0. -1.
        -11    1    1    2    0    0  0.12893874313E+03  0.60479343788E+01  0.27527102241E+03  0.30403274950E+03  0.00000000000E+00 0.  1.
         11    1    1    2    0    0  0.77917833290E+02  0.82983048822E+02  0.22285045055E+03  0.25023928239E+03  0.00000000000E+00 0. -1.
</event>
<event>
 7    1  0.2394257E-009  0.1716327E+03  0.7561462E-02  0.1176156E+00
          1   -1    0    0  501    0  0.00000000000E+00  0.00000000000E+00  0.10676645135E+04  0.10676645135E+04  0.00000000000E+00 0. -1.
         -1   -1    0    0    0  501 -0.00000000000E+00 -0.00000000000E+00 -0.32740529970E+02  0.32740529970E+02  0.00000000000E+00 0.  1.
         25    2    1    2    0    0 -0.10049919101E+02  0.15100643996E+03  0.62247637966E+03  0.65270868292E+03  0.12509130959E+03 0.  0.
          5    1    3    3  502    0 -0.55215621516E+02  0.10680034789E+03  0.28516233140E+03  0.30949976868E+03  0.41800000000E+01 0. -1.
         -5    1    3    3    0  502  0.45165702415E+02  0.44206092066E+02  0.33731404827E+03  0.34320891423E+03  0.41800000000E+01 0. -1.
        -11    1    1    2    0    0 -0.15157869825E+02 -0.11305133716E+03  0.36280951663E+03  0.38031711927E+03  0.00000000000E+00 0. -1.
         11    1    1    2    0    0  0.25207788926E+02 -0.37955102798E+02  0.49638087220E+02  0.67379241268E+02  0.00000000000E+00 0.  1.
</event>
<event>
 7    1  0.2394257E-009  0.1208336E+03  0.7561462E-02  0.1241728E+00
          2   -1    0    0  501    0  0.00000000000E+00  0.00000000000E+00  0.31485098940E+03  0.31485098940E+03  0.00000000000E+00 0. -1.
         -2   -1    0    0    0  501 -0.00000000000E+00 -0.00000000000E+00 -0.51501996511E+02  0.51501996511E+02  0.00000000000E+00 0.  1.
         25    2    1    2    0    0  0.46100136202E+02  0.40344021184E+02  0.10491461966E+03  0.17437611096E+03  0.12508832101E+03 0.  0.
          5    1    3    3  502    0  0.22167077173E+02 -0.44633145322E+02  0.47568308487E+02  0.69019659112E+02  0.41800000000E+01 0.  1.
         -5    1    3    3    0  502  0.23933059029E+02  0.84977166505E+02  0.57346311171E+02  0.10535645185E+03  0.41800000000E+01 0.  1.
        -11    1    1    2    0    0 -0.14413171434E+02 -0.62803525447E+02  0.12541052658E+03  0.14099582439E+03  0.00000000000E+00 0.  1.
         11    1    1    2    0    0 -0.31686964768E+02  0.22459504263E+02  0.33023846652E+02  0.50981050555E+02  0.00000000000E+00 0. -1.
</event>
<event>
 7    1  0.2394257E-009  0.1374764E+03  0.7561462E-02  0.1216766E+00
          1   -1    0    0  501    0  0.00000000000E+00  0.00000000000E+00  0.25175379606E+03  0.25175379606E+03  0.00000000000E+00 0. -1.
         -1   -1    0    0    0  501 -0.00000000000E+00 -0.00000000000E+00 -0.84712023702E+02  0.84712023702E+02  0.00000000000E+00 0.  1.
         25    2    1    2    0    0  0.94010297559E+02 -0.98334674639E+01  0.65303160080E+02  0.16984373717E+03  0.12509100371E+03 0.  0.
          5    1    3    3  502    0  0.59490598464E+02 -0.62015985576E+02  0.63812370403E+02  0.10711958173E+03  0.41800000000E+01 0.  1.
         -5    1    3    3    0  502  0.34519699095E+02  0.52182518112E+02  0.14907896774E+01  0.62724155442E+02  0.41800000000E+01 0.  1.
        -11    1    1    2    0    0 -0.84618349986E+02  0.40733569264E+02  0.52082952539E+02  0.10738772167E+03  0.00000000000E+00 0.  1.
         11    1    1    2    0    0 -0.93919475725E+01 -0.30900101800E+02  0.49655659735E+02  0.59234360925E+02  0.00000000000E+00 0. -1.
</event>
<event>
 7    1  0.2394257E-009  0.1133774E+03  0.7561462E-02  0.1254440E+00
         -1   -1    0    0    0  501 -0.00000000000E+00  0.00000000000E+00  0.33057795471E+03  0.33057795471E+03  0.00000000000E+00 0.  1.
          1   -1    0    0  501    0  0.00000000000E+00 -0.00000000000E+00 -0.13665110238E+03  0.13665110238E+03  0.00000000000E+00 0. -1.
         25    2    1    2    0    0  0.68132418374E+02  0.58428673793E+02 -0.73614316042E+02  0.17065728676E+03  0.12509558602E+03 0.  0.
          5    1    3    3  502    0  0.47934066653E+02  0.84351507450E+02 -0.83519068038E+01  0.97468345129E+02  0.41800000000E+01 0.  1.
         -5    1    3    3    0  502  0.20198351721E+02 -0.25922833657E+02 -0.65262409238E+02  0.73188941628E+02  0.41800000000E+01 0.  1.
        -11    1    1    2    0    0 -0.33114790071E+02 -0.50860974619E+02  0.24888740757E+03  0.25618034606E+03  0.00000000000E+00 0.  1.
         11    1    1    2    0    0 -0.35017628303E+02 -0.75676991740E+01  0.18653760799E+02  0.40391424272E+02  0.00000000000E+00 0. -1.
</event>
<event>
 7    1  0.2394257E-009  0.7839906E+02  0.7561462E-02  0.1333657E+00
         -2   -1    0    0    0  501 -0.00000000000E+00  0.00000000000E+00  0.18547604457E+03  0.18547604457E+03  0.00000000000E+00 0.  1.
          2   -1    0    0  501    0  0.00000000000E+00 -0.00000000000E+00 -0.73455139463E+02  0.73455139463E+02  0.00000000000E+00 0. -1.
         25    2    1    2    0    0  0.36815864145E+02  0.12516867616E+02  0.62021373733E+02  0.14492861986E+03  0.12508226984E+03 0.  0.
          5    1    3    3  502    0 -0.12808404132E+02  0.47968947359E+01 -0.33779029696E+02  0.36681884667E+02  0.41800000000E+01 0.  1.
         -5    1    3    3    0  502  0.49624268277E+02  0.77199728796E+01  0.95800403429E+02  0.10824673520E+03  0.41800000000E+01 0.  1.
        -11    1    1    2    0    0 -0.11876425161E+02 -0.47598991868E+02  0.51243953085E+02  0.70941216717E+02  0.00000000000E+00 0.  1.
         11    1    1    2    0    0 -0.24939438984E+02  0.35082124252E+02 -0.12444217140E+01  0.43061347451E+02  0.00000000000E+00 0. -1.
</event>
<event>
 7    1  0.2394257E-009  0.1729046E+03  0.7561462E-02  0.1174852E+00
         -1   -1    0    0    0  501 -0.00000000000E+00  0.00000000000E+00  0.38519691868E+02  0.38519691868E+02  0.00000000000E+00 0.  1.
          1   -1    0    0  501    0  0.00000000000E+00 -0.00000000000E+00 -0.10866177533E+04  0.10866177533E+04  0.00000000000E+00 0. -1.
         25    2    1    2    0    0 -0.41541691143E+02  0.15937902687E+03 -0.39736216430E+03  0.44796370762E+03  0.12508959757E+03 0.  0.
          5    1    3    3  502    0 -0.26633829161E+02  0.16298693251E+03 -0.39913013682E+03  0.43196810014E+03  0.41800000000E+01 0. -1.
         -5    1    3    3    0  502 -0.14907861982E+02 -0.36079056381E+01  0.17679725146E+01  0.15995607484E+02  0.41800000000E+01 0. -1.
        -11    1    1    2    0    0  0.26140325163E+02 -0.10295304934E+03 -0.55430636158E+03  0.56439187579E+03  0.00000000000E+00 0. -1.
         11    1    1    2    0    0  0.15401365980E+02 -0.56425977526E+02 -0.96429535527E+02  0.11278186173E+03  0.00000000000E+00 0.  1.
</event>
<event>
 7    1  0.2394257E-009  0.1758537E+03  0.7561462E-02  0.1171877E+00
         -1   -1    0    0    0  501 -0.00000000000E+00  0.00000000000E+00  0.15568201008E+02  0.15568201008E+02  0.00000000000E+00 0.  1.
          1   -1    0    0  501    0  0.00000000000E+00 -0.00000000000E+00 -0.37986829569E+04  0.37986829569E+04  0.00000000000E+00 0. -1.
         25    2    1    2    0    0  0.15198436000E+03  0.35863453415E+02 -0.31362179079E+04  0.31425940904E+04  0.12509763564E+03 0.  0.
          5    1    3    3  502    0  0.12702487636E+03  0.72554098242E+02 -0.19243001520E+04  0.19298569802E+04  0.41800000000E+01 0.  1.
         -5    1    3    3    0  502  0.24959483649E+02 -0.36690644827E+02 -0.12119177559E+04  0.12127371103E+04  0.41800000000E+01 0.  1.
        -11    1    1    2    0    0 -0.10912594092E+03 -0.74728341197E+01 -0.56089867251E+03  0.57146446526E+03  0.00000000000E+00 0. -1.
         11    1    1    2    0    0 -0.42858419087E+02 -0.28390619295E+02 -0.85998175449E+02  0.10019260218E+03  0.00000000000E+00 0.  1.
</event>
<event>
 7    1  0.2394257E-009  0.1142554E+03  0.7561462E-02  0.1252886E+00
         -1   -1    0    0    0  501 -0.00000000000E+00  0.00000000000E+00  0.42599110861E+03  0.42599110861E+03  0.00000000000E+00 0.  1.
          1   -1    0    0  501    0  0.00000000000E+00 -0.00000000000E+00 -0.39688975016E+02  0.39688975016E+02  0.00000000000E+00 0. -1.
         25    2    1    2    0    0  0.22525411266E+02  0.46193518915E+02  0.12461481834E+03  0.18389234099E+03  0.12508519010E+03 0.  0.
          5    1    3    3  502    0  0.50203245731E+02 -0.21900150712E+02  0.82382537316E+02  0.99016853806E+02  0.41800000000E+01 0. -1.
         -5    1    3    3    0  502 -0.27677834465E+02  0.68093669627E+02  0.42232281026E+02  0.84875487183E+02  0.41800000000E+01 0. -1.
        -11    1    1    2    0    0  0.15831587111E+02 -0.57762794433E+02  0.11416253710E+03  0.12891960459E+03  0.00000000000E+00 0.  1.
         11    1    1    2    0    0 -0.38356998377E+02  0.11569275518E+02  0.14752477815E+03  0.15286813804E+03  0.00000000000E+00 0. -1.
</event>
<event>
 7    1  0.2394257E-009  0.1027194E+03  0.7561462E-02  0.1274679E+00
          1   -1    0    0  501    0  0.00000000000E+00  0.00000000000E+00  0.56405223668E+03  0.56405223668E+03  0.00000000000E+00 0. -1.
         -1   -1    0    0    0  501 -0.00000000000E+00 -0.00000000000E+00 -0.22722361445E+02  0.22722361445E+02  0.00000000000E+00 0.  1.
         25    2    1    2    0    0 -0.17478723791E+02  0.51024417055E+01  0.24127723058E+03  0.27238453718E+03  0.12508834241E+03 0.  0.
          5    1    3    3  502    0  0.81516224699E+01 -0.54455937301E+02  0.15383119367E+03  0.16344236477E+03  0.41800000000E+01 0. -1.
         -5    1    3    3    0  502 -0.25630346261E+02  0.59558379007E+02  0.87446036905E+02  0.10894217241E+03  0.41800000000E+01 0. -1.
        -11    1    1    2    0    0  0.10283910627E+02 -0.44255823588E+02  0.22386307379E+03  0.22842725876E+03  0.00000000000E+00 0. -1.
         11    1    1    2    0    0  0.71948131640E+01  0.39153381883E+02  0.76189570877E+02  0.85962802186E+02  0.00000000000E+00 0.  1.
</event>
<event>
 7    1  0.2394257E-009  0.2112583E+03  0.7561462E-02  0.1140573E+00
          2   -1    0    0  501    0  0.00000000000E+00  0.00000000000E+00  0.20523226681E+04  0.20523226681E+04  0.00000000000E+00 0. -1.
         -2   -1    0    0    0  501 -0.00000000000E+00 -0.00000000000E+00 -0.23108966958E+02  0.23108966958E+02  0.00000000000E+00 0.  1.
         25    2    1    2    0    0  0.10596490047E+03  0.15389935328E+03  0.11574469338E+04  0.11790863716E+04  0.12509075177E+03 0.  0.
          5    1    3    3  502    0  0.45293063661E+02  0.15532785587E+03  0.76311967730E+03  0.78009442935E+03  0.41800000000E+01 0. -1.
         -5    1    3    3    0  502  0.60671836805E+02 -0.14285025838E+01  0.39432725648E+03  0.39899194228E+03  0.41800000000E+01 0. -1.
        -11    1    1    2    0    0 -0.33851947738E+02 -0.11072444251E+03  0.62562840468E+03  0.63625211770E+03  0.00000000000E+00 0.  1.
         11    1    1    2    0    0 -0.72112952728E+02 -0.43174910770E+02  0.24613836272E+03  0.26009314576E+03  0.00000000000E+00 0. -1.
</event>
<event>
 7    1  0.2394257E-009  0.1164325E+03  0.7561462E-02  0.1249101E+00
          2   -1    0    0  501    0  0.00000000000E+00  0.00000000000E+00  0.76152602752E+02  0.76152602752E+02  0.00000000000E+00 0. -1.
         -2   -1    0    0    0  501 -0.00000000000E+00 -0.00000000000E+00 -0.25865621647E+03  0.25865621647E+03  0.00000000000E+00 0.  1.
         25    2    1    2    0    0 -0.50948837827E+02  0.40840533142E+02 -0.34194719156E+02  0.14519113763E+03  0.12508978538E+03 0.  0.
          5    1    3    3  502    0 -0.53375036035E+02  0.68720772487E+02 -0.60893900022E+02  0.10628724525E+03  0.41800000000E+01 0.  1.
         -5    1    3    3    0  502  0.24261982080E+01 -0.27880239344E+02  0.26699180867E+02  0.38903892383E+02  0.41800000000E+01 0.  1.
        -11    1    1    2    0    0  0.50665832892E+02 -0.71038444604E+02 -0.11874626972E+03  0.14735726588E+03  0.00000000000E+00 0.  1.
         11    1    1    2    0    0  0.28300493532E+00  0.30197911462E+02 -0.29562624840E+02  0.42260415709E+02  0.00000000000E+00 0. -1.
</event>
<event>
 7    1  0.2394257E-009  0.9105884E+02  0.7561462E-02  0.1300308E+00
          1   -1    0    0  501    0  0.00000000000E+00  0.00000000000E+00  0.44986588517E+02  0.44986588517E+02  0.00000000000E+00 0. -1.
         -1   -1    0    0    0  501 -0.00000000000E+00 -0.00000000000E+00 -0.30113752422E+03  0.30113752422E+03  0.00000000000E+00 0.  1.
         25    2    1    2    0    0  0.54449059228E+01 -0.42031292189E+02 -0.12268524345E+03  0.18026431187E+03  0.12508907486E+03 0.  0.
          5    1    3    3  502    0  0.55137393282E+02 -0.56800752309E+02 -0.83582195473E+02  0.11519511014E+03  0.41800000000E+01 0. -1.
         -5    1    3    3    0  502 -0.49692487360E+02  0.14769460121E+02 -0.39103047978E+02  0.65069201727E+02  0.41800000000E+01 0. -1.
        -11    1    1    2    0    0  0.57042493237E+01  0.38817213146E+02 -0.14457006356E+03  0.14979925826E+03  0.00000000000E+00 0.  1.
         11    1    1    2    0    0 -0.11149155246E+02  0.32140790429E+01  0.11104371306E+02  0.16060542610E+02  0.00000000000E+00 0. -1.
</event>
<event>
 7    1  0.2394257E-009  0.1419457E+03  0.7561462E-02  0.1210735E+00
         -1   -1    0    0    0  501 -0.00000000000E+00  0.00000000000E+00  0.19232158367E+03  0.19232158367E+03  0.00000000000E+00 0.  1.
          1   -1    0    0  501    0  0.00000000000E+00 -0.00000000000E+00 -0.24415563636E+03  0.24415563636E+03  0.00000000000E+00 0. -1.
         25    2    1    2    0    0 -0.66805920587E+02  0.71627206579E+02  0.13404239755E+03  0.20786653393E+03  0.12509054256E+03 0.  0.
          5    1    3    3  502    0  0.22139412626E+02  0.60446704243E+02  0.81259404058E+02  0.10375220862E+03  0.41800000000E+01 0.  1.
         -5    1    3    3    0  502 -0.88945333213E+02  0.11180502336E+02  0.52782993492E+02  0.10411432531E+03  0.41800000000E+01 0.  1.
        -11    1    1    2    0    0 -0.19872598171E+02 -0.22451036088E+02 -0.23514468409E+02  0.38103797764E+02  0.00000000000E+00 0.  1.
         11    1    1    2    0    0  0.86678518758E+02 -0.49176170491E+02 -0.16236198183E+03  0.19050688834E+03  0.00000000000E+00 0. -1.
</event>
<event>
 7    1  0.2394257E-009  0.1126281E+03  0.7561462E-02  0.1255779E+00
         -1   -1    0    0    0  501 -0.00000000000E+00  0.00000000000E+00  0.36680937273E+02  0.36680937273E+02  0.00000000000E+00 0.  1.
          1   -1    0    0  501    0  0.00000000000E+00 -0.00000000000E+00 -0.55504715332E+03  0.55504715332E+03  0.00000000000E+00 0. -1.
         25    2    1    2    0    0  0.60945302774E+02  0.59167636938E+02 -0.35832265780E+03  0.38891816734E+03  0.12508826726E+03 0.  0.
          5    1    3    3  502    0 -0.70418938514E+01  0.44012349329E+02 -0.28188894915E+03  0.28542166563E+03  0.41800000000E+01 0.  1.
         -5    1    3    3    0  502  0.67987196625E+02  0.15155287609E+02 -0.76433708650E+02  0.10349650171E+03  0.41800000000E+01 0.  1.
        -11    1    1    2    0    0 -0.29784997836E+02 -0.71297924233E+02 -0.61526198413E+02  0.98772532554E+02  0.00000000000E+00 0.  1.
         11    1    1    2    0    0 -0.31160304938E+02  0.12130287296E+02 -0.98517359835E+02  0.10403739069E+03  0.00000000000E+00 0. -1.
</event>
<event>
 7    1  0.2394257E-009  0.1005234E+03  0.7561462E-02  0.1279199E+00
         -2   -1    0    0    0  501 -0.00000000000E+00  0.00000000000E+00  0.29578361211E+02  0.29578361211E+02  0.00000000000E+00 0.  1.
          2   -1    0    0  501    0  0.00000000000E+00 -0.00000000000E+00 -0.52356066540E+03  0.52356066540E+03  0.00000000000E+00 0. -1.
         25    2    1    2    0    0 -0.24923858109E+02  0.55801146470E+02 -0.27702216595E+03  0.31003916044E+03  0.12509210179E+03 0.  0.
          5    1    3    3  502    0  0.27146545296E+02 -0.14489625122E+02 -0.16446164212E+02  0.35140188886E+02  0.41800000000E+01 0.  1.
         -5    1    3    3    0  502 -0.52070403404E+02  0.70290771591E+02 -0.26057600173E+03  0.27489897155E+03  0.41800000000E+01 0.  1.
        -11    1    1    2    0    0  0.37190351780E+02 -0.15502035459E+02 -0.26944786796E+02  0.48471196647E+02  0.00000000000E+00 0.  1.
         11    1    1    2    0    0 -0.12266493671E+02 -0.40299111011E+02 -0.19001535145E+03  0.19462866952E+03  0.00000000000E+00 0. -1.
</event>
<event>
 7    1  0.2394257E-009  0.1127670E+03  0.7561462E-02  0.1255530E+00
         -1   -1    0    0    0  501 -0.00000000000E+00  0.00000000000E+00  0.85470487355E+03  0.85470487355E+03  0.00000000000E+00 0.  1.
          1   -1    0    0  501    0  0.00000000000E+00 -0.00000000000E+00 -0.22327351661E+02  0.22327351661E+02  0.00000000000E+00 0. -1.
         25    2    1    2    0    0  0.62012909591E+02  0.26350023569E+02  0.62467671746E+03  0.64063104340E+03  0.12508879937E+03 0.  0.
          5    1    3    3  502    0  0.72431867214E+02 -0.25362414074E+02  0.23187159736E+03  0.24427758288E+03  0.41800000000E+01 0.  1.
         -5    1    3    3    0  502 -0.10418957623E+02  0.51712437643E+02  0.39280512010E+03  0.39635346052E+03  0.41800000000E+01 0.  1.
        -11    1    1    2    0    0 -0.95338296933E+01  0.22266562946E+02  0.12377847338E+03  0.12612614402E+03  0.00000000000E+00 0.  1.
         11    1    1    2    0    0 -0.52479079897E+02 -0.48616586515E+02  0.83922331046E+02  0.11027503779E+03  0.00000000000E+00 0. -1.
</event>
<event>
 7    1  0.2394257E-009  0.8832432E+02  0.7561462E-02  0.1306961E+00
         -1   -1    0    0    0  501 -0.00000000000E+00  0.00000000000E+00  0.10297220843E+03  0.10297220843E+03  0.00000000000E+00 0.  1.
          1   -1    0    0  501    0  0.00000000000E+00 -0.00000000000E+00 -0.12091518016E+03  0.12091518016E+03  0.00000000000E+00 0. -1.
         25    2    1    2    0    0  0.24472833838E+02  0.16169346562E+02 -0.82727641565E+01  0.12874781246E+03  0.12508874139E+03 0.  0.
          5    1    3    3  502    0 -0.21809723512E+02  0.27882636734E+02 -0.52551165274E+02  0.63499628681E+02  0.41800000000E+01 0. -1.
         -5    1    3    3    0  502  0.46282557351E+02 -0.11713290172E+02  0.44278401117E+02  0.65248183784E+02  0.41800000000E+01 0. -1.
        -11    1    1    2    0    0 -0.32427043621E+02 -0.49299143696E+02  0.22298604591E+01  0.59049902666E+02  0.00000000000E+00 0.  1.
         11    1    1    2    0    0  0.79542097826E+01  0.33129797134E+02 -0.11900068025E+02  0.36089673459E+02  0.00000000000E+00 0. -1.
</event>
<event>
 7    1  0.2394257E-009  0.8156433E+02  0.7561462E-02  0.1324670E+00
         -1   -1    0    0    0  501 -0.00000000000E+00  0.00000000000E+00  0.41362411408E+02  0.41362411408E+02  0.00000000000E+00 0.  1.
          1   -1    0    0  501    0  0.00000000000E+00 -0.00000000000E+00 -0.39316213365E+03  0.39316213365E+03  0.00000000000E+00 0. -1.
         25    2    1    2    0    0  0.53207984553E+02 -0.47811447449E+02 -0.20332710875E+03  0.24921911128E+03  0.12510486861E+03 0.  0.
          5    1    3    3  502    0  0.45222886964E+02 -0.35359858697E+02 -0.13956546171E+02  0.59225726619E+02  0.41800000000E+01 0.  1.
         -5    1    3    3    0  502  0.79850975893E+01 -0.12451588751E+02 -0.18937056257E+03  0.18999338466E+03  0.41800000000E+01 0.  1.
        -11    1    1    2    0    0 -0.47522528968E+02  0.60124222160E+02 -0.15290636678E+03  0.17103704233E+03  0.00000000000E+00 0. -1.
         11    1    1    2    0    0 -0.56854555853E+01 -0.12312774711E+02  0.44337532771E+01  0.14268391445E+02  0.00000000000E+00 0.  1.
</event>
<event>
 7    1  0.2394257E-009  0.1376503E+03  0.7561462E-02  0.1216526E+00
         -1   -1    0    0    0  501 -0.00000000000E+00  0.00000000000E+00  0.11764826290E+03  0.11764826290E+03  0.00000000000E+00 0.  1.
          1   -1    0    0  501    0  0.00000000000E+00 -0.00000000000E+00 -0.32030150384E+03  0.32030150384E+03  0.00000000000E+00 0. -1.
         25    2    1    2    0    0 -0.70518773489E+02 -0.99057406833E+02 -0.22175555063E+03  0.28214977814E+03  0.12509079024E+03 0.  0.
          5    1    3    3  502    0 -0.72584920178E+02 -0.28094472753E+02 -0.18782155786E+03  0.20335260026E+03  0.41800000000E+01 0.  1.
         -5    1    3    3    0  502  0.20661466893E+01 -0.70962934080E+02 -0.33933992770E+02  0.78797177873E+02  0.41800000000E+01 0.  1.
        -11    1    1    2    0    0  0.26169131100E+02  0.65779200097E+02  0.55085843793E+02  0.89700483690E+02  0.00000000000E+00 0.  1.
         11    1    1    2    0    0  0.44349642389E+02  0.33278206737E+02 -0.35983534101E+02  0.66099504915E+02  0.00000000000E+00 0. -1.
</event>
<event>
 7    1  0.2394257E-009  0.1134554E+03  0.7561462E-02  0.1254302E+00
         -2   -1    0    0    0  501 -0.00000000000E+00  0.00000000000E+00  0.11207926835E+02  0.11207926835E+02  0.00000000000E+00 0.  1.
          2   -1    0    0  501    0  0.00000000000E+00 -0.00000000000E+00 -0.12514805356E+04  0.12514805356E+04  0.00000000000E+00 0. -1.
         25    2    1    2    0    0 -0.17449175422E+02  0.44650072357E+02 -0.72877540004E+03  0.74098585488E+03  0.12509336813E+03 0.  0.
          5    1    3    3  502    0 -0.49375816802E+02  0.70460101050E+02 -0.58835331714E+03  0.59462567664E+03  0.41800000000E+01 0.  1.
         -5    1    3    3    0  502  0.31926641379E+02 -0.25810028694E+02 -0.14042208290E+03  0.14636017825E+03  0.41800000000E+01 0.  1.
        -11    1    1    2    0    0  0.11583529533E+02 -0.71290686228E+02 -0.42214803022E+03  0.42828203269E+03  0.00000000000E+00 0.  1.
         11    1    1    2    0    0  0.58656458893E+01  0.26640613871E+02 -0.89349178455E+02  0.93420574820E+02  0.00000000000E+00 0. -1.
</event>
<event>
 7    1  0.2394257E-009  0.2493519E+03  0.7561462E-02  0.1113715E+00
         -1   -1    0    0    0  501 -0.00000000000E+00  0.00000000000E+00  0.19356283536E+03  0.19356283536E+03  0.00000000000E+00 0.  1.
          1   -1    0    0  501    0  0.00000000000E+00 -0.00000000000E+00 -0.38132798570E+03  0.38132798570E+03  0.00000000000E+00 0. -1.
         25    2    1    2    0    0  0.24645622940E+03  0.30760066654E+02 -0.95241812749E+02  0.29394757626E+03  0.12508924807E+03 0.  0.
          5    1    3    3  502    0  0.19959539265E+03  0.28019220359E+02 -0.16615220212E+02  0.20227934996E+03  0.41800000000E+01 0. -1.
         -5    1    3    3    0  502  0.46860836754E+02  0.27408462947E+01 -0.78626592537E+02  0.91668226304E+02  0.41800000000E+01 0. -1.
        -11    1    1    2    0    0 -0.11302113642E+03 -0.28358639632E+02 -0.90383808600E+02  0.14746939539E+03  0.00000000000E+00 0. -1.
         11    1    1    2    0    0 -0.13343509298E+03 -0.24014270217E+01 -0.21395289898E+01  0.13347384940E+03  0.00000000000E+00 0.  1.
</event>
<event>
 7    1  0.2394257E-009  0.1038980E+03  0.7561462E-02  0.1272306E+00
          1   -1    0    0  501    0  0.00000000000E+00  0.00000000000E+00  0.75162948259E+03  0.75162948259E+03  0.00000000000E+00 0. -1.
         -1   -1    0    0    0  501 -0.00000000000E+00 -0.00000000000E+00 -0.14933894189E+02  0.14933894189E+02  0.00000000000E+00 0.  1.
         25    2    1    2    0    0 -0.13282996152E+02 -0.14110427820E+02  0.39466060590E+03  0.41446449325E+03  0.12509308598E+03 0.  0.
          5    1    3    3  502    0 -0.10647569734E+02 -0.68825910794E+02  0.25541908379E+03  0.26477680696E+03  0.41800000000E+01 0. -1.
         -5    1    3    3    0  502 -0.26354264176E+01  0.54715482975E+02  0.13924152210E+03  0.14968768629E+03  0.41800000000E+01 0. -1.
        -11    1    1    2    0    0  0.12235061672E+02 -0.33397610252E+02  0.12781669421E+03  0.13267329959E+03  0.00000000000E+00 0.  1.
         11    1    1    2    0    0  0.10479344799E+01  0.47508038072E+02  0.21421828829E+03  0.21942558394E+03  0.00000000000E+00 0. -1.
</event>
<event>
 7    1  0.2394257E-009  0.1749916E+03  0.7561462E-02  0.1172740E+00
         -2   -1    0    0    0  501 -0.00000000000E+00  0.00000000000E+00  0.95036271309E+02  0.95036271309E+02  0.00000000000E+00 0. -1.
          2   -1    0    0  501    0  0.00000000000E+00 -0.00000000000E+00 -0.35286825772E+03  0.35286825772E+03  0.00000000000E+00 0.  1.
         25    2    1    2    0    0 -0.43826821603E+02 -0.14145473822E+03 -0.12792347806E+03  0.23225447335E+03  0.12508993123E+03 0.  0.
          5    1    3    3  502    0 -0.43518771491E+02 -0.79953134987E+01 -0.77861090945E+02  0.89652832600E+02  0.41800000000E+01 0.  1.
         -5    1    3    3    0  502 -0.30805011133E+00 -0.13345942472E+03 -0.50062387117E+02  0.14260164075E+03  0.41800000000E+01 0.  1.
        -11    1    1    2    0    0  0.70411841050E+02  0.91841023801E+02 -0.83653512834E+02  0.14279534734E+03  0.00000000000E+00 0. -1.
         11    1    1    2    0    0 -0.26585019447E+02  0.49613714415E+02 -0.46254995516E+02  0.72854708339E+02  0.00000000000E+00 0.  1.
</event>
<event>
 7    1  0.2394257E-009  0.9259546E+02  0.7561462E-02  0.1296685E+00
          1   -1    0    0  501    0  0.00000000000E+00  0.00000000000E+00  0.42462101233E+03  0.42462101233E+03  0.00000000000E+00 0. -1.
         -1   -1    0    0    0  501 -0.00000000000E+00 -0.00000000000E+00 -0.52277958649E+02  0.52277958649E+02  0.00000000000E+00 0.  1.
         25    2    1    2    0    0 -0.30788446571E+02 -0.47755016117E+02  0.66405526807E+02  0.15259801145E+03  0.12509192261E+03 0.  0.
          5    1    3    3  502    0 -0.29115431825E+02  0.22422761149E+02 -0.19313099479E+02  0.41724774408E+02  0.41800000000E+01 0. -1.
         -5    1    3    3    0  502 -0.16730147465E+01 -0.70177777265E+02  0.85718626285E+02  0.11087323704E+03  0.41800000000E+01 0. -1.
        -11    1    1    2    0    0  0.46141528204E+02  0.36863079918E+02  0.29812740026E+03  0.30392083521E+03  0.00000000000E+00 0. -1.
         11    1    1    2    0    0 -0.15353081632E+02  0.10891936198E+02  0.78101266186E+01  0.20380124326E+02  0.00000000000E+00 0.  1.
</event>
<event>
 7    1  0.2423593E-009  0.1035270E+03  0.7561462E-02  0.1273049E+00
          1   -1    0    0  501    0  0.00000000000E+00  0.00000000000E+00  0.28127735552E+03  0.28127735552E+03  0.00000000000E+00 0. -1.
         -1   -1    0    0    0  501 -0.00000000000E+00 -0.00000000000E+00 -0.66488634771E+02  0.66488634771E+02  0.00000000000E+00 0.  1.
         25    2    1    2    0    0 -0.13448101807E+02 -0.72583393394E+02  0.70356347009E+02  0.16139068265E+03  0.12509091271E+03 0.  0.
          5    1    3    3  502    0 -0.48508222090E+02 -0.79771857808E+02  0.81154782757E+02  0.12377466652E+03  0.41800000000E+01 0. -1.
         -5    1    3    3    0  502  0.35060120283E+02  0.71884644139E+01 -0.10798435747E+02  0.37616016130E+02  0.41800000000E+01 0. -1.
        -11    1    1    2    0    0 -0.28116286668E+01  0.48052473198E+02  0.14900955030E+03  0.15659116041E+03  0.00000000000E+00 0. -1.
         11    1    1    2    0    0  0.16259730473E+02  0.24530920196E+02 -0.45771765666E+01  0.29784147227E+02  0.00000000000E+00 0.  1.
</event>
<event>
 7    1  0.2394257E-009  0.1206788E+03  0.7561462E-02  0.1241981E+00
          2   -1    0    0  501    0  0.00000000000E+00  0.00000000000E+00  0.40957467376E+03  0.40957467376E+03  0.00000000000E+00 0.  1.
         -2   -1    0    0    0  501 -0.00000000000E+00 -0.00000000000E+00 -0.60178600665E+02  0.60178600665E+02  0.00000000000E+00 0. -1.
         25    2    1    2    0    0 -0.89505734698E+01 -0.11034656244E+03  0.18409005332E+03  0.24858117942E+03  0.12508788281E+03 0.  0.
          5    1    3    3  502    0 -0.22393614222E+02 -0.11299276981E+03  0.19768304860E+03  0.22883378267E+03  0.41800000000E+01 0.  1.
         -5    1    3    3    0  502  0.13443040752E+02  0.26462073739E+01 -0.13592995277E+02  0.19747396758E+02  0.41800000000E+01 0.  1.
        -11    1    1    2    0    0 -0.43404125268E+01  0.33401887202E+02  0.13208968583E+03  0.13631658135E+03  0.00000000000E+00 0.  1.
         11    1    1    2    0    0  0.13290985997E+02  0.76944675234E+02  0.33216333948E+02  0.84855513648E+02  0.00000000000E+00 0. -1.
</event>
<event>
 7    1  0.2394257E-009  0.7460773E+02  0.7561462E-02  0.1345090E+00
          1   -1    0    0  501    0  0.00000000000E+00  0.00000000000E+00  0.72493989969E+03  0.72493989969E+03  0.00000000000E+00 0. -1.
         -1   -1    0    0    0  501 -0.00000000000E+00 -0.00000000000E+00 -0.20489003537E+02  0.20489003537E+02  0.00000000000E+00 0.  1.
         25    2    1    2    0    0  0.33291327920E+02  0.43169484703E+02  0.35679590121E+03  0.38199810369E+03  0.12508924484E+03 0.  0.
          5    1    3    3  502    0  0.14294063126E+02  0.17962192815E+02 -0.44872421673E+00  0.23337402701E+02  0.41800000000E+01 0.  1.
         -5    1    3    3    0  502  0.18997264794E+02  0.25207291888E+02  0.35724462543E+03  0.35866070099E+03  0.41800000000E+01 0.  1.
        -11    1    1    2    0    0  0.14760310315E+02 -0.43556302510E+02  0.87242590491E+02  0.98621944032E+02  0.00000000000E+00 0.  1.
         11    1    1    2    0    0 -0.48051638235E+02  0.38681780732E+00  0.26041240444E+03  0.26480885550E+03  0.00000000000E+00 0. -1.
</event>
<event>
 7    1  0.2394257E-009  0.9996043E+02  0.7561462E-02  0.1280379E+00
          2   -1    0    0  501    0  0.00000000000E+00  0.00000000000E+00  0.10036003059E+04  0.10036003059E+04  0.00000000000E+00 0. -1.
         -2   -1    0    0    0  501 -0.00000000000E+00 -0.00000000000E+00 -0.15926000415E+02  0.15926000415E+02  0.00000000000E+00 0.  1.
         25    2    1    2    0    0  0.41633443951E+02 -0.55761366996E+01  0.75102407008E+03  0.76252805707E+03  0.12508975589E+03 0.  0.
          5    1    3    3  502    0 -0.10778158049E+02  0.42787580698E+02  0.48690704353E+03  0.48892012353E+03  0.41800000000E+01 0.  1.
         -5    1    3    3    0  502  0.52411602000E+02 -0.48363717398E+02  0.26411702655E+03  0.27360793354E+03  0.41800000000E+01 0.  1.
        -11    1    1    2    0    0  0.20932160451E+02  0.53058441000E+01  0.14026451726E+02  0.25749731470E+02  0.00000000000E+00 0.  1.
         11    1    1    2    0    0 -0.62565604403E+02  0.27029259961E+00  0.22262378370E+03  0.23124851780E+03  0.00000000000E+00 0. -1.
</event>
<event>
 7    1  0.2394257E-009  0.3128417E+03  0.7561462E-02  0.1078992E+00
          3   -1    0    0  501    0  0.00000000000E+00  0.00000000000E+00  0.29023705708E+03  0.29023705708E+03  0.00000000000E+00 0. -1.
         -3   -1    0    0    0  501 -0.00000000000E+00 -0.00000000000E+00 -0.37632280436E+03  0.37632280436E+03  0.00000000000E+00 0.  1.
         25    2    1    2    0    0  0.30883230596E+03  0.47688423956E+01  0.11969083251E+01  0.33324071519E+03  0.12509119315E+03 0.  0.
          5    1    3    3  502    0  0.18011990902E+03  0.16167503922E+02 -0.59487998072E+02  0.19042285609E+03  0.41800000000E+01 0.  1.
         -5    1    3    3    0  502  0.12871239695E+03 -0.11398661527E+02  0.60684906397E+02  0.14281785910E+03  0.41800000000E+01 0.  1.
        -11    1    1    2    0    0 -0.13394151350E+03  0.29839749808E+02 -0.70425786493E+02  0.15424179430E+03  0.00000000000E+00 0.  1.
         11    1    1    2    0    0 -0.17489079247E+03 -0.34608592204E+02 -0.16856869107E+02  0.17907735195E+03  0.00000000000E+00 0. -1.
</event>
<event>
 7    1  0.2394257E-009  0.8304121E+02  0.7561462E-02  0.1320636E+00
          2   -1    0    0  501    0  0.00000000000E+00  0.00000000000E+00  0.20283463396E+03  0.20283463396E+03  0.00000000000E+00 0. -1.
         -2   -1    0    0    0  501 -0.00000000000E+00 -0.00000000000E+00 -0.81990957529E+02  0.81990957529E+02  0.00000000000E+00 0.  1.
         25    2    1    2    0    0 -0.19259572664E+02  0.49400278651E+02  0.11417337201E+03  0.17746418011E+03  0.12508660070E+03 0.  0.
          5    1    3    3  502    0 -0.36383166703E+01  0.41419253053E+02 -0.16958418327E+02  0.45098250784E+02  0.41800000000E+01 0.  1.
         -5    1    3    3    0  502 -0.15621255993E+02  0.79810255987E+01  0.13113179034E+03  0.13236592933E+03  0.41800000000E+01 0.  1.
        -11    1    1    2    0    0 -0.15543206045E+02  0.21937915687E+02  0.77444108849E+01  0.27979265516E+02  0.00000000000E+00 0. -1.
         11    1    1    2    0    0  0.34802778708E+02 -0.71338194339E+02 -0.10741064657E+01  0.79382145864E+02  0.00000000000E+00 0.  1.
</event>
<event>
 7    1  0.2394257E-009  0.3087065E+03  0.7561462E-02  0.1080968E+00
          1   -1    0    0  501    0  0.00000000000E+00  0.00000000000E+00  0.15975718642E+04  0.15975718642E+04  0.00000000000E+00 0. -1.
         -1   -1    0    0    0  501 -0.00000000000E+00 -0.00000000000E+00 -0.68255592803E+02  0.68255592803E+02  0.00000000000E+00 0.  1.
         25    2    1    2    0    0 -0.24419150462E+03  0.17492680488E+03  0.10236851186E+04  0.10741544157E+04  0.12509040255E+03 0.  0.
          5    1    3    3  502    0 -0.14577127201E+02  0.56150663565E+02  0.10797675223E+03  0.12264518368E+03  0.41800000000E+01 0.  1.
         -5    1    3    3    0  502 -0.22961437742E+03  0.11877614131E+03  0.91570836634E+03  0.95150923204E+03  0.41800000000E+01 0.  1.
        -11    1    1    2    0    0  0.12318936014E+03 -0.96763334220E+02  0.20216874189E+03  0.25575566758E+03  0.00000000000E+00 0.  1.
         11    1    1    2    0    0  0.12100214448E+03 -0.78163470660E+02  0.30346241098E+03  0.33591737376E+03  0.00000000000E+00 0. -1.
</event>
<event>
 7    1  0.2394257E-009  0.1312153E+03  0.7561462E-02  0.1225664E+00
         -1   -1    0    0    0  501 -0.00000000000E+00  0.00000000000E+00  0.50670330194E+02  0.50670330194E+02  0.00000000000E+00 0.  1.
          1   -1    0    0  501    0  0.00000000000E+00 -0.00000000000E+00 -0.36723440459E+03  0.36723440459E+03  0.00000000000E+00 0. -1.
         25    2    1    2    0    0  0.75717528022E+02  0.25787011629E+02 -0.20153891899E+03  0.25032631598E+03  0.12508882678E+03 0.  0.
          5    1    3    3  502    0  0.10657419876E+03  0.26556785710E+02 -0.11844340824E+03  0.16158476433E+03  0.41800000000E+01 0. -1.
         -5    1    3    3    0  502 -0.30856670740E+02 -0.76977408061E+00 -0.83095510757E+02  0.88741551650E+02  0.41800000000E+01 0. -1.
        -11    1    1    2    0    0  0.13852004256E+02 -0.28576658583E+02 -0.36979037313E+02  0.48743744606E+02  0.00000000000E+00 0.  1.
         11    1    1    2    0    0 -0.89569532278E+02  0.27896469534E+01 -0.78046118088E+02  0.11883467420E+03  0.00000000000E+00 0. -1.
</event>
<event>
 7    1  0.2394257E-009  0.1214711E+03  0.7561462E-02  0.1240690E+00
          2   -1    0    0  501    0  0.00000000000E+00  0.00000000000E+00  0.41040771070E+03  0.41040771070E+03  0.00000000000E+00 0. -1.
         -2   -1    0    0    0  501 -0.00000000000E+00 -0.00000000000E+00 -0.54957005815E+02  0.54957005815E+02  0.00000000000E+00 0.  1.
         25    2    1    2    0    0 -0.66990141714E+02 -0.73025046516E+02  0.20650221097E+03  0.26098246193E+03  0.12509334831E+03 0.  0.
          5    1    3    3  502    0 -0.41319232322E+02 -0.62837174424E+02  0.21809809618E+03  0.23073803632E+03  0.41800000000E+01 0.  1.
         -5    1    3    3    0  502 -0.25670909392E+02 -0.10187872092E+02 -0.11595885203E+02  0.30244425609E+02  0.41800000000E+01 0.  1.
        -11    1    1    2    0    0 -0.15787475422E+01  0.71073850988E+02  0.69531427346E+02  0.99441460804E+02  0.00000000000E+00 0.  1.
         11    1    1    2    0    0  0.68568889256E+02  0.19511955283E+01  0.79417066566E+02  0.10494079378E+03  0.00000000000E+00 0. -1.
</event>
<event>
 7    1  0.2394257E-009  0.8885859E+02  0.7561462E-02  0.1305640E+00
         -1   -1    0    0    0  501 -0.00000000000E+00  0.00000000000E+00  0.52364559387E+02  0.52364559387E+02  0.00000000000E+00 0.  1.
          1   -1    0    0  501    0  0.00000000000E+00 -0.00000000000E+00 -0.28363135981E+03  0.28363135981E+03  0.00000000000E+00 0. -1.
         25    2    1    2    0    0  0.50999327351E+02  0.14324115285E+02 -0.15648517070E+03  0.20722415769E+03  0.12509249063E+03 0.  0.
          5    1    3    3  502    0  0.40049200005E+02  0.60264009974E+02 -0.13886966585E+03  0.15664592498E+03  0.41800000000E+01 0.  1.
         -5    1    3    3    0  502  0.10950127346E+02 -0.45939894688E+02 -0.17615504850E+02  0.50578232709E+02  0.41800000000E+01 0.  1.
        -11    1    1    2    0    0 -0.13925182827E+02 -0.15367505336E+02 -0.87220965489E+02  0.89652483278E+02  0.00000000000E+00 0.  1.
         11    1    1    2    0    0 -0.37074144524E+02  0.10433900510E+01  0.12439335767E+02  0.39119278231E+02  0.00000000000E+00 0. -1.
</event>
<event>
 7    1  0.2394257E-009  0.1816790E+03  0.7561462E-02  0.1166188E+00
         -3   -1    0    0    0  501 -0.00000000000E+00  0.00000000000E+00  0.10890901967E+03  0.10890901967E+03  0.00000000000E+00 0. -1.
          3   -1    0    0  501    0  0.00000000000E+00 -0.00000000000E+00 -0.42272000525E+03  0.42272000525E+03  0.00000000000E+00 0.  1.
         25    2    1    2    0    0 -0.15542174900E+03 -0.40485683484E+02 -0.27608592167E+03  0.34302351456E+03  0.12508670902E+03 0.  0.
          5    1    3    3  502    0  0.12678961692E+02 -0.30378856799E+02 -0.64807039853E+02  0.72808349964E+02  0.41800000000E+01 0.  1.
         -5    1    3    3    0  502 -0.16810071069E+03 -0.10106826686E+02 -0.21127888181E+03  0.27021516460E+03  0.41800000000E+01 0.  1.
        -11    1    1    2    0    0  0.18243635400E+02  0.11333655940E+02  0.26706390182E+02  0.34271172523E+02  0.00000000000E+00 0. -1.
         11    1    1    2    0    0  0.13717811360E+03  0.29152027545E+02 -0.64431454095E+02  0.15433433784E+03  0.00000000000E+00 0.  1.
</event>
<event>
 7    1  0.2394257E-009  0.1326198E+03  0.7561462E-02  0.1223619E+00
         -1   -1    0    0    0  501 -0.00000000000E+00  0.00000000000E+00  0.49238472035E+02  0.49238472035E+02  0.00000000000E+00 0.  1.
          1   -1    0    0  501    0  0.00000000000E+00 -0.00000000000E+00 -0.41059234326E+03  0.41059234326E+03  0.00000000000E+00 0. -1.
         25    2    1    2    0    0 -0.62149366344E+02 -0.67929470633E+02 -0.20073248190E+03  0.25380765835E+03  0.12509133235E+03 0.  0.
          5    1    3    3  502    0  0.29385723654E+02  0.11401039361E+02 -0.25569423171E+02  0.40801620733E+02  0.41800000000E+01 0. -1.
         -5    1    3    3    0  502 -0.91535089998E+02 -0.79330509994E+02 -0.17516305873E+03  0.21300603762E+03  0.41800000000E+01 0. -1.
        -11    1    1    2    0    0  0.27474207740E+02  0.72252699793E+02 -0.15122844634E+03  0.16983912300E+03  0.00000000000E+00 0. -1.
         11    1    1    2    0    0  0.34675158604E+02 -0.43232291603E+01 -0.93929429807E+01  0.36184033944E+02  0.00000000000E+00 0.  1.
</event>
<event>
 7    1  0.2394257E-009  0.1912314E+03  0.7561462E-02  0.1157355E+00
          2   -1    0    0  501    0  0.00000000000E+00  0.00000000000E+00  0.90177607944E+03  0.90177607944E+03  0.00000000000E+00 0. -1.
         -2   -1    0    0    0  501 -0.00000000000E+00 -0.00000000000E+00 -0.51841849970E+02  0.51841849970E+02  0.00000000000E+00 0.  1.
         25    2    1    2    0    0 -0.53411339647E+02  0.16483379829E+03  0.50394344329E+03  0.54738577096E+03  0.12509690626E+03 0.  0.
          5    1    3    3  502    0 -0.83222673581E+01  0.98284052867E+02  0.41854417866E+03  0.43002990253E+03  0.41800000000E+01 0. -1.
         -5    1    3    3    0  502 -0.45089072289E+02  0.66549745422E+02  0.85399264632E+02  0.11735586843E+03  0.41800000000E+01 0. -1.
        -11    1    1    2    0    0 -0.23974346714E+02 -0.98322982077E+02  0.23274385253E+03  0.25379495463E+03  0.00000000000E+00 0. -1.
         11    1    1    2    0    0  0.77385686361E+02 -0.66510816213E+02  0.11324693365E+03  0.15243720382E+03  0.00000000000E+00 0.  1.
</event>
<event>
 7    1  0.2394257E-009  0.9506894E+02  0.7561462E-02  0.1291021E+00
         -1   -1    0    0    0  501 -0.00000000000E+00  0.00000000000E+00  0.78598791040E+02  0.78598791040E+02  0.00000000000E+00 0.  1.
          1   -1    0    0  501    0  0.00000000000E+00 -0.00000000000E+00 -0.17712165635E+03  0.17712165635E+03  0.00000000000E+00 0. -1.
         25    2    1    2    0    0 -0.15968813257E+02  0.33427467808E+02 -0.90244808688E+02  0.15863099474E+03  0.12508904187E+03 0.  0.
          5    1    3    3  502    0 -0.64020719645E+02  0.28859075726E+02 -0.84332549403E+02  0.10982235694E+03  0.41800000000E+01 0. -1.
         -5    1    3    3    0  502  0.48051906388E+02  0.45683920819E+01 -0.59122592844E+01  0.48808637797E+02  0.41800000000E+01 0. -1.
        -11    1    1    2    0    0  0.26418861775E+02 -0.47176497847E+02  0.25020852681E+02  0.59578698169E+02  0.00000000000E+00 0.  1.
         11    1    1    2    0    0 -0.10450048519E+02  0.13749030039E+02 -0.33298909307E+02  0.37510754486E+02  0.00000000000E+00 0. -1.
</event>
<event>
 7    1  0.2394257E-009  0.1208887E+03  0.7561462E-02  0.1241638E+00
         -2   -1    0    0    0  501 -0.00000000000E+00  0.00000000000E+00  0.95719209379E+01  0.95719209379E+01  0.00000000000E+00 0.  1.
          2   -1    0    0  501    0  0.00000000000E+00 -0.00000000000E+00 -0.23774744441E+04  0.23774744441E+04  0.00000000000E+00 0. -1.
         25    2    1    2    0    0 -0.11076077176E+02  0.77064263019E+02 -0.18237470791E+04  0.18296888467E+04  0.12508511994E+03 0.  0.
          5    1    3    3  502    0 -0.30933721313E+01 -0.22497287862E+02 -0.94363211169E+03  0.94391457851E+03  0.41800000000E+01 0. -1.
         -5    1    3    3    0  502 -0.79827050449E+01  0.99561550881E+02 -0.88011496736E+03  0.88577426818E+03  0.41800000000E+01 0. -1.
        -11    1    1    2    0    0 -0.17363733435E+02  0.14635982751E+02 -0.70418742872E+02  0.73989935651E+02  0.00000000000E+00 0.  1.
         11    1    1    2    0    0  0.28439810611E+02 -0.91700245771E+02 -0.47373670119E+03  0.48336758265E+03  0.00000000000E+00 0. -1.
</event>
<event>
 7    1  0.2394257E-009  0.8834778E+02  0.7561462E-02  0.1306903E+00
          1   -1    0    0  501    0  0.00000000000E+00  0.00000000000E+00  0.55907870273E+02  0.55907870273E+02  0.00000000000E+00 0. -1.
         -1   -1    0    0    0  501 -0.00000000000E+00 -0.00000000000E+00 -0.26194361845E+03  0.26194361845E+03  0.00000000000E+00 0.  1.
         25    2    1    2    0    0 -0.45764132044E+02  0.25746841059E+02 -0.14924476794E+03  0.20169107627E+03  0.12509210159E+03 0.  0.
          5    1    3    3  502    0 -0.54472772955E+02  0.64324268066E+02 -0.58709529100E+02  0.10280649621E+03  0.41800000000E+01 0. -1.
         -5    1    3    3    0  502  0.87086409110E+01 -0.38577427007E+02 -0.90535238842E+02  0.98884580058E+02  0.41800000000E+01 0. -1.
        -11    1    1    2    0    0  0.15396960258E+02 -0.95172230071E+01  0.22993387442E+02  0.29263283907E+02  0.00000000000E+00 0. -1.
         11    1    1    2    0    0  0.30367171787E+02 -0.16229618051E+02 -0.79784367683E+02  0.86897128554E+02  0.00000000000E+00 0.  1.
</event>
<event>
 7    1  0.2478448E-009  0.1456589E+03  0.7561462E-02  0.1205911E+00
          2   -1    0    0  501    0  0.00000000000E+00  0.00000000000E+00  0.15001306853E+04  0.15001306853E+04  0.00000000000E+00 0. -1.
         -2   -1    0    0    0  501 -0.00000000000E+00 -0.00000000000E+00 -0.15595453560E+02  0.15595453560E+02  0.00000000000E+00 0.  1.
         25    2    1    2    0    0  0.28348979250E+02 -0.10396165827E+03  0.81792089585E+03  0.83441804460E+03  0.12508872960E+03 0.  0.
          5    1    3    3  502    0  0.19407603236E+01 -0.12109898658E+03  0.74625400664E+03  0.75602992396E+03  0.41800000000E+01 0. -1.
         -5    1    3    3    0  502  0.26408218926E+02  0.17137328303E+02  0.71666889212E+02  0.78388120640E+02  0.41800000000E+01 0. -1.
        -11    1    1    2    0    0  0.24813260189E+02  0.72432355919E+02  0.42945676114E+03  0.43622844217E+03  0.00000000000E+00 0.  1.
         11    1    1    2    0    0 -0.53162239439E+02  0.31529302356E+02  0.23715757475E+03  0.24507965209E+03  0.00000000000E+00 0. -1.
</event>
<event>
 7    1  0.2394257E-009  0.1141042E+03  0.7561462E-02  0.1253153E+00
          2   -1    0    0  501    0  0.00000000000E+00  0.00000000000E+00  0.31680199800E+03  0.31680199800E+03  0.00000000000E+00 0. -1.
         -2   -1    0    0    0  501 -0.00000000000E+00 -0.00000000000E+00 -0.77925040796E+02  0.77925040796E+02  0.00000000000E+00 0.  1.
         25    2    1    2    0    0 -0.87014360318E+02  0.68137478439E+02  0.15446136049E+03  0.22742249408E+03  0.12509382103E+03 0.  0.
          5    1    3    3  502    0 -0.67389468113E+02  0.56997473171E+02  0.19451485647E+02  0.90475881064E+02  0.41800000000E+01 0.  1.
         -5    1    3    3    0  502 -0.19624892205E+02  0.11140005268E+02  0.13500987484E+03  0.13694661301E+03  0.41800000000E+01 0.  1.
        -11    1    1    2    0    0  0.89043914918E+01 -0.27384846123E+02 -0.16622883534E+02  0.33249635216E+02  0.00000000000E+00 0.  1.
         11    1    1    2    0    0  0.78109968826E+02 -0.40752632316E+02  0.10103848025E+03  0.13405490951E+03  0.00000000000E+00 0. -1.
</event>
<event>
 7    1  0.2394257E-009  0.8208626E+02  0.7561462E-02  0.1323233E+00
         -2   -1    0    0    0  501 -0.00000000000E+00  0.00000000000E+00  0.24068050660E+02  0.24068050660E+02  0.00000000000E+00 0.  1.
          2   -1    0    0  501    0  0.00000000000E+00 -0.00000000000E+00 -0.61916166867E+03  0.61916166867E+03  0.00000000000E+00 0. -1.
         25    2    1    2    0    0 -0.50597724966E+02  0.17123653376E+02 -0.33731377707E+03  0.36370921887E+03  0.12510180818E+03 0.  0.
          5    1    3    3  502    0  0.13167686862E+02  0.14526956652E+02  0.34180588339E+00  0.20050179005E+02  0.41800000000E+01 0.  1.
         -5    1    3    3    0  502 -0.63765411828E+02  0.25966967243E+01 -0.33765558296E+03  0.34365903987E+03  0.41800000000E+01 0.  1.
        -11    1    1    2    0    0  0.37719339826E+02  0.18701235731E+02 -0.22612203390E+03  0.23000795427E+03  0.00000000000E+00 0. -1.
         11    1    1    2    0    0  0.12878385140E+02 -0.35824889107E+02 -0.31657807040E+02  0.49512546187E+02  0.00000000000E+00 0.  1.
</event>
<event>
 7    1  0.2394257E-009  0.1473336E+03  0.7561462E-02  0.1203788E+00
          2   -1    0    0  501    0  0.00000000000E+00  0.00000000000E+00  0.23310233117E+03  0.23310233117E+03  0.00000000000E+00 0. -1.
         -2   -1    0    0    0  501 -0.00000000000E+00 -0.00000000000E+00 -0.12373462808E+03  0.12373462808E+03  0.00000000000E+00 0.  1.
         25    2    1    2    0    0 -0.12316248797E+03 -0.28274579151E+02  0.96848004313E+02  0.20247069846E+03  0.12508556082E+03 0.  0.
          5    1    3    3  502    0 -0.80856077588E+02 -0.71141224722E+02  0.28920028455E+02  0.11159130604E+03  0.41800000000E+01 0.  1.
         -5    1    3    3    0  502 -0.42306410383E+02  0.42866645571E+02  0.67927975858E+02  0.90879392418E+02  0.41800000000E+01 0.  1.
        -11    1    1    2    0    0  0.80470281854E+02  0.21465159683E+02 -0.34808244656E+02  0.90265349044E+02  0.00000000000E+00 0.  1.
         11    1    1    2    0    0  0.42692206117E+02  0.68094194682E+01  0.47327943435E+02  0.64100911744E+02  0.00000000000E+00 0. -1.
</event>
<event>
 7    1  0.2394257E-009  0.7379386E+02  0.7561462E-02  0.1347647E+00
          2   -1    0    0  501    0  0.00000000000E+00  0.00000000000E+00  0.41035863001E+03  0.41035863001E+03  0.00000000000E+00 0. -1.
         -2   -1    0    0    0  501 -0.00000000000E+00 -0.00000000000E+00 -0.33328770651E+02  0.33328770651E+02  0.00000000000E+00 0.  1.
         25    2    1    2    0    0 -0.29838731943E+02  0.25430920174E+02  0.17453470332E+03  0.21828383587E+03  0.12509351987E+03 0.  0.
          5    1    3    3  502    0 -0.31280407824E+02 -0.10147318958E+00  0.18691877449E+03  0.18956417085E+03  0.41800000000E+01 0. -1.
         -5    1    3    3    0  502  0.14416758808E+01  0.25532393364E+02 -0.12384071171E+02  0.28719665022E+02  0.41800000000E+01 0. -1.
        -11    1    1    2    0    0  0.57611373013E+02 -0.10417170808E+02  0.81443733300E+02  0.10030288850E+03  0.00000000000E+00 0.  1.
         11    1    1    2    0    0 -0.27772641070E+02 -0.15013749366E+02  0.12105142274E+03  0.12510067629E+03  0.00000000000E+00 0. -1.
</event>
<event>
 7    1  0.2394257E-009  0.1626490E+03  0.7561462E-02  0.1185738E+00
          2   -1    0    0  501    0  0.00000000000E+00  0.00000000000E+00  0.67050059751E+03  0.67050059751E+03  0.00000000000E+00 0.  1.
         -2   -1    0    0    0  501 -0.00000000000E+00 -0.00000000000E+00 -0.40993801623E+02  0.40993801623E+02  0.00000000000E+00 0. -1.
         25    2    1    2    0    0  0.12527995009E+03 -0.34453838676E+01  0.34323487052E+03  0.38621907942E+03  0.12509222358E+03 0.  0.
          5    1    3    3  502    0  0.60812442383E+02  0.57302421673E+02  0.12254854001E+03  0.14838240373E+03  0.41800000000E+01 0.  1.
         -5    1    3    3    0  502  0.64467507705E+02 -0.60747805540E+02  0.22068633051E+03  0.23783667568E+03  0.41800000000E+01 0.  1.
        -11    1    1    2    0    0 -0.71141229529E+02 -0.41704173666E+02  0.13170062134E+03  0.15538779329E+03  0.00000000000E+00 0. -1.
         11    1    1    2    0    0 -0.54138720559E+02  0.45149557534E+02  0.15457130402E+03  0.16988752643E+03  0.00000000000E+00 0.  1.
</event>
<event>
 7    1  0.2394257E-009  0.1202144E+03  0.7561462E-02  0.1242744E+00
          2   -1    0    0  501    0  0.00000000000E+00  0.00000000000E+00  0.10791743889E+04  0.10791743889E+04  0.00000000000E+00 0. -1.
         -2   -1    0    0    0  501 -0.00000000000E+00 -0.00000000000E+00 -0.16055543959E+02  0.16055543959E+02  0.00000000000E+00 0.  1.
         25    2    1    2    0    0  0.64412878868E+02 -0.39928840110E+02  0.57244054037E+03  0.59082990563E+03  0.12509386032E+03 0.  0.
          5    1    3    3  502    0  0.31139976993E+02  0.31763690083E+02  0.38190337438E+03  0.38450785419E+03  0.41800000000E+01 0.  1.
         -5    1    3    3    0  502  0.33272901874E+02 -0.71692530193E+02  0.19053716599E+03  0.20632205144E+03  0.41800000000E+01 0.  1.
        -11    1    1    2    0    0 -0.25769788424E+02 -0.28247854627E+02  0.14583838209E+03  0.15076755943E+03  0.00000000000E+00 0. -1.
         11    1    1    2    0    0 -0.38643090444E+02  0.68176694737E+02  0.34483992246E+03  0.35363246778E+03  0.00000000000E+00 0.  1.
</event>
<event>
 7    1  0.2394257E-009  0.1163282E+03  0.7561462E-02  0.1249280E+00
         -2   -1    0    0    0  501 -0.00000000000E+00  0.00000000000E+00  0.42607451967E+03  0.42607451967E+03  0.00000000000E+00 0.  1.
          2   -1    0    0  501    0  0.00000000000E+00 -0.00000000000E+00 -0.35112535107E+02  0.35112535107E+02  0.00000000000E+00 0. -1.
         25    2    1    2    0    0  0.42847989764E+02  0.35978373052E+02  0.23383979357E+03  0.27103079716E+03  0.12508497272E+03 0.  0.
          5    1    3    3  502    0 -0.10273028221E+02 -0.41073722252E+02  0.87115802489E+02  0.96949580772E+02  0.41800000000E+01 0.  1.
         -5    1    3    3    0  502  0.53121017985E+02  0.77052095304E+02  0.14672399108E+03  0.17408121639E+03  0.41800000000E+01 0.  1.
        -11    1    1    2    0    0 -0.58310980863E+02 -0.11494864892E+01  0.51270432176E+02  0.77654034176E+02  0.00000000000E+00 0.  1.
         11    1    1    2    0    0  0.15462991099E+02 -0.34828886562E+02  0.10585175883E+03  0.11250222344E+03  0.00000000000E+00 0. -1.
</event>
<event>
 7    1  0.2394257E-009  0.1080282E+03  0.7561462E-02  0.1264265E+00
          2   -1    0    0  501    0  0.00000000000E+00  0.00000000000E+00  0.29424853745E+03  0.29424853745E+03  0.00000000000E+00 0. -1.
         -2   -1    0    0    0  501 -0.00000000000E+00 -0.00000000000E+00 -0.49837009348E+02  0.49837009348E+02  0.00000000000E+00 0.  1.
         25    2    1    2    0    0  0.24336349798E+02  0.39558736482E+02  0.17328531555E+03  0.21870541068E+03  0.12508838685E+03 0.  0.
          5    1    3    3  502    0 -0.28686111625E+02 -0.27112884959E+02  0.22914769851E+02  0.45831873279E+02  0.41800000000E+01 0. -1.
         -5    1    3    3    0  502  0.53022461424E+02  0.66671621441E+02  0.15037054570E+03  0.17287353740E+03  0.41800000000E+01 0. -1.
        -11    1    1    2    0    0  0.19621733194E+02 -0.42714219876E+02  0.69321378940E+01  0.47513908795E+02  0.00000000000E+00 0.  1.
         11    1    1    2    0    0 -0.43958082993E+02  0.31554833940E+01  0.64194074658E+02  0.77866227320E+02  0.00000000000E+00 0. -1.
</event>
<event>
 7    1  0.2394257E-009  0.6409076E+02  0.7561462E-02  0.1381425E+00
          2   -1    0    0  501    0  0.00000000000E+00  0.00000000000E+00  0.30227760762E+03  0.30227760762E+03  0.00000000000E+00 0. -1.
         -2   -1    0    0    0  501 -0.00000000000E+00 -0.00000000000E+00 -0.40259332169E+02  0.40259332169E+02  0.00000000000E+00 0.  1.
         25    2    1    2    0    0  0.12139806007E+02  0.14756627172E+01  0.12184889622E+03  0.17505927141E+03  0.12509613313E+03 0.  0.
          5    1    3    3  502    0 -0.18807394339E+02 -0.84409959646E+00 -0.21179002212E+02  0.28643552864E+02  0.41800000000E+01 0. -1.
         -5    1    3    3    0  502  0.30947200346E+02  0.23197623137E+01  0.14302789843E+03  0.14641571854E+03  0.41800000000E+01 0. -1.
        -11    1    1    2    0    0 -0.44158275956E+02 -0.80761821411E+01  0.33785384697E+02  0.56183896915E+02  0.00000000000E+00 0.  1.
         11    1    1    2    0    0  0.32018469949E+02  0.66005194239E+01  0.10638399453E+03  0.11129377147E+03  0.00000000000E+00 0. -1.
</event>
<event>
 7    1  0.2394257E-009  0.2685729E+03  0.7561462E-02  0.1102099E+00
          2   -1    0    0  501    0  0.00000000000E+00  0.00000000000E+00  0.31052714045E+04  0.31052714045E+04  0.00000000000E+00 0. -1.
         -2   -1    0    0    0  501 -0.00000000000E+00 -0.00000000000E+00 -0.24581379445E+02  0.24581379445E+02  0.00000000000E+00 0.  1.
         25    2    1    2    0    0  0.10975598948E+03 -0.22873923622E+03  0.15434803560E+04  0.15691868612E+04  0.12509108922E+03 0.  0.
          5    1    3    3  502    0 -0.70988074027E+01 -0.70127723872E+02  0.21829425168E+03  0.22943004040E+03  0.41800000000E+01 0.  1.
         -5    1    3    3    0  502  0.11685479688E+03 -0.15861151235E+03  0.13251861043E+04  0.13397568208E+04  0.41800000000E+01 0.  1.
        -11    1    1    2    0    0 -0.63026275564E+02  0.20979654393E+03  0.12343319114E+04  0.12536196268E+04  0.00000000000E+00 0. -1.
         11    1    1    2    0    0 -0.46729713917E+02  0.18942692294E+02  0.30287775765E+03  0.30704629591E+03  0.00000000000E+00 0.  1.
</event>
<event>
 7    1  0.2394257E-009  0.1067295E+03  0.7561462E-02  0.1266749E+00
          3   -1    0    0  501    0  0.00000000000E+00  0.00000000000E+00  0.16831137998E+03  0.16831137998E+03  0.00000000000E+00 0. -1.
         -3   -1    0    0    0  501 -0.00000000000E+00 -0.00000000000E+00 -0.78840319391E+02  0.78840319391E+02  0.00000000000E+00 0.  1.
         25    2    1    2    0    0  0.72331588098E+01 -0.28015885562E+02  0.80681949629E+02  0.15164110813E+03  0.12509292645E+03 0.  0.
          5    1    3    3  502    0 -0.44002891231E+02  0.20643408060E+02  0.66839209684E+01  0.49239739363E+02  0.41800000000E+01 0. -1.
         -5    1    3    3    0  502  0.51236050041E+02 -0.48659293622E+02  0.73998028661E+02  0.10240136877E+03  0.41800000000E+01 0. -1.
        -11    1    1    2    0    0 -0.48246991820E+02  0.10983221342E+02  0.12221058622E+02  0.50968202288E+02  0.00000000000E+00 0.  1.
         11    1    1    2    0    0  0.41013833010E+02  0.17032664220E+02 -0.34319476652E+01  0.44542388950E+02  0.00000000000E+00 0. -1.
</event>
<event>
 7    1  0.2394257E-009  0.1411049E+03  0.7561462E-02  0.1211850E+00
         -3   -1    0    0    0  501 -0.00000000000E+00  0.00000000000E+00  0.11729004960E+03  0.11729004960E+03  0.00000000000E+00 0.  1.
          3   -1    0    0  501    0  0.00000000000E+00 -0.00000000000E+00 -0.31941007379E+03  0.31941007379E+03  0.00000000000E+00 0. -1.
         25    2    1    2    0    0  0.81340996826E+02  0.86648663174E+02  0.15342211839E+02  0.17322667076E+03  0.12509095653E+03 0.  0.
          5    1    3    3  502    0 -0.17227884207E+02  0.36244358182E+02 -0.33219447215E+02  0.52263348223E+02  0.41800000000E+01 0.  1.
         -5    1    3    3    0  502  0.98568881033E+02  0.50404304992E+02  0.48561659054E+02  0.12096332254E+03  0.41800000000E+01 0.  1.
        -11    1    1    2    0    0 -0.46292617067E+02 -0.10823392440E+02 -0.25107699898E+02  0.53763824390E+02  0.00000000000E+00 0.  1.
         11    1    1    2    0    0 -0.35048379759E+02 -0.75825270734E+02 -0.19235453613E+03  0.20970962824E+03  0.00000000000E+00 0. -1.
</event>
<event>
 7    1  0.2394257E-009  0.1055926E+03  0.7561462E-02  0.1268956E+00
          2   -1    0    0  501    0  0.00000000000E+00  0.00000000000E+00  0.12127606034E+03  0.12127606034E+03  0.00000000000E+00 0.  1.
         -2   -1    0    0    0  501 -0.00000000000E+00 -0.00000000000E+00 -0.14265647678E+03  0.14265647678E+03  0.00000000000E+00 0. -1.
         25    2    1    2    0    0 -0.19534495380E+02  0.64255718203E+02  0.20608010583E+02  0.14346220971E+03  0.12508525765E+03 0.  0.
          5    1    3    3  502    0 -0.50863545094E+02 -0.59002306545E+01 -0.21563296352E+02  0.55716793616E+02  0.41800000000E+01 0. -1.
         -5    1    3    3    0  502  0.31329049714E+02  0.70155948858E+02  0.42171306936E+02  0.87745416090E+02  0.41800000000E+01 0. -1.
        -11    1    1    2    0    0  0.19241236936E+02 -0.64523141685E+00 -0.52570651893E+02  0.55984953004E+02  0.00000000000E+00 0. -1.
         11    1    1    2    0    0  0.29325844391E+00 -0.63610486786E+02  0.10582224872E+02  0.64485374411E+02  0.00000000000E+00 0.  1.
</event>
<event>
 7    1  0.2394257E-009  0.1013000E+03  0.7561462E-02  0.1277586E+00
          1   -1    0    0  501    0  0.00000000000E+00  0.00000000000E+00  0.53808836787E+02  0.53808836787E+02  0.00000000000E+00 0. -1.
         -1   -1    0    0    0  501 -0.00000000000E+00 -0.00000000000E+00 -0.26162476535E+03  0.26162476535E+03  0.00000000000E+00 0.  1.
         25    2    1    2    0    0 -0.34883891911E+02  0.29018126901E+02 -0.12900073293E+03  0.18532626920E+03  0.12508277001E+03 0.  0.
          5    1    3    3  502    0 -0.72887274701E+02  0.48048934366E+02 -0.67402384195E+02  0.11037123132E+03  0.41800000000E+01 0.  1.
         -5    1    3    3    0  502  0.38003382790E+02 -0.19030807465E+02 -0.61598348740E+02  0.74955037881E+02  0.41800000000E+01 0.  1.
        -11    1    1    2    0    0 -0.15630658482E+02 -0.97858484915E+01 -0.73519066812E+02  0.75796658899E+02  0.00000000000E+00 0.  1.
         11    1    1    2    0    0  0.50514550393E+02 -0.19232278409E+02 -0.52961288147E+01  0.54310674040E+02  0.00000000000E+00 0. -1.
</event>
<event>
 7    1  0.2394257E-009  0.1979894E+03  0.7561462E-02  0.1151447E+00
          2   -1    0    0  501    0  0.00000000000E+00  0.00000000000E+00  0.96106879544E+03  0.96106879544E+03  0.00000000000E+00 0. -1.
         -2   -1    0    0    0  501 -0.00000000000E+00 -0.00000000000E+00 -0.44625778226E+02  0.44625778226E+02  0.00000000000E+00 0.  1.
         25    2    1    2    0    0  0.75739764806E+02  0.15585355461E+03  0.43848717255E+03  0.48779612675E+03  0.12508884171E+03 0.  0.
          5    1    3    3  502    0  0.95150450346E+02  0.15488169572E+03  0.42864536672E+03  0.46561386435E+03  0.41800000000E+01 0.  1.
         -5    1    3    3    0  502 -0.19410685540E+02  0.97185889800E+00  0.98418058304E+01  0.22182262392E+02  0.41800000000E+01 0.  1.
        -11    1    1    2    0    0 -0.58630360789E+02 -0.27449532914E+02  0.21871504450E+03  0.22809486349E+03  0.00000000000E+00 0. -1.
         11    1    1    2    0    0 -0.17109404016E+02 -0.12840402170E+03  0.25924080017E+03  0.28980358343E+03  0.00000000000E+00 0.  1.
</event>
<event>
 7    1  0.2394257E-009  0.1369049E+03  0.7561462E-02  0.1217555E+00
          3   -1    0    0  501    0  0.00000000000E+00  0.00000000000E+00  0.88671767588E+03  0.88671767588E+03  0.00000000000E+00 0. -1.
         -3   -1    0    0    0  501 -0.00000000000E+00 -0.00000000000E+00 -0.45335101302E+02  0.45335101302E+02  0.00000000000E+00 0.  1.
         25    2    1    2    0    0 -0.10087037130E+03  0.87380244613E+02  0.68145912767E+03  0.70558066145E+03  0.12508952063E+03 0.  0.
          5    1    3    3  502    0 -0.19621121288E+02  0.19501850631E+02  0.45172078968E+03  0.45258640590E+03  0.41800000000E+01 0. -1.
         -5    1    3    3    0  502 -0.81249250017E+02  0.67878393981E+02  0.22973833799E+03  0.25299425555E+03  0.41800000000E+01 0. -1.
        -11    1    1    2    0    0  0.91538810543E+02 -0.56393521127E+02  0.63737587468E+02  0.12498825192E+03  0.00000000000E+00 0.  1.
         11    1    1    2    0    0  0.93315607614E+01 -0.30986723486E+02  0.96185859438E+02  0.10148386381E+03  0.00000000000E+00 0. -1.
</event>
<event>
 7    1  0.2517399E-009  0.1341454E+03  0.7561462E-02  0.1221431E+00
         -2   -1    0    0    0  501 -0.00000000000E+00  0.00000000000E+00  0.17292098011E+02  0.17292098011E+02  0.00000000000E+00 0.  1.
          2   -1    0    0  501    0  0.00000000000E+00 -0.00000000000E+00 -0.11796929102E+04  0.11796929102E+04  0.00000000000E+00 0. -1.
         25    2    1    2    0    0 -0.33542303884E+02  0.84171511755E+02 -0.70683467512E+03  0.72351349845E+03  0.12508635000E+03 0.  0.
          5    1    3    3  502    0 -0.34289593974E+02  0.11665558531E+03 -0.56287330986E+03  0.57587163257E+03  0.41800000000E+01 0.  1.
         -5    1    3    3    0  502  0.74729009037E+00 -0.32484073551E+02 -0.14396136525E+03  0.14764186589E+03  0.41800000000E+01 0.  1.
        -11    1    1    2    0    0  0.41400534582E+02 -0.14669012066E+02 -0.78315409814E+02  0.89791355892E+02  0.00000000000E+00 0.  1.
         11    1    1    2    0    0 -0.78582306979E+01 -0.69502499689E+02 -0.37725072726E+03  0.38368015386E+03  0.00000000000E+00 0. -1.
</event>
<event>
 7    1  0.2394257E-009  0.1344601E+03  0.7561462E-02  0.1220984E+00
         -4   -1    0    0    0  501 -0.00000000000E+00  0.00000000000E+00  0.12132052966E+03  0.12132052966E+03  0.00000000000E+00 0.  1.
          4   -1    0    0  501    0  0.00000000000E+00 -0.00000000000E+00 -0.16040174983E+03  0.16040174983E+03  0.00000000000E+00 0. -1.
         25    2    1    2    0    0  0.73100309151E+02  0.44241811711E+02  0.12368488692E+01  0.15149503502E+03  0.12509285647E+03 0.  0.
          5    1    3    3  502    0  0.70625657230E+02 -0.30021387487E+02 -0.33843785875E+01  0.76929796465E+02  0.41800000000E+01 0. -1.
         -5    1    3    3    0  502  0.24746519216E+01  0.74263199199E+02  0.46212274567E+01  0.74565238554E+02  0.41800000000E+01 0. -1.
        -11    1    1    2    0    0 -0.32617792501E+02  0.22470501293E+02  0.51035943848E+01  0.39936080073E+02  0.00000000000E+00 0. -1.
         11    1    1    2    0    0 -0.40482516650E+02 -0.66712313004E+02 -0.45421663426E+02  0.90291164402E+02  0.00000000000E+00 0.  1.
</event>
<event>
 7    1  0.2394257E-009  0.9442130E+02  0.7561462E-02  0.1292485E+00
          2   -1    0    0  501    0  0.00000000000E+00  0.00000000000E+00  0.20831901850E+03  0.20831901850E+03  0.00000000000E+00 0. -1.
         -2   -1    0    0    0  501 -0.00000000000E+00 -0.00000000000E+00 -0.67205138312E+02  0.67205138312E+02  0.00000000000E+00 0.  1.
         25    2    1    2    0    0 -0.27154727268E+02 -0.35635576728E+02  0.11200749980E+03  0.17378288711E+03  0.12509012071E+03 0.  0.
          5    1    3    3  502    0  0.17427129346E+02  0.19478223705E+02 -0.13399385597E+02  0.29666849686E+02  0.41800000000E+01 0. -1.
         -5    1    3    3    0  502 -0.44581856614E+02 -0.55113800433E+02  0.12540688540E+03  0.14411603743E+03  0.41800000000E+01 0. -1.
        -11    1    1    2    0    0  0.53942874113E+02  0.11176355156E+02 -0.22920581167E+00  0.55088992707E+02  0.00000000000E+00 0.  1.
         11    1    1    2    0    0 -0.26788146845E+02  0.24459221573E+02  0.29335586194E+02  0.46652276993E+02  0.00000000000E+00 0. -1.
</event>
<event>
 7    1  0.2394257E-009  0.9979228E+02  0.7561462E-02  0.1280733E+00
         -2   -1    0    0    0  501 -0.00000000000E+00  0.00000000000E+00  0.68272705861E+02  0.68272705861E+02  0.00000000000E+00 0.  1.
          2   -1    0    0  501    0  0.00000000000E+00 -0.00000000000E+00 -0.19153743137E+03  0.19153743137E+03  0.00000000000E+00 0. -1.
         25    2    1    2    0    0  0.37562160902E+02 -0.14695549085E+02 -0.12096456915E+03  0.17862297423E+03  0.12508742877E+03 0.  0.
          5    1    3    3  502    0 -0.36343440330E+01  0.46426586693E+02 -0.83817508532E+02  0.95976473914E+02  0.41800000000E+01 0.  1.
         -5    1    3    3    0  502  0.41196504935E+02 -0.61122135778E+02 -0.37147060622E+02  0.82646500312E+02  0.41800000000E+01 0.  1.
        -11    1    1    2    0    0 -0.35584677818E+02  0.40046891833E+02 -0.10251498388E+02  0.54544624484E+02  0.00000000000E+00 0.  1.
         11    1    1    2    0    0 -0.19774830833E+01 -0.25351342748E+02  0.79513420360E+01  0.26642538518E+02  0.00000000000E+00 0. -1.
</event>
<event>
 7    1  0.2394257E-009  0.1307958E+03  0.7561462E-02  0.1226280E+00
         -2   -1    0    0    0  501 -0.00000000000E+00  0.00000000000E+00  0.58007514155E+02  0.58007514155E+02  0.00000000000E+00 0.  1.
          2   -1    0    0  501    0  0.00000000000E+00 -0.00000000000E+00 -0.30357486530E+03  0.30357486530E+03  0.00000000000E+00 0. -1.
         25    2    1    2    0    0 -0.19039456775E+02 -0.70806279976E+02 -0.16262975215E+03  0.21788022913E+03  0.12508927917E+03 0.  0.
          5    1    3    3  502    0 -0.62416673759E+02 -0.78396156633E+02 -0.12068774774E+03  0.15692292182E+03  0.41800000000E+01 0.  1.
         -5    1    3    3    0  502  0.43377216984E+02  0.75898766567E+01 -0.41942004414E+02  0.60957307316E+02  0.41800000000E+01 0.  1.
        -11    1    1    2    0    0 -0.78549040951E+01  0.85874946727E+02 -0.65457987963E+02  0.10826335567E+03  0.00000000000E+00 0.  1.
         11    1    1    2    0    0  0.26894360871E+02 -0.15068666751E+02 -0.17479611032E+02  0.35438794648E+02  0.00000000000E+00 0. -1.
</event>
<event>
 7    1  0.2394257E-009  0.1227209E+03  0.7561462E-02  0.1238675E+00
         -2   -1    0    0    0  501 -0.00000000000E+00  0.00000000000E+00  0.41001357147E+02  0.41001357147E+02  0.00000000000E+00 0.  1.
          2   -1    0    0  501    0  0.00000000000E+00 -0.00000000000E+00 -0.38093767658E+03  0.38093767658E+03  0.00000000000E+00 0. -1.
         25    2    1    2    0    0  0.61475280104E+02  0.10796944847E+02 -0.18019423611E+03  0.22806852009E+03  0.12509797380E+03 0.  0.
          5    1    3    3  502    0 -0.19526299930E+02  0.43958835712E+02 -0.91100617037E+02  0.10310407582E+03  0.41800000000E+01 0.  1.
         -5    1    3    3    0  502  0.81001580034E+02 -0.33161890865E+02 -0.89093619071E+02  0.12496444427E+03  0.41800000000E+01 0.  1.
        -11    1    1    2    0    0 -0.26902263633E+02 -0.50297214762E+02 -0.75753769759E+02  0.94827080700E+02  0.00000000000E+00 0. -1.
         11    1    1    2    0    0 -0.34573016471E+02  0.39500269915E+02 -0.83988313565E+02  0.99043432931E+02  0.00000000000E+00 0.  1.
</event>
<event>
 7    1  0.2394257E-009  0.8320403E+02  0.7561462E-02  0.1320197E+00
          2   -1    0    0  501    0  0.00000000000E+00  0.00000000000E+00  0.41388185060E+03  0.41388185060E+03  0.00000000000E+00 0. -1.
         -2   -1    0    0    0  501 -0.00000000000E+00 -0.00000000000E+00 -0.33210537945E+02  0.33210537945E+02  0.00000000000E+00 0.  1.
         25    2    1    2    0    0  0.33091169530E+02  0.18728788830E+02  0.17186611877E+03  0.21593938085E+03  0.12508421319E+03 0.  0.
          5    1    3    3  502    0 -0.48033450307E+01 -0.38656453964E+02  0.10619479587E+02  0.40591123454E+02  0.41800000000E+01 0.  1.
         -5    1    3    3    0  502  0.37894514561E+02  0.57385242793E+02  0.16124663918E+03  0.17534825739E+03  0.41800000000E+01 0.  1.
        -11    1    1    2    0    0 -0.35940346025E+02  0.33293433434E+01  0.20552581717E+03  0.20867116362E+03  0.00000000000E+00 0. -1.
         11    1    1    2    0    0  0.28491764952E+01 -0.22058132173E+02  0.32793767123E+01  0.22481844081E+02  0.00000000000E+00 0.  1.
</event>
<event>
 7    1  0.3226165E-009  0.1072506E+03  0.7561462E-02  0.1265748E+00
         -2   -1    0    0    0  501 -0.00000000000E+00  0.00000000000E+00  0.21916839611E+02  0.21916839611E+02  0.00000000000E+00 0.  1.
          2   -1    0    0  501    0  0.00000000000E+00 -0.00000000000E+00 -0.83726606310E+03  0.83726606310E+03  0.00000000000E+00 0. -1.
         25    2    1    2    0    0  0.57492837335E+02  0.26128317712E+02 -0.60704219793E+03  0.62300561535E+03  0.12509057262E+03 0.  0.
          5    1    3    3  502    0 -0.10204112205E+02 -0.22203586266E+02 -0.25627602807E+02  0.35656269780E+02  0.41800000000E+01 0. -1.
         -5    1    3    3    0  502  0.67696949539E+02  0.48331903978E+02 -0.58141459512E+03  0.58734934557E+03  0.41800000000E+01 0. -1.
        -11    1    1    2    0    0  0.51744105842E+01 -0.41564375483E+02 -0.50038048304E+02  0.65254717165E+02  0.00000000000E+00 0.  1.
         11    1    1    2    0    0 -0.62667247919E+02  0.15436057772E+02 -0.15826897726E+03  0.17092257020E+03  0.00000000000E+00 0. -1.
</event>
<event>
 7    1  0.2394257E-009  0.1498012E+03  0.7561462E-02  0.1200718E+00
         -1   -1    0    0    0  501 -0.00000000000E+00  0.00000000000E+00  0.77310996357E+02  0.77310996357E+02  0.00000000000E+00 0.  1.
          1   -1    0    0  501    0  0.00000000000E+00 -0.00000000000E+00 -0.39930364234E+03  0.39930364234E+03  0.00000000000E+00 0. -1.
         25    2    1    2    0    0 -0.12044527731E+03 -0.58967154436E+02 -0.20628812159E+03  0.27601868126E+03  0.12508930077E+03 0.  0.
          5    1    3    3  502    0 -0.44856135960E+02  0.25640881622E+02 -0.15672392603E+02  0.54153707477E+02  0.41800000000E+01 0.  1.
         -5    1    3    3    0  502 -0.75589141350E+02 -0.84608036057E+02 -0.19061572899E+03  0.22186497379E+03  0.41800000000E+01 0.  1.
        -11    1    1    2    0    0  0.91369036358E+02  0.47489225590E+02 -0.26869268588E+02  0.10642126172E+03  0.00000000000E+00 0.  1.
         11    1    1    2    0    0  0.29076240953E+02  0.11477928845E+02 -0.88835255804E+02  0.94174695711E+02  0.00000000000E+00 0. -1.
</event>
<event>
 7    1  0.2394257E-009  0.5389737E+02  0.7561462E-02  0.1425386E+00
         -2   -1    0    0    0  501 -0.00000000000E+00  0.00000000000E+00  0.96391372778E+02  0.96391372778E+02  0.00000000000E+00 0.  1.
          2   -1    0    0  501    0  0.00000000000E+00 -0.00000000000E+00 -0.14629875670E+03  0.14629875670E+03  0.00000000000E+00 0. -1.
         25    2    1    2    0    0  0.43604366887E+02  0.19136844000E+02 -0.13021357985E+02  0.13447853908E+03  0.12508941642E+03 0.  0.
          5    1    3    3  502    0  0.48989070406E+02  0.19983588368E+02 -0.63941085495E+02  0.83097579012E+02  0.41800000000E+01 0. -1.
         -5    1    3    3    0  502 -0.53847035194E+01 -0.84674436780E+00  0.50919727510E+02  0.51380960070E+02  0.41800000000E+01 0. -1.
        -11    1    1    2    0    0 -0.21984451594E+02 -0.70706664177E+01 -0.66040861667E+02  0.69962174389E+02  0.00000000000E+00 0. -1.
         11    1    1    2    0    0 -0.21619915293E+02 -0.12066177583E+02  0.29154835729E+02  0.38249416010E+02  0.00000000000E+00 0.  1.
</event>
<event>
 7    1  0.2394257E-009  0.2304407E+03  0.7561462E-02  0.1126330E+00
          1   -1    0    0  501    0  0.00000000000E+00  0.00000000000E+00  0.38424272921E+03  0.38424272921E+03  0.00000000000E+00 0. -1.
         -1   -1    0    0    0  501 -0.00000000000E+00 -0.00000000000E+00 -0.18803757032E+03  0.18803757032E+03  0.00000000000E+00 0.  1.
         25    2    1    2    0    0  0.15321038015E+02 -0.20289783688E+03  0.24519922264E+03  0.34230139214E+03  0.12508124503E+03 0.  0.
          5    1    3    3  502    0 -0.45369009934E+02 -0.15290997632E+03  0.15300483761E+03  0.22106053617E+03  0.41800000000E+01 0.  1.
         -5    1    3    3    0  502  0.60690047949E+02 -0.49987860559E+02  0.92194385034E+02  0.12124085596E+03  0.41800000000E+01 0.  1.
        -11    1    1    2    0    0 -0.51238757352E+02  0.15115606686E+03 -0.49120974603E+02  0.16699232602E+03  0.00000000000E+00 0.  1.
         11    1    1    2    0    0  0.35917719337E+02  0.51741770020E+02  0.12691084396E+00  0.62986581377E+02  0.00000000000E+00 0. -1.
</event>
<event>
 7    1  0.2394257E-009  0.8254729E+02  0.7561462E-02  0.1321974E+00
          2   -1    0    0  501    0  0.00000000000E+00  0.00000000000E+00  0.72144489346E+03  0.72144489346E+03  0.00000000000E+00 0. -1.
         -2   -1    0    0    0  501 -0.00000000000E+00 -0.00000000000E+00 -0.16983779896E+02  0.16983779896E+02  0.00000000000E+00 0.  1.
         25    2    1    2    0    0 -0.16869636873E+01  0.48342027302E+02  0.44418531837E+03  0.46399083958E+03  0.12508838756E+03 0.  0.
          5    1    3    3  502    0  0.25853902466E+02  0.42880566149E+02  0.57891748848E+02  0.76655686095E+02  0.41800000000E+01 0.  1.
         -5    1    3    3    0  502 -0.27540866154E+02  0.54614611537E+01  0.38629356953E+03  0.38733515348E+03  0.41800000000E+01 0.  1.
        -11    1    1    2    0    0 -0.34027083586E+02 -0.33614417229E+02  0.15924380534E+03  0.16627194894E+03  0.00000000000E+00 0.  1.
         11    1    1    2    0    0  0.35714047273E+02 -0.14727610073E+02  0.10103198984E+03  0.10816588484E+03  0.00000000000E+00 0. -1.
</event>
<event>
 7    1  0.2394257E-009  0.9902955E+02  0.7561462E-02  0.1282350E+00
          2   -1    0    0  501    0  0.00000000000E+00  0.00000000000E+00  0.32558311956E+02  0.32558311956E+02  0.00000000000E+00 0. -1.
         -2   -1    0    0    0  501 -0.00000000000E+00 -0.00000000000E+00 -0.44101077265E+03  0.44101077265E+03  0.00000000000E+00 0.  1.
         25    2    1    2    0    0 -0.84349451506E+01 -0.28698765807E+02 -0.30962758711E+03  0.33527863406E+03  0.12509097609E+03 0.  0.
          5    1    3    3  502    0 -0.31780420540E+02  0.26457793062E+02 -0.35521406395E+02  0.54674058343E+02  0.41800000000E+01 0.  1.
         -5    1    3    3    0  502  0.23345475390E+02 -0.55156558870E+02 -0.27410618071E+03  0.28060457572E+03  0.41800000000E+01 0.  1.
        -11    1    1    2    0    0  0.50246112170E+02  0.14414354333E+02 -0.58766233592E+02  0.78650591922E+02  0.00000000000E+00 0. -1.
         11    1    1    2    0    0 -0.41811167020E+02  0.14284411474E+02 -0.40058639997E+02  0.59639858628E+02  0.00000000000E+00 0.  1.
</event>
<event>
 7    1  0.2394257E-009  0.6953490E+02  0.7561462E-02  0.1361682E+00
          1   -1    0    0  501    0  0.00000000000E+00  0.00000000000E+00  0.20731048648E+03  0.20731048648E+03  0.00000000000E+00 0. -1.
         -1   -1    0    0    0  501 -0.00000000000E+00 -0.00000000000E+00 -0.66843340069E+02  0.66843340069E+02  0.00000000000E+00 0.  1.
         25    2    1    2    0    0  0.30417795973E+02 -0.61132402773E+01  0.11875368656E+03  0.17525006665E+03  0.12509010261E+03 0.  0.
          5    1    3    3  502    0  0.42483666503E+02 -0.20003701748E+02  0.13947418422E+03  0.14722612019E+03  0.41800000000E+01 0.  1.
         -5    1    3    3    0  502 -0.12065870530E+02  0.13890461471E+02 -0.20720497662E+02  0.28023946454E+02  0.41800000000E+01 0.  1.
        -11    1    1    2    0    0 -0.51045642794E+02 -0.15078489084E+01 -0.17468149023E+02  0.53972840270E+02  0.00000000000E+00 0.  1.
         11    1    1    2    0    0  0.20627846821E+02  0.76210891856E+01  0.39181608877E+02  0.44930919633E+02  0.00000000000E+00 0. -1.
</event>
<event>
 7    1  0.2394257E-009  0.9860687E+02  0.7561462E-02  0.1283253E+00
          2   -1    0    0  501    0  0.00000000000E+00  0.00000000000E+00  0.46261120785E+03  0.46261120785E+03  0.00000000000E+00 0. -1.
         -2   -1    0    0    0  501 -0.00000000000E+00 -0.00000000000E+00 -0.27053535533E+02  0.27053535533E+02  0.00000000000E+00 0.  1.
         25    2    1    2    0    0  0.25234917399E+02  0.13370201079E+02  0.26067896997E+03  0.29054451566E+03  0.12508807642E+03 0.  0.
          5    1    3    3  502    0  0.37359799163E+02  0.50779753043E+02  0.64012034682E+02  0.89940818857E+02  0.41800000000E+01 0.  1.
         -5    1    3    3    0  502 -0.12124881763E+02 -0.37409551963E+02  0.19666693529E+03  0.20060369680E+03  0.41800000000E+01 0.  1.
        -11    1    1    2    0    0 -0.48946995564E+02 -0.36733573339E+02  0.10109904471E+03  0.11817859631E+03  0.00000000000E+00 0.  1.
         11    1    1    2    0    0  0.23712078165E+02  0.23363372260E+02  0.73779657643E+02  0.80941631415E+02  0.00000000000E+00 0. -1.
</event>
<event>
 7    1  0.2394257E-009  0.1184322E+03  0.7561462E-02  0.1245706E+00
          2   -1    0    0  501    0  0.00000000000E+00  0.00000000000E+00  0.74854263181E+02  0.74854263181E+02  0.00000000000E+00 0. -1.
         -2   -1    0    0    0  501 -0.00000000000E+00 -0.00000000000E+00 -0.23938092193E+03  0.23938092193E+03  0.00000000000E+00 0.  1.
         25    2    1    2    0    0 -0.68571857188E+02 -0.14767534824E+02 -0.12777695074E+03  0.19207990597E+03  0.12509021326E+03 0.  0.
          5    1    3    3  502    0 -0.51769279231E+02  0.52148188817E+02 -0.56435867007E+02  0.92746813174E+02  0.41800000000E+01 0. -1.
         -5    1    3    3    0  502 -0.16802577957E+02 -0.66915723642E+02 -0.71341083732E+02  0.99333092797E+02  0.41800000000E+01 0. -1.
        -11    1    1    2    0    0  0.36791003325E+02  0.39421470545E+02  0.15603678354E+02  0.56134704451E+02  0.00000000000E+00 0. -1.
         11    1    1    2    0    0  0.31780853862E+02 -0.24653935720E+02 -0.52353386363E+02  0.66020574690E+02  0.00000000000E+00 0.  1.
</event>
<event>
 7    1  0.2394257E-009  0.1090178E+03  0.7561462E-02  0.1262400E+00
          2   -1    0    0  501    0  0.00000000000E+00  0.00000000000E+00  0.48682942612E+03  0.48682942612E+03  0.00000000000E+00 0. -1.
         -2   -1    0    0    0  501 -0.00000000000E+00 -0.00000000000E+00 -0.25588017158E+02  0.25588017158E+02  0.00000000000E+00 0.  1.
         25    2    1    2    0    0 -0.15684571476E+02 -0.19764694521E+02  0.24864962743E+03  0.27948318181E+03  0.12509021848E+03 0.  0.
          5    1    3    3  502    0  0.12836997044E+02 -0.66729979874E+02  0.17280557083E+03  0.18573345530E+03  0.41800000000E+01 0.  1.
         -5    1    3    3    0  502 -0.28521568520E+02  0.46965285353E+02  0.75844056605E+02  0.93749726514E+02  0.41800000000E+01 0.  1.
        -11    1    1    2    0    0 -0.20546384915E+02  0.45823230319E+02  0.12251442518E+03  0.13240735156E+03  0.00000000000E+00 0. -1.
         11    1    1    2    0    0  0.36230956390E+02 -0.26058535798E+02  0.90077356345E+02  0.10052690991E+03  0.00000000000E+00 0.  1.
</event>
<event>
 7    1  0.2394257E-009  0.8911728E+02  0.7561462E-02  0.1305004E+00
          2   -1    0    0  501    0  0.00000000000E+00  0.00000000000E+00  0.62881206981E+02  0.62881206981E+02  0.00000000000E+00 0. -1.
         -2   -1    0    0    0  501 -0.00000000000E+00 -0.00000000000E+00 -0.28584743144E+03  0.28584743144E+03  0.00000000000E+00 0.  1.
         25    2    1    2    0    0  0.59978477748E+02  0.74822370848E+01 -0.18069713543E+03  0.22793015153E+03  0.12508915843E+03 0.  0.
          5    1    3    3  502    0  0.45419907822E+01  0.72780882159E+01  0.18664150912E+02  0.20962422990E+02  0.41800000000E+01 0. -1.
         -5    1    3    3    0  502  0.55436486966E+02  0.20414886900E+00 -0.19936128634E+03  0.20696772854E+03  0.41800000000E+01 0. -1.
        -11    1    1    2    0    0 -0.33862061814E+02 -0.51664860686E+02 -0.21051501534E+02  0.65261495362E+02  0.00000000000E+00 0.  1.
         11    1    1    2    0    0 -0.26116415934E+02  0.44182623602E+02 -0.21217587501E+02  0.55536991537E+02  0.00000000000E+00 0. -1.
</event>
<event>
 7    1  0.2394257E-009  0.1156173E+03  0.7561462E-02  0.1250507E+00
         -1   -1    0    0    0  501 -0.00000000000E+00  0.00000000000E+00  0.12948476221E+03  0.12948476221E+03  0.00000000000E+00 0.  1.
          1   -1    0    0  501    0  0.00000000000E+00 -0.00000000000E+00 -0.12098895142E+03  0.12098895142E+03  0.00000000000E+00 0. -1.
         25    2    1    2    0    0 -0.13784384631E+01 -0.60169747631E+02  0.30288264781E+02  0.14208263892E+03  0.12509116146E+03 0.  0.
          5    1    3    3  502    0  0.37717363422E+01 -0.99133034084E+02  0.21757800972E+02  0.10164870262E+03  0.41800000000E+01 0. -1.
         -5    1    3    3    0  502 -0.51501748053E+01  0.38963286453E+02  0.85304638089E+01  0.40433936298E+02  0.41800000000E+01 0. -1.
        -11    1    1    2    0    0  0.30610298051E+02  0.64835730513E+01  0.17375891239E+02  0.35790343148E+02  0.00000000000E+00 0.  1.
         11    1    1    2    0    0 -0.29231859588E+02  0.53686174580E+02 -0.39168345231E+02  0.72600731568E+02  0.00000000000E+00 0. -1.
</event>
<event>
 7    1  0.2394257E-009  0.1073219E+03  0.7561462E-02  0.1265611E+00
          1   -1    0    0  501    0  0.00000000000E+00  0.00000000000E+00  0.16023978915E+04  0.16023978915E+04  0.00000000000E+00 0. -1.
         -1   -1    0    0    0  501 -0.00000000000E+00 -0.00000000000E+00 -0.12493905877E+02  0.12493905877E+02  0.00000000000E+00 0.  1.
         25    2    1    2    0    0 -0.68736620927E+02 -0.26414702315E+01  0.11666845980E+04  0.11753861878E+04  0.12509212131E+03 0.  0.
          5    1    3    3  502    0 -0.57054662683E+02  0.35600680462E+02  0.28779628707E+03  0.29557878516E+03  0.41800000000E+01 0.  1.
         -5    1    3    3    0  502 -0.11681958244E+02 -0.38242150694E+02  0.87888831091E+03  0.87980740262E+03  0.41800000000E+01 0.  1.
        -11    1    1    2    0    0  0.25800646056E+02  0.41686088633E+02  0.10302562575E+03  0.11409506073E+03  0.00000000000E+00 0.  1.
         11    1    1    2    0    0  0.42935974871E+02 -0.39044618401E+02  0.32019376189E+03  0.32541054887E+03  0.00000000000E+00 0. -1.
</event>
<event>
 7    1  0.2394257E-009  0.9269109E+02  0.7561462E-02  0.1296463E+00
         -2   -1    0    0    0  501 -0.00000000000E+00  0.00000000000E+00  0.13663989339E+03  0.13663989339E+03  0.00000000000E+00 0.  1.
          2   -1    0    0  501    0  0.00000000000E+00 -0.00000000000E+00 -0.99829654181E+02  0.99829654181E+02  0.00000000000E+00 0. -1.
         25    2    1    2    0    0 -0.44423368231E+01 -0.39062169857E+02  0.91791860236E+01  0.13144524446E+03  0.12509199560E+03 0.  0.
          5    1    3    3  502    0  0.41914894579E+02 -0.54162957221E+02  0.34000099938E+02  0.76576520672E+02  0.41800000000E+01 0.  1.
         -5    1    3    3    0  502 -0.46357231402E+02  0.15100787363E+02 -0.24820913914E+02  0.54868723784E+02  0.41800000000E+01 0.  1.
        -11    1    1    2    0    0  0.24457838060E+02  0.58804640099E+00 -0.26233077247E+02  0.35870684172E+02  0.00000000000E+00 0. -1.
         11    1    1    2    0    0 -0.20015501237E+02  0.38474123456E+02  0.53864130432E+02  0.69153618942E+02  0.00000000000E+00 0.  1.
</event>
<event>
 7    1  0.2394257E-009  0.6116815E+02  0.7561462E-02  0.1392994E+00
         -4   -1    0    0    0  501 -0.00000000000E+00  0.00000000000E+00  0.12900682536E+03  0.12900682536E+03  0.00000000000E+00 0.  1.
          4   -1    0    0  501    0  0.00000000000E+00 -0.00000000000E+00 -0.97415540415E+02  0.97415540415E+02  0.00000000000E+00 0. -1.
         25    2    1    2    0    0  0.23396330780E+02  0.13637012516E+01  0.22582046972E+01  0.12728513040E+03  0.12508859644E+03 0.  0.
          5    1    3    3  502    0  0.29152176776E+01 -0.65445260707E+01  0.62491305427E+02  0.63039392205E+02  0.41800000000E+01 0.  1.
         -5    1    3    3    0  502  0.20481113103E+02  0.79082273224E+01 -0.60233100730E+02  0.64245738200E+02  0.41800000000E+01 0.  1.
        -11    1    1    2    0    0 -0.56921856518E+02  0.63974126538E+01  0.60727467005E+01  0.57601240356E+02  0.00000000000E+00 0. -1.
         11    1    1    2    0    0  0.33525525737E+02 -0.77611139054E+01  0.23260333547E+02  0.41535995013E+02  0.00000000000E+00 0.  1.
</event>
<event>
 7    1  0.2394257E-009  0.1125169E+03  0.7561462E-02  0.1255979E+00
          1   -1    0    0  501    0  0.00000000000E+00  0.00000000000E+00  0.18835672724E+03  0.18835672724E+03  0.00000000000E+00 0. -1.
         -1   -1    0    0    0  501 -0.00000000000E+00 -0.00000000000E+00 -0.11659332378E+03  0.11659332378E+03  0.00000000000E+00 0.  1.
         25    2    1    2    0    0  0.93981615734E+01  0.91855617763E+02  0.94742927718E+02  0.18206960953E+03  0.12508932970E+03 0.  0.
          5    1    3    3  502    0 -0.14169934137E+01  0.92645339289E+02  0.12152444146E+03  0.15287520739E+03  0.41800000000E+01 0. -1.
         -5    1    3    3    0  502  0.10815154987E+02 -0.78972152537E+00 -0.26781513746E+02  0.29194402135E+02  0.41800000000E+01 0. -1.
        -11    1    1    2    0    0  0.34407999538E+02 -0.42007270803E+02 -0.85662673453E+01  0.54971830684E+02  0.00000000000E+00 0.  1.
         11    1    1    2    0    0 -0.43806161112E+02 -0.49848346960E+02 -0.14413256911E+02  0.67908610800E+02  0.00000000000E+00 0. -1.
</event>
<event>
 7    1  0.2394257E-009  0.9304447E+02  0.7561462E-02  0.1295642E+00
         -1   -1    0    0    0  501 -0.00000000000E+00  0.00000000000E+00  0.21456533478E+03  0.21456533478E+03  0.00000000000E+00 0.  1.
          1   -1    0    0  501    0  0.00000000000E+00 -0.00000000000E+00 -0.55153785888E+02  0.55153785888E+02  0.00000000000E+00 0. -1.
         25    2    1    2    0    0  0.34370057080E+00  0.28077667639E+01  0.11467234561E+03  0.16971867217E+03  0.12508668655E+03 0.  0.
          5    1    3    3  502    0 -0.57892916751E+02 -0.38925294520E+01  0.26910659981E+02  0.64096783196E+02  0.41800000000E+01 0. -1.
         -5    1    3    3    0  502  0.58236617322E+02  0.67002962159E+01  0.87761685627E+02  0.10562188897E+03  0.41800000000E+01 0. -1.
        -11    1    1    2    0    0  0.32022456871E+02  0.11135747091E+02  0.53819083379E+02  0.63607675190E+02  0.00000000000E+00 0.  1.
         11    1    1    2    0    0 -0.32366157441E+02 -0.13943513855E+02 -0.90798800987E+01  0.36392773304E+02  0.00000000000E+00 0. -1.
</event>
<event>
 7    1  0.2394257E-009  0.1379371E+03  0.7561462E-02  0.1216132E+00
         -1   -1    0    0    0  501 -0.00000000000E+00  0.00000000000E+00  0.91162838259E+02  0.91162838259E+02  0.00000000000E+00 0.  1.
          1   -1    0    0  501    0  0.00000000000E+00 -0.00000000000E+00 -0.27479646674E+03  0.27479646674E+03  0.00000000000E+00 0. -1.
         25    2    1    2    0    0  0.52037622942E+02  0.99282230560E+02 -0.12812646243E+03  0.21125796557E+03  0.12509461273E+03 0.  0.
          5    1    3    3  502    0 -0.24658487712E+02  0.54655989654E+02 -0.62322888792E+01  0.60428735267E+02  0.41800000000E+01 0. -1.
         -5    1    3    3    0  502  0.76696110653E+02  0.44626240906E+02 -0.12189417355E+03  0.15082923030E+03  0.41800000000E+01 0. -1.
        -11    1    1    2    0    0 -0.38924758787E+02 -0.10547869943E+03 -0.17198931433E+02  0.11373959787E+03  0.00000000000E+00 0.  1.
         11    1    1    2    0    0 -0.13112864154E+02  0.61964688709E+01 -0.38308234612E+02  0.40961741563E+02  0.00000000000E+00 0. -1.
</event>
<event>
 7    1  0.2394257E-009  0.1131678E+03  0.7561462E-02  0.1254813E+00
          1   -1    0    0  501    0  0.00000000000E+00  0.00000000000E+00  0.42067022251E+03  0.42067022251E+03  0.00000000000E+00 0. -1.
         -1   -1    0    0    0  501 -0.00000000000E+00 -0.00000000000E+00 -0.35184921388E+02  0.35184921388E+02  0.00000000000E+00 0.  1.
         25    2    1    2    0    0  0.47171343669E+02  0.33760566511E+01  0.27402232013E+03  0.30491327507E+03  0.12508932793E+03 0.  0.
          5    1    3    3  502    0  0.44905379184E+02  0.60625933233E+02  0.17115065452E+03  0.18708825672E+03  0.41800000000E+01 0.  1.
         -5    1    3    3    0  502  0.22659644852E+01 -0.57249876582E+02  0.10287166562E+03  0.11782501836E+03  0.41800000000E+01 0.  1.
        -11    1    1    2    0    0 -0.68008724055E+01 -0.38938211761E+02  0.18748777222E+02  0.43748746816E+02  0.00000000000E+00 0.  1.
         11    1    1    2    0    0 -0.40370471264E+02  0.35562155110E+02  0.92714203766E+02  0.10719312201E+03  0.00000000000E+00 0. -1.
</event>
<event>
 7    1  0.2394257E-009  0.1578626E+03  0.7561462E-02  0.1191131E+00
          1   -1    0    0  501    0  0.00000000000E+00  0.00000000000E+00  0.75183179838E+03  0.75183179838E+03  0.00000000000E+00 0. -1.
         -1   -1    0    0    0  501 -0.00000000000E+00 -0.00000000000E+00 -0.40173048404E+02  0.40173048404E+02  0.00000000000E+00 0.  1.
         25    2    1    2    0    0  0.11258639741E+03  0.76399498432E+02  0.37539576444E+03  0.41842859162E+03  0.12509167072E+03 0.  0.
          5    1    3    3  502    0  0.47545241120E+02  0.99088288796E+02  0.17716010434E+03  0.20852389287E+03  0.41800000000E+01 0. -1.
         -5    1    3    3    0  502  0.65041156294E+02 -0.22688790364E+02  0.19823566010E+03  0.20990469875E+03  0.41800000000E+01 0. -1.
        -11    1    1    2    0    0 -0.46306210835E+02 -0.23504860718E+02  0.40381967076E+02  0.65783333028E+02  0.00000000000E+00 0.  1.
         11    1    1    2    0    0 -0.66280186579E+02 -0.52894637714E+02  0.29588101846E+03  0.30779292214E+03  0.00000000000E+00 0. -1.
</event>
<event>
 7    1  0.2394257E-009  0.1117163E+03  0.7561462E-02  0.1257424E+00
         -2   -1    0    0    0  501 -0.00000000000E+00  0.00000000000E+00  0.99694134281E+02  0.99694134281E+02  0.00000000000E+00 0.  1.
          2   -1    0    0  501    0  0.00000000000E+00 -0.00000000000E+00 -0.17292857447E+03  0.17292857447E+03  0.00000000000E+00 0. -1.
         25    2    1    2    0    0  0.22412944428E-01 -0.70915951310E+02 -0.21117766930E+02  0.14533708519E+03  0.12509130905E+03 0.  0.
          5    1    3    3  502    0 -0.38464327570E+02 -0.87760475235E+02  0.43892338569E+01  0.96011162282E+02  0.41800000000E+01 0.  1.
         -5    1    3    3    0  502  0.38486740514E+02  0.16844523925E+02 -0.25507000787E+02  0.49325922909E+02  0.41800000000E+01 0.  1.
        -11    1    1    2    0    0  0.22271218128E+02  0.20894030726E+02 -0.64298745608E+02  0.71182135144E+02  0.00000000000E+00 0. -1.
         11    1    1    2    0    0 -0.22293631072E+02  0.50021920584E+02  0.12182072352E+02  0.56103488413E+02  0.00000000000E+00 0.  1.
</event>
<event>
 7    1  0.2394257E-009  0.1292651E+03  0.7561462E-02  0.1228550E+00
         -2   -1    0    0    0  501 -0.00000000000E+00  0.00000000000E+00  0.10777424948E+03  0.10777424948E+03  0.00000000000E+00 0. -1.
          2   -1    0    0  501    0  0.00000000000E+00 -0.00000000000E+00 -0.26588384831E+03  0.26588384831E+03  0.00000000000E+00 0.  1.
         25    2    1    2    0    0  0.32432315879E+02 -0.11746498482E+03 -0.32574501465E+02  0.17765456602E+03  0.12510063512E+03 0.  0.
          5    1    3    3  502    0  0.23325606091E+02 -0.63933622575E+02  0.45856117216E+02  0.82169628703E+02  0.41800000000E+01 0.  1.
         -5    1    3    3    0  502  0.91067097873E+01 -0.53531362244E+02 -0.78430618681E+02  0.95484937312E+02  0.41800000000E+01 0.  1.
        -11    1    1    2    0    0  0.15181803182E+02  0.95579529759E+01  0.63884703923E+01  0.19043480955E+02  0.00000000000E+00 0. -1.
         11    1    1    2    0    0 -0.47614119061E+02  0.10790703184E+03 -0.13192356775E+03  0.17696005081E+03  0.00000000000E+00 0.  1.
</event>
<event>
 7    1  0.2394257E-009  0.4600564E+03  0.7561462E-02  0.1024765E+00
         -2   -1    0    0    0  501 -0.00000000000E+00  0.00000000000E+00  0.82210778393E+02  0.82210778393E+02  0.00000000000E+00 0.  1.
          2   -1    0    0  501    0  0.00000000000E+00 -0.00000000000E+00 -0.28886209854E+04  0.28886209854E+04  0.00000000000E+00 0. -1.
         25    2    1    2    0    0  0.44395832608E+03 -0.97952196592E+02 -0.99340956580E+03  0.10996383038E+04  0.12509278813E+03 0.  0.
          5    1    3    3  502    0  0.75882474646E+02  0.12536059480E+02 -0.26618789140E+03  0.27710786469E+03  0.41800000000E+01 0.  1.
         -5    1    3    3    0  502  0.36807585143E+03 -0.11048825607E+03 -0.72722167440E+03  0.82253043910E+03  0.41800000000E+01 0.  1.
        -11    1    1    2    0    0 -0.35184518753E+03  0.10270436891E+03 -0.15405999353E+04  0.15836007654E+04  0.00000000000E+00 0. -1.
         11    1    1    2    0    0 -0.92113138541E+02 -0.47521723178E+01 -0.27240070591E+03  0.28759269464E+03  0.00000000000E+00 0.  1.
</event>
<event>
 7    1  0.2394257E-009  0.1171217E+03  0.7561462E-02  0.1247922E+00
         -2   -1    0    0    0  501 -0.00000000000E+00  0.00000000000E+00  0.16097381316E+03  0.16097381316E+03  0.00000000000E+00 0.  1.
          2   -1    0    0  501    0  0.00000000000E+00 -0.00000000000E+00 -0.16312314045E+03  0.16312314045E+03  0.00000000000E+00 0. -1.
         25    2    1    2    0    0 -0.33631157897E+02  0.11101580984E+03  0.29262669661E+02  0.17309010216E+03  0.12509322450E+03 0.  0.
          5    1    3    3  502    0 -0.22837975085E+02  0.69623125703E+02 -0.45859140465E+02  0.86541815920E+02  0.41800000000E+01 0. -1.
         -5    1    3    3    0  502 -0.10793182813E+02  0.41392684136E+02  0.75121810126E+02  0.86548286244E+02  0.41800000000E+01 0. -1.
        -11    1    1    2    0    0  0.25262997924E+02 -0.47446585862E+02 -0.60214811896E+02  0.80716919823E+02  0.00000000000E+00 0. -1.
         11    1    1    2    0    0  0.83681599732E+01 -0.63569223977E+02  0.28802814944E+02  0.70289931620E+02  0.00000000000E+00 0.  1.
</event>
<event>
 7    1  0.2394257E-009  0.1453154E+03  0.7561462E-02  0.1206350E+00
          1   -1    0    0  501    0  0.00000000000E+00  0.00000000000E+00  0.53393433296E+03  0.53393433296E+03  0.00000000000E+00 0. -1.
         -1   -1    0    0    0  501 -0.00000000000E+00 -0.00000000000E+00 -0.45750247611E+02  0.45750247611E+02  0.00000000000E+00 0.  1.
         25    2    1    2    0    0  0.89202068862E+02 -0.69080467503E+02  0.27802619776E+03  0.32507647490E+03  0.12508808023E+03 0.  0.
          5    1    3    3  502    0  0.38396009267E+02 -0.10068125915E+03  0.19191967888E+03  0.22013996687E+03  0.41800000000E+01 0. -1.
         -5    1    3    3    0  502  0.50806059595E+02  0.31600791649E+02  0.86106518876E+02  0.10493650803E+03  0.41800000000E+01 0. -1.
        -11    1    1    2    0    0 -0.31123081388E+02 -0.18076100295E+01  0.73118783152E+01  0.32021511732E+02  0.00000000000E+00 0.  1.
         11    1    1    2    0    0 -0.58078987474E+02  0.70888077533E+02  0.20284600928E+03  0.22258659394E+03  0.00000000000E+00 0. -1.
</event>
<event>
 7    1  0.2394257E-009  0.1151784E+03  0.7561462E-02  0.1251270E+00
          1   -1    0    0  501    0  0.00000000000E+00  0.00000000000E+00  0.33977489228E+03  0.33977489228E+03  0.00000000000E+00 0. -1.
         -1   -1    0    0    0  501 -0.00000000000E+00 -0.00000000000E+00 -0.10313849391E+03  0.10313849391E+03  0.00000000000E+00 0.  1.
         25    2    1    2    0    0  0.70222364866E+02 -0.71253807015E+02 -0.12349722878E+02  0.16064505798E+03  0.12508410553E+03 0.  0.
          5    1    3    3  502    0 -0.11725967247E+02  0.89715715071E+01 -0.39795938322E+02  0.42651805473E+02  0.41800000000E+01 0. -1.
         -5    1    3    3    0  502  0.81948332113E+02 -0.80225378523E+02  0.27446215444E+02  0.11799325251E+03  0.41800000000E+01 0. -1.
        -11    1    1    2    0    0 -0.15708246466E+02  0.19993185658E+02  0.35426859477E+01  0.25671523202E+02  0.00000000000E+00 0.  1.
         11    1    1    2    0    0 -0.54514118401E+02  0.51260621357E+02  0.24544343530E+03  0.25659680500E+03  0.00000000000E+00 0. -1.
</event>
<event>
 7    1  0.2394257E-009  0.1272606E+03  0.7561462E-02  0.1231578E+00
         -1   -1    0    0    0  501 -0.00000000000E+00  0.00000000000E+00  0.52762656597E+02  0.52762656597E+02  0.00000000000E+00 0.  1.
          1   -1    0    0  501    0  0.00000000000E+00 -0.00000000000E+00 -0.38433608024E+03  0.38433608024E+03  0.00000000000E+00 0. -1.
         25    2    1    2    0    0 -0.90236903532E+02  0.13102020091E+02 -0.20503296421E+03  0.25690986175E+03  0.12509915652E+03 0.  0.
          5    1    3    3  502    0  0.27919683587E+02 -0.15384083265E+02 -0.31540767054E+02  0.45038551663E+02  0.41800000000E+01 0. -1.
         -5    1    3    3    0  502 -0.11815658712E+03  0.28486103357E+02 -0.17349219716E+03  0.21187131009E+03  0.41800000000E+01 0. -1.
        -11    1    1    2    0    0  0.17344823308E+02 -0.21228536710E+02  0.65879800536E+01  0.28193884933E+02  0.00000000000E+00 0.  1.
         11    1    1    2    0    0  0.72892080224E+02  0.81265166190E+01 -0.13312843948E+03  0.15199499015E+03  0.00000000000E+00 0. -1.
</event>
<event>
 7    1  0.2394257E-009  0.2730470E+03  0.7561462E-02  0.1099548E+00
          2   -1    0    0  501    0  0.00000000000E+00  0.00000000000E+00  0.15130018045E+04  0.15130018045E+04  0.00000000000E+00 0. -1.
         -2   -1    0    0    0  501 -0.00000000000E+00 -0.00000000000E+00 -0.53080566889E+02  0.53080566889E+02  0.00000000000E+00 0.  1.
         25    2    1    2    0    0  0.15500984502E+03  0.20742267988E+03  0.64585954742E+03  0.70698942894E+03  0.12508907808E+03 0.  0.
          5    1    3    3  502    0  0.10093618087E+03  0.35920529265E+02  0.22166394837E+03  0.24623317291E+03  0.41800000000E+01 0.  1.
         -5    1    3    3    0  502  0.54073664148E+02  0.17150215062E+03  0.42419559905E+03  0.46075625603E+03  0.41800000000E+01 0.  1.
        -11    1    1    2    0    0 -0.51645322511E+02 -0.64857394777E+02  0.14284836450E+03  0.16516469427E+03  0.00000000000E+00 0.  1.
         11    1    1    2    0    0 -0.10336452251E+03 -0.14256528511E+03  0.67121332572E+03  0.69392824820E+03  0.00000000000E+00 0. -1.
</event>
<event>
 7    1  0.2394257E-009  0.9876952E+02  0.7561462E-02  0.1282905E+00
         -1   -1    0    0    0  501 -0.00000000000E+00  0.00000000000E+00  0.37445514938E+03  0.37445514938E+03  0.00000000000E+00 0.  1.
          1   -1    0    0  501    0  0.00000000000E+00 -0.00000000000E+00 -0.40923531905E+02  0.40923531905E+02  0.00000000000E+00 0. -1.
         25    2    1    2    0    0 -0.36686698421E+02 -0.36657094181E+02  0.23807976458E+03  0.27390053543E+03  0.12509945088E+03 0.  0.
          5    1    3    3  502    0 -0.59785464674E+02 -0.52340796007E+02  0.78259285302E+02  0.11160577426E+03  0.41800000000E+01 0. -1.
         -5    1    3    3    0  502  0.23098766253E+02  0.15683701826E+02  0.15982047928E+03  0.16229476117E+03  0.41800000000E+01 0. -1.
        -11    1    1    2    0    0  0.49998544894E+02 -0.78011484386E+00  0.87760957534E+02  0.10100717172E+03  0.00000000000E+00 0.  1.
         11    1    1    2    0    0 -0.13311846473E+02  0.37437209025E+02  0.76908953572E+01  0.40470974136E+02  0.00000000000E+00 0. -1.
</event>
<event>
 7    1  0.2394257E-009  0.1048017E+03  0.7561462E-02  0.1270511E+00
         -4   -1    0    0    0  501 -0.00000000000E+00  0.00000000000E+00  0.59258638473E+02  0.59258638473E+02  0.00000000000E+00 0.  1.
          4   -1    0    0  501    0  0.00000000000E+00 -0.00000000000E+00 -0.25994583796E+03  0.25994583796E+03  0.00000000000E+00 0. -1.
         25    2    1    2    0    0 -0.75288817673E+01 -0.86286792317E+01 -0.18425250936E+03  0.22299957389E+03  0.12509470246E+03 0.  0.
          5    1    3    3  502    0 -0.55510793806E+02 -0.29945160123E+02 -0.14214737162E+03  0.15556834029E+03  0.41800000000E+01 0.  1.
         -5    1    3    3    0  502  0.47981912038E+02  0.21316480891E+02 -0.42105137745E+02  0.67431233601E+02  0.41800000000E+01 0.  1.
        -11    1    1    2    0    0  0.85956900295E+01 -0.42107046361E+02 -0.14728585954E+02  0.45429291042E+02  0.00000000000E+00 0.  1.
         11    1    1    2    0    0 -0.10668082622E+01  0.50735725593E+02 -0.17061041701E+01  0.50775611496E+02  0.00000000000E+00 0. -1.
</event>
<event>
 7    1  0.2394257E-009  0.1064758E+03  0.7561462E-02  0.1267239E+00
         -1   -1    0    0    0  501 -0.00000000000E+00  0.00000000000E+00  0.16217493805E+03  0.16217493805E+03  0.00000000000E+00 0.  1.
          1   -1    0    0  501    0  0.00000000000E+00 -0.00000000000E+00 -0.78999083466E+02  0.78999083466E+02  0.00000000000E+00 0. -1.
         25    2    1    2    0    0 -0.85793364443E+01 -0.32224483521E+02  0.54540606207E+02  0.14047801529E+03  0.12508945880E+03 0.  0.
          5    1    3    3  502    0  0.23513093358E+02 -0.65673285153E+02  0.61904067085E+02  0.93356477353E+02  0.41800000000E+01 0.  1.
         -5    1    3    3    0  502 -0.32092429803E+02  0.33448801632E+02 -0.73634608780E+01  0.47121537935E+02  0.41800000000E+01 0.  1.
        -11    1    1    2    0    0 -0.24014031215E+02 -0.22451380288E+02  0.90502352484E+01  0.34097579534E+02  0.00000000000E+00 0.  1.
         11    1    1    2    0    0  0.32593367660E+02  0.54675863809E+02  0.19585013126E+02  0.66598426691E+02  0.00000000000E+00 0. -1.
</event>
<event>
 7    1  0.2394257E-009  0.1244425E+03  0.7561462E-02  0.1235943E+00
         -2   -1    0    0    0  501 -0.00000000000E+00  0.00000000000E+00  0.77105913629E+02  0.77105913629E+02  0.00000000000E+00 0.  1.
          2   -1    0    0  501    0  0.00000000000E+00 -0.00000000000E+00 -0.33586695595E+03  0.33586695595E+03  0.00000000000E+00 0. -1.
         25    2    1    2    0    0  0.13307375669E+02  0.67722348386E+02 -0.15320695105E+02  0.14368619652E+03  0.12509035396E+03 0.  0.
          5    1    3    3  502    0  0.34703125336E+02 -0.26507098994E+02 -0.16750532671E+02  0.46957277923E+02  0.41800000000E+01 0.  1.
         -5    1    3    3    0  502 -0.21395749667E+02  0.94229447380E+02  0.14298375667E+01  0.96728918597E+02  0.41800000000E+01 0.  1.
        -11    1    1    2    0    0 -0.35415232164E+02 -0.76665647449E+02 -0.14318758236E+03  0.16623640970E+03  0.00000000000E+00 0.  1.
         11    1    1    2    0    0  0.22107856495E+02  0.89432990628E+01 -0.10025276486E+03  0.10305026336E+03  0.00000000000E+00 0. -1.
</event>
<event>
 7    1  0.2394257E-009  0.1270987E+03  0.7561462E-02  0.1231825E+00
         -1   -1    0    0    0  501 -0.00000000000E+00  0.00000000000E+00  0.89081195004E+02  0.89081195004E+02  0.00000000000E+00 0.  1.
          1   -1    0    0  501    0  0.00000000000E+00 -0.00000000000E+00 -0.36539986541E+03  0.36539986541E+03  0.00000000000E+00 0. -1.
         25    2    1    2    0    0 -0.75050433487E+02 -0.72551316732E+02 -0.21147452261E+02  0.16428951424E+03  0.12509024193E+03 0.  0.
          5    1    3    3  502    0  0.47026578739E+00  0.17400885088E+02 -0.41332807031E+02  0.45043149188E+02  0.41800000000E+01 0.  1.
         -5    1    3    3    0  502 -0.75520699275E+02 -0.89952201820E+02  0.20185354770E+02  0.11924636505E+03  0.41800000000E+01 0.  1.
        -11    1    1    2    0    0  0.47301854322E+02  0.72979390571E+01 -0.36154505148E+02  0.59982277210E+02  0.00000000000E+00 0.  1.
         11    1    1    2    0    0  0.27748579165E+02  0.65253377675E+02 -0.21901671300E+03  0.23020926896E+03  0.00000000000E+00 0. -1.
</event>
<event>
 7    1  0.2394257E-009  0.2932247E+03  0.7561462E-02  0.1088677E+00
          1   -1    0    0  501    0  0.00000000000E+00  0.00000000000E+00  0.14833807242E+04  0.14833807242E+04  0.00000000000E+00 0. -1.
         -1   -1    0    0    0  501 -0.00000000000E+00 -0.00000000000E+00 -0.76053835229E+02  0.76053835229E+02  0.00000000000E+00 0.  1.
         25    2    1    2    0    0  0.13838694940E+03  0.25723987511E+03  0.42576980654E+03  0.53127319613E+03  0.12509188483E+03 0.  0.
          5    1    3    3  502    0  0.47827083156E+02  0.57564014830E+02  0.34005721659E+02  0.82309824396E+02  0.41800000000E+01 0. -1.
         -5    1    3    3    0  502  0.90559866246E+02  0.19967586028E+03  0.39176408488E+03  0.44896337173E+03  0.41800000000E+01 0. -1.
        -11    1    1    2    0    0 -0.79951909290E+02 -0.14063906456E+03  0.69083198391E+03  0.70952130642E+03  0.00000000000E+00 0.  1.
         11    1    1    2    0    0 -0.58435040112E+02 -0.11660081055E+03  0.29072509852E+03  0.31864005687E+03  0.00000000000E+00 0. -1.
</event>
<event>
 7    1  0.2394257E-009  0.1252598E+03  0.7561462E-02  0.1234664E+00
         -1   -1    0    0    0  501 -0.00000000000E+00  0.00000000000E+00  0.93669734087E+02  0.93669734087E+02  0.00000000000E+00 0.  1.
          1   -1    0    0  501    0  0.00000000000E+00 -0.00000000000E+00 -0.25816304436E+03  0.25816304436E+03  0.00000000000E+00 0. -1.
         25    2    1    2    0    0  0.35255749808E+02  0.93063789709E+02 -0.14631299647E+03  0.21669895773E+03  0.12508840272E+03 0.  0.
          5    1    3    3  502    0  0.44032744832E+02  0.30716091672E+02  0.36775713875E+01  0.53975529978E+02  0.41800000000E+01 0.  1.
         -5    1    3    3    0  502 -0.87769950241E+01  0.62347698037E+02 -0.14999056786E+03  0.16272342775E+03  0.41800000000E+01 0.  1.
        -11    1    1    2    0    0  0.25655933280E+01 -0.95626051427E+02 -0.86800189126E+01  0.96053457559E+02  0.00000000000E+00 0.  1.
         11    1    1    2    0    0 -0.37821343136E+02  0.25622617180E+01 -0.95002948881E+01  0.39080363159E+02  0.00000000000E+00 0. -1.
</event>
<event>
 7    1  0.2394257E-009  0.9764575E+02  0.7561462E-02  0.1285326E+00
         -1   -1    0    0    0  501 -0.00000000000E+00  0.00000000000E+00  0.25691023541E+03  0.25691023541E+03  0.00000000000E+00 0.  1.
          1   -1    0    0  501    0  0.00000000000E+00 -0.00000000000E+00 -0.50162585365E+02  0.50162585365E+02  0.00000000000E+00 0. -1.
         25    2    1    2    0    0  0.25182811991E+02 -0.26320481908E+02  0.12815588190E+03  0.18275309793E+03  0.12509125848E+03 0.  0.
          5    1    3    3  502    0  0.46361658460E+02  0.25451206562E+02  0.12939843481E+02  0.54608417299E+02  0.41800000000E+01 0.  1.
         -5    1    3    3    0  502 -0.21178846469E+02 -0.51771688470E+02  0.11521603842E+03  0.12814468063E+03  0.41800000000E+01 0.  1.
        -11    1    1    2    0    0 -0.45501141843E+02 -0.80610815678E+01  0.69337802103E+02  0.83325060729E+02  0.00000000000E+00 0.  1.
         11    1    1    2    0    0  0.20318329852E+02  0.34381563476E+02  0.92539660490E+01  0.40994662124E+02  0.00000000000E+00 0. -1.
</event>
<event>
 7    1  0.2394257E-009  0.9883630E+02  0.7561462E-02  0.1282762E+00
          1   -1    0    0  501    0  0.00000000000E+00  0.00000000000E+00  0.30387323940E+03  0.30387323940E+03  0.00000000000E+00 0. -1.
         -1   -1    0    0    0  501 -0.00000000000E+00 -0.00000000000E+00 -0.54128512188E+02  0.54128512188E+02  0.00000000000E+00 0.  1.
         25    2    1    2    0    0  0.54683172590E+02  0.28897728006E+02  0.17688936852E+03  0.22530453407E+03  0.12508779448E+03 0.  0.
          5    1    3    3  502    0  0.87086699579E+02  0.94451783077E+01  0.16248983633E+03  0.18464485898E+03  0.41800000000E+01 0. -1.
         -5    1    3    3    0  502 -0.32403526989E+02  0.19452549698E+02  0.14399532184E+02  0.40659675087E+02  0.41800000000E+01 0. -1.
        -11    1    1    2    0    0 -0.12044803851E+02 -0.26659259364E+02 -0.16556255812E+02  0.33614030049E+02  0.00000000000E+00 0. -1.
         11    1    1    2    0    0 -0.42638368739E+02 -0.22384686419E+01  0.89411614511E+02  0.99083187474E+02  0.00000000000E+00 0.  1.
</event>
<event>
 7    1  0.2394257E-009  0.1090756E+03  0.7561462E-02  0.1262291E+00
         -2   -1    0    0    0  501 -0.00000000000E+00  0.00000000000E+00  0.15686847811E+03  0.15686847811E+03  0.00000000000E+00 0.  1.
          2   -1    0    0  501    0  0.00000000000E+00 -0.00000000000E+00 -0.16696321733E+03  0.16696321733E+03  0.00000000000E+00 0. -1.
         25    2    1    2    0    0 -0.57628067467E+01  0.83932581846E+02  0.75244055088E+02  0.16848616651E+03  0.12509209504E+03 0.  0.
          5    1    3    3  502    0 -0.15599171145E+02  0.36269928285E+02  0.10433471360E+03  0.11163353753E+03  0.41800000000E+01 0. -1.
         -5    1    3    3    0  502  0.98363643982E+01  0.47662653562E+02 -0.29090658514E+02  0.56852628980E+02  0.41800000000E+01 0. -1.
        -11    1    1    2    0    0  0.37792905124E+02  0.20489774534E+01 -0.28932809682E+02  0.47640418369E+02  0.00000000000E+00 0.  1.
         11    1    1    2    0    0 -0.32030098377E+02 -0.85981559300E+02 -0.56405984628E+02  0.10770511057E+03  0.00000000000E+00 0. -1.
</event>
<event>
 7    1  0.2394257E-009  0.1236051E+03  0.7561462E-02  0.1237266E+00
         -1   -1    0    0    0  501 -0.00000000000E+00  0.00000000000E+00  0.29322094645E+02  0.29322094645E+02  0.00000000000E+00 0.  1.
          1   -1    0    0  501    0  0.00000000000E+00 -0.00000000000E+00 -0.77796035508E+03  0.77796035508E+03  0.00000000000E+00 0. -1.
         25    2    1    2    0    0 -0.14114059350E+02 -0.87162908957E+02 -0.50774271002E+03  0.53032649342E+03  0.12508777187E+03 0.  0.
          5    1    3    3  502    0 -0.67024410978E+02 -0.59343105234E+02 -0.35780789496E+03  0.36886018748E+03  0.41800000000E+01 0. -1.
         -5    1    3    3    0  502  0.52910351628E+02 -0.27819803722E+02 -0.14993481506E+03  0.16146630594E+03  0.41800000000E+01 0. -1.
        -11    1    1    2    0    0 -0.46988370510E+01  0.75258661548E+02 -0.24315503494E+03  0.25457870340E+03  0.00000000000E+00 0. -1.
         11    1    1    2    0    0  0.18812896401E+02  0.11904247408E+02  0.22594845260E+01  0.22377252908E+02  0.00000000000E+00 0.  1.
</event>
<event>
 7    1  0.2394257E-009  0.9590893E+02  0.7561462E-02  0.1289142E+00
          2   -1    0    0  501    0  0.00000000000E+00  0.00000000000E+00  0.73712866950E+03  0.73712866950E+03  0.00000000000E+00 0. -1.
         -2   -1    0    0    0  501 -0.00000000000E+00 -0.00000000000E+00 -0.19680868649E+02  0.19680868649E+02  0.00000000000E+00 0.  1.
         25    2    1    2    0    0 -0.93080988869E+00 -0.49050476736E+02  0.45230385636E+03  0.47184069644E+03  0.12509216067E+03 0.  0.
          5    1    3    3  502    0 -0.43497362739E+02 -0.45140278085E+02  0.39637545836E+03  0.40132361214E+03  0.41800000000E+01 0. -1.
         -5    1    3    3    0  502  0.42566552850E+02 -0.39101986507E+01  0.55928397997E+02  0.70517084296E+02  0.41800000000E+01 0. -1.
        -11    1    1    2    0    0 -0.33909323071E+02  0.14197701728E+02  0.19964530627E+03  0.20300163852E+03  0.00000000000E+00 0. -1.
         11    1    1    2    0    0  0.34840132960E+02  0.34852775008E+02  0.65498638224E+02  0.81967203195E+02  0.00000000000E+00 0.  1.
</event>
<event>
 7    1  0.2717811E-009  0.8973720E+02  0.7561462E-02  0.1303489E+00
          2   -1    0    0  501    0  0.00000000000E+00  0.00000000000E+00  0.24590571116E+03  0.24590571116E+03  0.00000000000E+00 0. -1.
         -2   -1    0    0    0  501 -0.00000000000E+00 -0.00000000000E+00 -0.90216642272E+02  0.90216642272E+02  0.00000000000E+00 0.  1.
         25    2    1    2    0    0 -0.71638136098E+02 -0.40095385268E+02  0.16154750723E+02  0.15049455492E+03  0.12509185675E+03 0.  0.
          5    1    3    3  502    0 -0.42209772336E+02 -0.35557821056E+02 -0.52036151829E+02  0.75968789751E+02  0.41800000000E+01 0.  1.
         -5    1    3    3    0  502 -0.29428363762E+02 -0.45375642116E+01  0.68190902552E+02  0.74525765166E+02  0.41800000000E+01 0.  1.
        -11    1    1    2    0    0  0.59397136669E+02  0.82838187765E+01  0.23033691975E+02  0.64243228935E+02  0.00000000000E+00 0.  1.
         11    1    1    2    0    0  0.12240999429E+02  0.31811566491E+02  0.11650062619E+03  0.12138456958E+03  0.00000000000E+00 0. -1.
</event>
<event>
 7    1  0.2394257E-009  0.8690988E+02  0.7561462E-02  0.1310512E+00
          2   -1    0    0  501    0  0.00000000000E+00  0.00000000000E+00  0.35607354918E+03  0.35607354918E+03  0.00000000000E+00 0. -1.
         -2   -1    0    0    0  501 -0.00000000000E+00 -0.00000000000E+00 -0.61420242587E+02  0.61420242587E+02  0.00000000000E+00 0.  1.
         25    2    1    2    0    0  0.62262377706E+02  0.32841068667E+02  0.57856528830E+02  0.15475530268E+03  0.12508671517E+03 0.  0.
          5    1    3    3  502    0 -0.16346390263E+02  0.13104177222E+02 -0.28911739872E+02  0.35948366273E+02  0.41800000000E+01 0.  1.
         -5    1    3    3    0  502  0.78608767969E+02  0.19736891445E+02  0.86768268702E+02  0.11880693641E+03  0.41800000000E+01 0.  1.
        -11    1    1    2    0    0 -0.32228455736E+02 -0.10597862342E+02  0.13790135244E+02  0.36621795087E+02  0.00000000000E+00 0.  1.
         11    1    1    2    0    0 -0.30033921970E+02 -0.22243206324E+02  0.22300664251E+03  0.22611669399E+03  0.00000000000E+00 0. -1.
</event>
<event>
 7    1  0.2394257E-009  0.1174972E+03  0.7561462E-02  0.1247284E+00
         -2   -1    0    0    0  501 -0.00000000000E+00  0.00000000000E+00  0.11295729354E+03  0.11295729354E+03  0.00000000000E+00 0.  1.
          2   -1    0    0  501    0  0.00000000000E+00 -0.00000000000E+00 -0.15128212821E+03  0.15128212821E+03  0.00000000000E+00 0. -1.
         25    2    1    2    0    0 -0.25971133349E+02  0.67570082128E+02 -0.16290438588E+02  0.14544117747E+03  0.12509013530E+03 0.  0.
          5    1    3    3  502    0  0.24576304560E+02 -0.18907049178E+02 -0.31081525858E+02  0.44102209742E+02  0.41800000000E+01 0.  1.
         -5    1    3    3    0  502 -0.50547437909E+02  0.86477131306E+02  0.14791087270E+02  0.10133896773E+03  0.41800000000E+01 0.  1.
        -11    1    1    2    0    0 -0.18772067954E+02 -0.53268399948E+02  0.15615784057E+02  0.58598341956E+02  0.00000000000E+00 0.  1.
         11    1    1    2    0    0  0.44743201303E+02 -0.14301682180E+02 -0.37650180138E+02  0.60199902329E+02  0.00000000000E+00 0. -1.
</event>
<event>
 7    1  0.2394257E-009  0.1296172E+03  0.7561462E-02  0.1228025E+00
          1   -1    0    0  501    0  0.00000000000E+00  0.00000000000E+00  0.16734503379E+03  0.16734503379E+03  0.00000000000E+00 0. -1.
         -1   -1    0    0    0  501 -0.00000000000E+00 -0.00000000000E+00 -0.12294243513E+03  0.12294243513E+03  0.00000000000E+00 0.  1.
         25    2    1    2    0    0 -0.34341341820E+02  0.86396337330E+02  0.86563576586E+01  0.15609999803E+03  0.12509445229E+03 0.  0.
          5    1    3    3  502    0  0.25230699267E+02 -0.94561119823E+01 -0.26296464997E+02  0.37881165646E+02  0.41800000000E+01 0.  1.
         -5    1    3    3    0  502 -0.59572041087E+02  0.95852449313E+02  0.34952822656E+02  0.11821883238E+03  0.41800000000E+01 0.  1.
        -11    1    1    2    0    0  0.14003853410E+02 -0.95664585624E+02  0.48803196302E+02  0.10830315241E+03  0.00000000000E+00 0. -1.
         11    1    1    2    0    0  0.20337488409E+02  0.92682482933E+01 -0.13056955308E+02  0.25884318479E+02  0.00000000000E+00 0.  1.
</event>
<event>
 7    1  0.2394257E-009  0.1042203E+03  0.7561462E-02  0.1271663E+00
          1   -1    0    0  501    0  0.00000000000E+00  0.00000000000E+00  0.83009563611E+02  0.83009563611E+02  0.00000000000E+00 0. -1.
         -1   -1    0    0    0  501 -0.00000000000E+00 -0.00000000000E+00 -0.35897933942E+03  0.35897933942E+03  0.00000000000E+00 0.  1.
         25    2    1    2    0    0 -0.16308815457E+02 -0.26830086494E+02  0.21840613332E+02  0.13080758440E+03  0.12509108979E+03 0.  0.
          5    1    3    3  502    0  0.29454428223E+02  0.33815615594E+02 -0.13347375297E+02  0.46975355531E+02  0.41800000000E+01 0. -1.
         -5    1    3    3    0  502 -0.45763243680E+02 -0.60645702088E+02  0.35187988629E+02  0.83832228872E+02  0.41800000000E+01 0. -1.
        -11    1    1    2    0    0  0.21831217285E+02  0.54702243586E+02 -0.23456486396E+03  0.24184625882E+03  0.00000000000E+00 0.  1.
         11    1    1    2    0    0 -0.55224018282E+01 -0.27872157092E+02 -0.63245525184E+02  0.69335059809E+02  0.00000000000E+00 0. -1.
</event>
<event>
 7    1  0.2394257E-009  0.9330541E+02  0.7561462E-02  0.1295039E+00
         -4   -1    0    0    0  501 -0.00000000000E+00  0.00000000000E+00  0.42627493279E+02  0.42627493279E+02  0.00000000000E+00 0. -1.
          4   -1    0    0  501    0  0.00000000000E+00 -0.00000000000E+00 -0.29120634266E+03  0.29120634266E+03  0.00000000000E+00 0.  1.
         25    2    1    2    0    0  0.14042344425E+02  0.70258758166E+00 -0.16904405174E+03  0.21076354550E+03  0.12509076551E+03 0.  0.
          5    1    3    3  502    0 -0.17863962451E+02  0.55300238682E+02 -0.54109787717E+02  0.79514646950E+02  0.41800000000E+01 0. -1.
         -5    1    3    3    0  502  0.31906306876E+02 -0.54597651101E+02 -0.11493426402E+03  0.13124889855E+03  0.41800000000E+01 0. -1.
        -11    1    1    2    0    0 -0.87491915470E+01 -0.32028360055E+02 -0.84615888329E+02  0.90896714782E+02  0.00000000000E+00 0.  1.
         11    1    1    2    0    0 -0.52931528781E+01  0.31325772473E+02  0.50810906805E+01  0.32173575663E+02  0.00000000000E+00 0. -1.
</event>
<event>
 7    1  0.2394257E-009  0.1178047E+03  0.7561462E-02  0.1246763E+00
         -3   -1    0    0    0  501 -0.00000000000E+00  0.00000000000E+00  0.10317527154E+04  0.10317527154E+04  0.00000000000E+00 0.  1.
          3   -1    0    0  501    0  0.00000000000E+00 -0.00000000000E+00 -0.13671358798E+02  0.13671358798E+02  0.00000000000E+00 0. -1.
         25    2    1    2    0    0  0.40214779492E+02  0.32537102684E+02  0.53947281292E+03  0.55619655235E+03  0.12509115646E+03 0.  0.
          5    1    3    3  502    0 -0.44028395339E+02  0.97508772172E+00  0.14632417657E+03  0.15286493202E+03  0.41800000000E+01 0. -1.
         -5    1    3    3    0  502  0.84243174831E+02  0.31562014962E+02  0.39314863635E+03  0.40333162033E+03  0.41800000000E+01 0. -1.
        -11    1    1    2    0    0  0.11877210080E+02  0.22556436921E+02  0.11303477883E+03  0.11587373383E+03  0.00000000000E+00 0. -1.
         11    1    1    2    0    0 -0.52091989572E+02 -0.55093539605E+02  0.36557376490E+03  0.37335378807E+03  0.00000000000E+00 0.  1.
</event>
<event>
 7    1  0.2394257E-009  0.1108694E+03  0.7561462E-02  0.1258968E+00
         -4   -1    0    0    0  501 -0.00000000000E+00  0.00000000000E+00  0.24394210571E+02  0.24394210571E+02  0.00000000000E+00 0.  1.
          4   -1    0    0  501    0  0.00000000000E+00 -0.00000000000E+00 -0.59632584754E+03  0.59632584754E+03  0.00000000000E+00 0. -1.
         25    2    1    2    0    0  0.68537632637E+01  0.24995968585E+02 -0.42764866644E+03  0.44631607264E+03  0.12507150862E+03 0.  0.
          5    1    3    3  502    0  0.53788968478E+02 -0.21047939699E+02 -0.25575308614E+03  0.26222772997E+03  0.41800000000E+01 0.  1.
         -5    1    3    3    0  502 -0.46935205215E+02  0.46043908285E+02 -0.17189558030E+03  0.18408834267E+03  0.41800000000E+01 0.  1.
        -11    1    1    2    0    0  0.16314211603E+02 -0.56517751266E+02 -0.84529681791E+02  0.10298386676E+03  0.00000000000E+00 0. -1.
         11    1    1    2    0    0 -0.23167974867E+02  0.31521782680E+02 -0.59753288737E+02  0.71420118718E+02  0.00000000000E+00 0.  1.
</event>
<event>
 7    1  0.2394257E-009  0.1310274E+03  0.7561462E-02  0.1225939E+00
          2   -1    0    0  501    0  0.00000000000E+00  0.00000000000E+00  0.14310288436E+03  0.14310288436E+03  0.00000000000E+00 0.  1.
         -2   -1    0    0    0  501 -0.00000000000E+00 -0.00000000000E+00 -0.18437652025E+03  0.18437652025E+03  0.00000000000E+00 0. -1.
         25    2    1    2    0    0  0.45083269165E+02 -0.60198792061E+02  0.74191808501E+02  0.16373258341E+03  0.12509012229E+03 0.  0.
          5    1    3    3  502    0 -0.16698193704E+02  0.31153860392E+02  0.18602159687E+02  0.40160993953E+02  0.41800000000E+01 0. -1.
         -5    1    3    3    0  502  0.61781462869E+02 -0.91352652453E+02  0.55589648813E+02  0.12357158945E+03  0.41800000000E+01 0. -1.
        -11    1    1    2    0    0  0.99709836143E+01  0.60225921517E+02 -0.61586560075E+02  0.86714972863E+02  0.00000000000E+00 0. -1.
         11    1    1    2    0    0 -0.55054252779E+02 -0.27129455392E-01 -0.53878884315E+02  0.77031848349E+02  0.00000000000E+00 0.  1.
</event>
<event>
 7    1  0.2394257E-009  0.1095156E+03  0.7561462E-02  0.1261469E+00
          2   -1    0    0  501    0  0.00000000000E+00  0.00000000000E+00  0.32947375527E+03  0.32947375527E+03  0.00000000000E+00 0. -1.
         -2   -1    0    0    0  501 -0.00000000000E+00 -0.00000000000E+00 -0.59885196524E+02  0.59885196524E+02  0.00000000000E+00 0.  1.
         25    2    1    2    0    0  0.45750043439E+02 -0.53341642612E+02  0.74287992354E+02  0.16157005672E+03  0.12509108725E+03 0.  0.
          5    1    3    3  502    0  0.64879293433E+02 -0.55567067908E+02  0.98437025223E+02  0.13040069818E+03  0.41800000000E+01 0.  1.
         -5    1    3    3    0  502 -0.19129249994E+02  0.22254252957E+01 -0.24149032869E+02  0.31169358537E+02  0.41800000000E+01 0.  1.
        -11    1    1    2    0    0 -0.70691239757E+02  0.53830683030E+02  0.17228176422E+03  0.19384529939E+03  0.00000000000E+00 0. -1.
         11    1    1    2    0    0  0.24941196318E+02 -0.48904041813E+00  0.23018802178E+02  0.33943595684E+02  0.00000000000E+00 0.  1.
</event>
<event>
 7    1  0.2394257E-009  0.1366215E+03  0.7561462E-02  0.1217949E+00
         -2   -1    0    0    0  501 -0.00000000000E+00  0.00000000000E+00  0.81571826665E+02  0.81571826665E+02  0.00000000000E+00 0. -1.
          2   -1    0    0  501    0  0.00000000000E+00 -0.00000000000E+00 -0.24132404845E+03  0.24132404845E+03  0.00000000000E+00 0.  1.
         25    2    1    2    0    0  0.52494287789E+02 -0.69184416218E+02 -0.10865254798E+03  0.18706831870E+03  0.12508815284E+03 0.  0.
          5    1    3    3  502    0  0.79754042267E+02 -0.38746853312E+01 -0.44769577396E+02  0.91637917396E+02  0.41800000000E+01 0.  1.
         -5    1    3    3    0  502 -0.27259754479E+02 -0.65309730887E+02 -0.63882970589E+02  0.95430401309E+02  0.41800000000E+01 0.  1.
        -11    1    1    2    0    0 -0.18869879071E+02 -0.19748697042E+02  0.11508684853E+01  0.27338761298E+02  0.00000000000E+00 0.  1.
         11    1    1    2    0    0 -0.33624408718E+02  0.88933113261E+02 -0.52250542287E+02  0.10848879511E+03  0.00000000000E+00 0. -1.
</event>
<event>
 7    1  0.2394257E-009  0.1316027E+03  0.7561462E-02  0.1225097E+00
         -2   -1    0    0    0  501 -0.00000000000E+00  0.00000000000E+00  0.43334043993E+02  0.43334043993E+02  0.00000000000E+00 0.  1.
          2   -1    0    0  501    0  0.00000000000E+00 -0.00000000000E+00 -0.59962086351E+03  0.59962086351E+03  0.00000000000E+00 0. -1.
         25    2    1    2    0    0 -0.97080902310E+02  0.62323941670E+02 -0.29763740343E+03  0.34284952211E+03  0.12509514614E+03 0.  0.
          5    1    3    3  502    0 -0.36846196544E+02 -0.85623919373E+00 -0.49835466147E+01  0.37425706168E+02  0.41800000000E+01 0. -1.
         -5    1    3    3    0  502 -0.60234705765E+02  0.63180180864E+02 -0.29265385682E+03  0.30542381594E+03  0.41800000000E+01 0. -1.
        -11    1    1    2    0    0  0.34645116691E+02  0.16327732564E+02 -0.13756748843E+03  0.14279948471E+03  0.00000000000E+00 0. -1.
         11    1    1    2    0    0  0.62435785618E+02 -0.78651674234E+02 -0.12108192766E+03  0.15730590069E+03  0.00000000000E+00 0.  1.
</event>
<event>
 7    1  0.2688056E-009  0.1022750E+03  0.7561462E-02  0.1275583E+00
          2   -1    0    0  501    0  0.00000000000E+00  0.00000000000E+00  0.87381299778E+03  0.87381299778E+03  0.00000000000E+00 0. -1.
         -2   -1    0    0    0  501 -0.00000000000E+00 -0.00000000000E+00 -0.25675929925E+02  0.25675929925E+02  0.00000000000E+00 0.  1.
         25    2    1    2    0    0  0.65587028673E+02  0.42785128061E+02  0.25855737764E+03  0.29771078717E+03  0.12509024642E+03 0.  0.
          5    1    3    3  502    0  0.68729215263E+02  0.38884540829E+02  0.60551676973E+02  0.99597643197E+02  0.41800000000E+01 0. -1.
         -5    1    3    3    0  502 -0.31421865899E+01  0.39005872318E+01  0.19800570067E+03  0.19811314397E+03  0.41800000000E+01 0. -1.
        -11    1    1    2    0    0 -0.83579987070E+02 -0.13623263216E+02  0.46085603149E+03  0.46857175469E+03  0.00000000000E+00 0. -1.
         11    1    1    2    0    0  0.17992958397E+02 -0.29161864845E+02  0.12872365872E+03  0.13320638584E+03  0.00000000000E+00 0.  1.
</event>
<event>
 7    1  0.2394257E-009  0.1171755E+03  0.7561462E-02  0.1247831E+00
          1   -1    0    0  501    0  0.00000000000E+00  0.00000000000E+00  0.90092840273E+02  0.90092840273E+02  0.00000000000E+00 0. -1.
         -1   -1    0    0    0  501 -0.00000000000E+00 -0.00000000000E+00 -0.18961366608E+03  0.18961366608E+03  0.00000000000E+00 0.  1.
         25    2    1    2    0    0  0.63644919223E+02 -0.92210501684E+01 -0.18101001577E+02  0.14181190734E+03  0.12508903747E+03 0.  0.
          5    1    3    3  502    0  0.31398307439E+02  0.55362160187E+02  0.93590714602E+01  0.64466170270E+02  0.41800000000E+01 0. -1.
         -5    1    3    3    0  502  0.32246611784E+02 -0.64583210356E+02 -0.27460073037E+02  0.77345737068E+02  0.41800000000E+01 0. -1.
        -11    1    1    2    0    0  0.47420055810E+01  0.27151363736E+02 -0.56620652486E+02  0.62972862866E+02  0.00000000000E+00 0.  1.
         11    1    1    2    0    0 -0.68386924804E+02 -0.17930313567E+02 -0.24799171747E+02  0.74921736152E+02  0.00000000000E+00 0. -1.
</event>
<event>
 7    1  0.2394257E-009  0.1408372E+03  0.7561462E-02  0.1212207E+00
         -1   -1    0    0    0  501 -0.00000000000E+00  0.00000000000E+00  0.26548063205E+03  0.26548063205E+03  0.00000000000E+00 0.  1.
          1   -1    0    0  501    0  0.00000000000E+00 -0.00000000000E+00 -0.79087623299E+02  0.79087623299E+02  0.00000000000E+00 0. -1.
         25    2    1    2    0    0 -0.16850879819E+02  0.99839935829E+02  0.81979682990E+02  0.18060446368E+03  0.12508132930E+03 0.  0.
          5    1    3    3  502    0 -0.33947863926E+02 -0.19679877752E+02  0.13326854102E+02  0.41651320432E+02  0.41800000000E+01 0. -1.
         -5    1    3    3    0  502  0.17096984107E+02  0.11951981358E+03  0.68652828887E+02  0.13895314325E+03  0.41800000000E+01 0. -1.
        -11    1    1    2    0    0  0.21208947853E+01 -0.10557541102E+03  0.71720089454E+02  0.12764966446E+03  0.00000000000E+00 0. -1.
         11    1    1    2    0    0  0.14729985034E+02  0.57354751867E+01  0.32693236305E+02  0.36314127207E+02  0.00000000000E+00 0.  1.
</event>
<event>
 7    1  0.2394257E-009  0.6819809E+02  0.7561462E-02  0.1366330E+00
         -3   -1    0    0    0  501 -0.00000000000E+00  0.00000000000E+00  0.43035651849E+03  0.43035651849E+03  0.00000000000E+00 0.  1.
          3   -1    0    0  501    0  0.00000000000E+00 -0.00000000000E+00 -0.28491560959E+02  0.28491560959E+02  0.00000000000E+00 0. -1.
         25    2    1    2    0    0 -0.25771703740E+02 -0.38918453321E+01  0.21874099472E+03  0.25333397388E+03  0.12510456578E+03 0.  0.
          5    1    3    3  502    0 -0.31516904240E+02  0.45131586754E+01 -0.21363531496E+01  0.32182608019E+02  0.41800000000E+01 0. -1.
         -5    1    3    3    0  502  0.57452005003E+01 -0.84050040076E+01  0.22087734787E+03  0.22115136586E+03  0.41800000000E+01 0. -1.
        -11    1    1    2    0    0  0.51471016271E+02 -0.22738938062E+02  0.11137056504E+03  0.12477871444E+03  0.00000000000E+00 0.  1.
         11    1    1    2    0    0 -0.25699312531E+02  0.26630783394E+02  0.71753397771E+02  0.80735391127E+02  0.00000000000E+00 0. -1.
</event>
<event>
 7    1  0.2394257E-009  0.9490149E+02  0.7561462E-02  0.1291398E+00
          2   -1    0    0  501    0  0.00000000000E+00  0.00000000000E+00  0.75749932169E+02  0.75749932169E+02  0.00000000000E+00 0. -1.
         -2   -1    0    0    0  501 -0.00000000000E+00 -0.00000000000E+00 -0.15670346054E+03  0.15670346054E+03  0.00000000000E+00 0.  1.
         25    2    1    2    0    0  0.92107874238E+01 -0.11410539268E+02 -0.53311697430E+02  0.13675934545E+03  0.12508374184E+03 0.  0.
          5    1    3    3  502    0 -0.22536868225E+02 -0.53208381633E+02  0.50507050036E+01  0.58155174546E+02  0.41800000000E+01 0.  1.
         -5    1    3    3    0  502  0.31747655649E+02  0.41797842365E+02 -0.58362402433E+02  0.78604170903E+02  0.41800000000E+01 0.  1.
        -11    1    1    2    0    0 -0.21345634184E+01  0.44917153097E+02  0.86535757188E+01  0.45792918405E+02  0.00000000000E+00 0. -1.
         11    1    1    2    0    0 -0.70762240054E+01 -0.33506613829E+02 -0.36295406664E+02  0.49901128859E+02  0.00000000000E+00 0.  1.
</event>
<event>
 7    1  0.2394257E-009  0.1005198E+03  0.7561462E-02  0.1279207E+00
          2   -1    0    0  501    0  0.00000000000E+00  0.00000000000E+00  0.39812183714E+03  0.39812183714E+03  0.00000000000E+00 0. -1.
         -2   -1    0    0    0  501 -0.00000000000E+00 -0.00000000000E+00 -0.30287235692E+02  0.30287235692E+02  0.00000000000E+00 0.  1.
         25    2    1    2    0    0  0.62342942804E+00 -0.16442243895E+02  0.20243762893E+03  0.23853362817E+03  0.12508621872E+03 0.  0.
          5    1    3    3  502    0  0.46084890964E+02 -0.35556763743E+02  0.16903055096E+03  0.17882086059E+03  0.41800000000E+01 0.  1.
         -5    1    3    3    0  502 -0.45461461536E+02  0.19114519849E+02  0.33407077966E+02  0.59712767581E+02  0.41800000000E+01 0.  1.
        -11    1    1    2    0    0 -0.45705588219E+02  0.14927020197E+02  0.81759071300E+02  0.94849156381E+02  0.00000000000E+00 0.  1.
         11    1    1    2    0    0  0.45082158791E+02  0.15152236977E+01  0.83637901220E+02  0.95026288282E+02  0.00000000000E+00 0. -1.
</event>
<event>
 7    1  0.2394257E-009  0.9790341E+02  0.7561462E-02  0.1284768E+00
         -2   -1    0    0    0  501 -0.00000000000E+00  0.00000000000E+00  0.44913353131E+02  0.44913353131E+02  0.00000000000E+00 0.  1.
          2   -1    0    0  501    0  0.00000000000E+00 -0.00000000000E+00 -0.28121395483E+03  0.28121395483E+03  0.00000000000E+00 0. -1.
         25    2    1    2    0    0  0.11900988828E+02 -0.21331783549E+02 -0.16949805476E+03  0.21206998665E+03  0.12508960847E+03 0.  0.
          5    1    3    3  502    0 -0.12558619361E+02  0.41338149924E+02 -0.12232777935E+03  0.12980030647E+03  0.41800000000E+01 0.  1.
         -5    1    3    3    0  502  0.24459608190E+02 -0.62669933472E+02 -0.47170275403E+02  0.82269680173E+02  0.41800000000E+01 0.  1.
        -11    1    1    2    0    0 -0.15490589492E+02 -0.29881850490E+02 -0.49542284134E+02  0.59894250715E+02  0.00000000000E+00 0. -1.
         11    1    1    2    0    0  0.35896006638E+01  0.51213634039E+02 -0.17260262810E+02  0.54163070599E+02  0.00000000000E+00 0.  1.
</event>
<event>
 7    1  0.2394257E-009  0.1625423E+03  0.7561462E-02  0.1185856E+00
          4   -1    0    0  501    0  0.00000000000E+00  0.00000000000E+00  0.29895190810E+03  0.29895190810E+03  0.00000000000E+00 0. -1.
         -4   -1    0    0    0  501 -0.00000000000E+00 -0.00000000000E+00 -0.11976962196E+03  0.11976962196E+03  0.00000000000E+00 0.  1.
         25    2    1    2    0    0  0.98194423973E+02  0.10784414568E+03  0.10750813651E+03  0.22017565572E+03  0.12508723077E+03 0.  0.
          5    1    3    3  502    0  0.65501485892E+02  0.48017410571E-01  0.81226371130E+02  0.10443008535E+03  0.41800000000E+01 0. -1.
         -5    1    3    3    0  502  0.32692938081E+02  0.10779612827E+03  0.26281765378E+02  0.11574557037E+03  0.41800000000E+01 0. -1.
        -11    1    1    2    0    0 -0.29310946389E+02 -0.21919156452E+02 -0.31011925665E+02  0.47972080748E+02  0.00000000000E+00 0.  1.
         11    1    1    2    0    0 -0.68883477584E+02 -0.85924989224E+02  0.10268607530E+03  0.15057379360E+03  0.00000000000E+00 0. -1.
</event>
<event>
 7    1  0.2394257E-009  0.1223697E+03  0.7561462E-02  0.1239238E+00
         -1   -1    0    0    0  501 -0.00000000000E+00  0.00000000000E+00  0.28938003451E+02  0.28938003451E+02  0.00000000000E+00 0.  1.
          1   -1    0    0  501    0  0.00000000000E+00 -0.00000000000E+00 -0.79336006464E+03  0.79336006464E+03  0.00000000000E+00 0. -1.
         25    2    1    2    0    0  0.66694234598E+02 -0.78738435696E+02 -0.45279171475E+03  0.48095284775E+03  0.12508973829E+03 0.  0.
          5    1    3    3  502    0 -0.15853948554E+02 -0.47936004691E+01 -0.24345320430E+03  0.24405175962E+03  0.41800000000E+01 0. -1.
         -5    1    3    3    0  502  0.82548183152E+02 -0.73944835227E+02 -0.20933851045E+03  0.23690108813E+03  0.41800000000E+01 0. -1.
        -11    1    1    2    0    0 -0.27386731863E+02  0.71790880950E+02 -0.28018622534E+03  0.29053103886E+03  0.00000000000E+00 0.  1.
         11    1    1    2    0    0 -0.39307502736E+02  0.69475547460E+01 -0.31444121096E+02  0.50814181483E+02  0.00000000000E+00 0. -1.
</event>
<event>
 7    1  0.2394257E-009  0.1140048E+03  0.7561462E-02  0.1253328E+00
          1   -1    0    0  501    0  0.00000000000E+00  0.00000000000E+00  0.12951588047E+03  0.12951588047E+03  0.00000000000E+00 0. -1.
         -1   -1    0    0    0  501 -0.00000000000E+00 -0.00000000000E+00 -0.17639746005E+03  0.17639746005E+03  0.00000000000E+00 0.  1.
         25    2    1    2    0    0 -0.97865526752E+02 -0.37157822195E+02 -0.21850974761E+02  0.16456993596E+03  0.12508970240E+03 0.  0.
          5    1    3    3  502    0 -0.31487724726E+02 -0.30277614958E+02 -0.69689437488E+02  0.82354725871E+02  0.41800000000E+01 0.  1.
         -5    1    3    3    0  502 -0.66377802026E+02 -0.68802072373E+01  0.47838462727E+02  0.82215210086E+02  0.41800000000E+01 0.  1.
        -11    1    1    2    0    0  0.58141299337E+02 -0.61854294484E+01 -0.50511106549E+02  0.77266047595E+02  0.00000000000E+00 0.  1.
         11    1    1    2    0    0  0.39724227415E+02  0.43343251644E+02  0.25480501735E+02  0.64077356964E+02  0.00000000000E+00 0. -1.
</event>
<event>
 7    1  0.2394257E-009  0.9926098E+02  0.7561462E-02  0.1281858E+00
          3   -1    0    0  501    0  0.00000000000E+00  0.00000000000E+00  0.43378129533E+03  0.43378129533E+03  0.00000000000E+00 0. -1.
         -3   -1    0    0    0  501 -0.00000000000E+00 -0.00000000000E+00 -0.33822074867E+02  0.33822074867E+02  0.00000000000E+00 0.  1.
         25    2    1    2    0    0 -0.48187070512E+02  0.15464242777E+02  0.19648877814E+03  0.23836427267E+03  0.12509416444E+03 0.  0.
          5    1    3    3  502    0  0.31240496798E+02 -0.21570112437E+02  0.10441981077E+03  0.11118546520E+03  0.41800000000E+01 0.  1.
         -5    1    3    3    0  502 -0.79427567309E+02  0.37034355214E+02  0.92068967373E+02  0.12717880746E+03  0.41800000000E+01 0.  1.
        -11    1    1    2    0    0  0.26724760797E+02 -0.34681290097E+02  0.29255292264E+02  0.52658112841E+02  0.00000000000E+00 0.  1.
         11    1    1    2    0    0  0.21462309715E+02  0.19217047320E+02  0.17421515005E+03  0.17658098469E+03  0.00000000000E+00 0. -1.
</event>
<event>
 7    1  0.2394257E-009  0.7580133E+02  0.7561462E-02  0.1341407E+00
         -1   -1    0    0    0  501 -0.00000000000E+00  0.00000000000E+00  0.85938827906E+02  0.85938827906E+02  0.00000000000E+00 0.  1.
          1   -1    0    0  501    0  0.00000000000E+00 -0.00000000000E+00 -0.16494525000E+03  0.16494525000E+03  0.00000000000E+00 0. -1.
         25    2    1    2    0    0 -0.50092842903E+01  0.51081799239E+02 -0.44058281315E+02  0.14220523569E+03  0.12508698478E+03 0.  0.
          5    1    3    3  502    0  0.70465397095E+01  0.47224429651E+02 -0.85858558442E+02  0.98330895121E+02  0.41800000000E+01 0.  1.
         -5    1    3    3    0  502 -0.12055824000E+02  0.38573695883E+01  0.41800277126E+02  0.43874340568E+02  0.41800000000E+01 0.  1.
        -11    1    1    2    0    0  0.23720284441E+02  0.10529802085E+02 -0.35879840626E+02  0.44281955572E+02  0.00000000000E+00 0. -1.
         11    1    1    2    0    0 -0.18711000151E+02 -0.61611601324E+02  0.93169985220E+00  0.64396886640E+02  0.00000000000E+00 0.  1.
</event>
<event>
 7    1  0.2394257E-009  0.2037947E+03  0.7561462E-02  0.1146576E+00
          1   -1    0    0  501    0  0.00000000000E+00  0.00000000000E+00  0.26020840201E+03  0.26020840201E+03  0.00000000000E+00 0. -1.
         -1   -1    0    0    0  501 -0.00000000000E+00 -0.00000000000E+00 -0.27050116683E+03  0.27050116683E+03  0.00000000000E+00 0.  1.
         25    2    1    2    0    0  0.17018977727E+03 -0.63037095775E+02 -0.16541067791E+03  0.27558366170E+03  0.12508967383E+03 0.  0.
          5    1    3    3  502    0 -0.16603750684E+02 -0.23982182068E+02 -0.19696062066E+02  0.35443431753E+02  0.41800000000E+01 0.  1.
         -5    1    3    3    0  502  0.18679352795E+03 -0.39054913707E+02 -0.14571461585E+03  0.24014022995E+03  0.41800000000E+01 0.  1.
        -11    1    1    2    0    0 -0.43196218534E+02  0.38580516118E+02  0.97807820653E+02  0.11366942993E+03  0.00000000000E+00 0. -1.
         11    1    1    2    0    0 -0.12699355873E+03  0.24456579657E+02  0.57310092446E+02  0.14145647721E+03  0.00000000000E+00 0.  1.
</event>
<event>
 7    1  0.2394257E-009  0.1228904E+03  0.7561462E-02  0.1238403E+00
          2   -1    0    0  501    0  0.00000000000E+00  0.00000000000E+00  0.59628443397E+03  0.59628443397E+03  0.00000000000E+00 0. -1.
         -2   -1    0    0    0  501 -0.00000000000E+00 -0.00000000000E+00 -0.26860237592E+02  0.26860237592E+02  0.00000000000E+00 0.  1.
         25    2    1    2    0    0  0.45421433601E+02  0.44370712490E+02  0.26714761151E+03  0.30174026752E+03  0.12508987149E+03 0.  0.
          5    1    3    3  502    0  0.10343731502E+02 -0.43569509217E+02  0.74005162909E+02  0.86599835173E+02  0.41800000000E+01 0. -1.
         -5    1    3    3    0  502  0.35077702099E+02  0.87940221707E+02  0.19314244860E+03  0.21514043234E+03  0.41800000000E+01 0. -1.
        -11    1    1    2    0    0 -0.39835736181E+02  0.17787614092E+02  0.16387294621E+03  0.16958074063E+03  0.00000000000E+00 0.  1.
         11    1    1    2    0    0 -0.55856974203E+01 -0.62158326582E+02  0.13840363866E+03  0.15182366342E+03  0.00000000000E+00 0. -1.
</event>
<event>
 7    1  0.2394257E-009  0.9983055E+02  0.7561462E-02  0.1280653E+00
         -2   -1    0    0    0  501 -0.00000000000E+00  0.00000000000E+00  0.10240468280E+03  0.10240468280E+03  0.00000000000E+00 0.  1.
          2   -1    0    0  501    0  0.00000000000E+00 -0.00000000000E+00 -0.13685299104E+03  0.13685299104E+03  0.00000000000E+00 0. -1.
         25    2    1    2    0    0  0.23226694513E+01  0.46667563680E+02 -0.91119123440E+01  0.13385034295E+03  0.12509848548E+03 0.  0.
          5    1    3    3  502    0  0.50832229836E+02  0.48733531768E+02  0.24470309760E+02  0.74666867944E+02  0.41800000000E+01 0. -1.
         -5    1    3    3    0  502 -0.48509560385E+02 -0.20659680883E+01 -0.33582222104E+02  0.59183475011E+02  0.41800000000E+01 0. -1.
        -11    1    1    2    0    0 -0.14224161616E+02 -0.60492679949E+02  0.12514268743E+02  0.63390046721E+02  0.00000000000E+00 0.  1.
         11    1    1    2    0    0  0.11901492164E+02  0.13825116269E+02 -0.37850664637E+02  0.42017284170E+02  0.00000000000E+00 0. -1.
</event>
<event>
 7    1  0.2394257E-009  0.9283375E+02  0.7561462E-02  0.1296131E+00
          1   -1    0    0  501    0  0.00000000000E+00  0.00000000000E+00  0.44453617210E+02  0.44453617210E+02  0.00000000000E+00 0. -1.
         -1   -1    0    0    0  501 -0.00000000000E+00 -0.00000000000E+00 -0.34606382919E+03  0.34606382919E+03  0.00000000000E+00 0.  1.
         25    2    1    2    0    0 -0.44924948914E+02 -0.28131123732E+02 -0.21288682081E+03  0.25254164500E+03  0.12508746071E+03 0.  0.
          5    1    3    3  502    0 -0.39048327991E+02  0.10871636507E+02 -0.20871890496E+03  0.21265939454E+03  0.41800000000E+01 0. -1.
         -5    1    3    3    0  502 -0.58766209225E+01 -0.39002760239E+02 -0.41679158586E+01  0.39882250467E+02  0.41800000000E+01 0. -1.
        -11    1    1    2    0    0  0.19378051160E+02 -0.33409547943E+02 -0.38514236783E+02  0.54544048213E+02  0.00000000000E+00 0.  1.
         11    1    1    2    0    0  0.25546897754E+02  0.61540671675E+02 -0.50209154379E+02  0.83431753179E+02  0.00000000000E+00 0. -1.
</event>
<event>
 7    1  0.2394257E-009  0.1950114E+03  0.7561462E-02  0.1154017E+00
         -1   -1    0    0    0  501 -0.00000000000E+00  0.00000000000E+00  0.72492329193E+02  0.72492329193E+02  0.00000000000E+00 0.  1.
          1   -1    0    0  501    0  0.00000000000E+00 -0.00000000000E+00 -0.63721455250E+03  0.63721455250E+03  0.00000000000E+00 0. -1.
         25    2    1    2    0    0  0.28774924442E+01  0.17468578606E+03 -0.39700158109E+03  0.45142127037E+03  0.12508998419E+03 0.  0.
          5    1    3    3  502    0 -0.58571053115E+02  0.58222343517E+02 -0.16727118317E+03  0.18659456227E+03  0.41800000000E+01 0.  1.
         -5    1    3    3    0  502  0.61448545559E+02  0.11646344255E+03 -0.22973039791E+03  0.26482670811E+03  0.41800000000E+01 0.  1.
        -11    1    1    2    0    0  0.57747108113E+01 -0.12627608527E+03 -0.16655854099E+03  0.20909506109E+03  0.00000000000E+00 0. -1.
         11    1    1    2    0    0 -0.86522032555E+01 -0.48409700795E+02 -0.11621012275E+01  0.49190550226E+02  0.00000000000E+00 0.  1.
</event>
<event>
 7    1  0.2394257E-009  0.9665364E+02  0.7561462E-02  0.1287495E+00
         -1   -1    0    0    0  501 -0.00000000000E+00  0.00000000000E+00  0.10978313753E+03  0.10978313753E+03  0.00000000000E+00 0.  1.
          1   -1    0    0  501    0  0.00000000000E+00 -0.00000000000E+00 -0.11875482230E+03  0.11875482230E+03  0.00000000000E+00 0. -1.
         25    2    1    2    0    0  0.26599632137E+02 -0.14439955065E+02 -0.18677035860E+01  0.12872965088E+03  0.12510708200E+03 0.  0.
          5    1    3    3  502    0  0.69544659789E+02  0.97986029825E+01  0.22094849037E+02  0.73743657894E+02  0.41800000000E+01 0.  1.
         -5    1    3    3    0  502 -0.42945027653E+02 -0.24238558047E+02 -0.23962552623E+02  0.54985992985E+02  0.41800000000E+01 0.  1.
        -11    1    1    2    0    0  0.22309592642E+02 -0.51949063675E+00  0.29444789137E+02  0.36945681774E+02  0.00000000000E+00 0.  1.
         11    1    1    2    0    0 -0.48909224779E+02  0.14959445702E+02 -0.36548770325E+02  0.62862627184E+02  0.00000000000E+00 0. -1.
</event>
<event>
 7    1  0.2394257E-009  0.2975578E+03  0.7561462E-02  0.1086468E+00
         -2   -1    0    0    0  501 -0.00000000000E+00  0.00000000000E+00  0.19995777141E+04  0.19995777141E+04  0.00000000000E+00 0.  1.
          2   -1    0    0  501    0  0.00000000000E+00 -0.00000000000E+00 -0.49514423480E+02  0.49514423480E+02  0.00000000000E+00 0. -1.
         25    2    1    2    0    0  0.17601474058E+03  0.22618026432E+03  0.76444462855E+03  0.82593077188E+03  0.12508936384E+03 0.  0.
          5    1    3    3  502    0  0.29484793272E+02  0.10023159261E+03  0.15825615248E+03  0.18967922235E+03  0.41800000000E+01 0. -1.
         -5    1    3    3    0  502  0.14652994731E+03  0.12594867171E+03  0.60618847607E+03  0.63625154953E+03  0.41800000000E+01 0. -1.
        -11    1    1    2    0    0 -0.31428664558E+02 -0.10187656935E+03  0.51744334387E+03  0.52831260675E+03  0.00000000000E+00 0.  1.
         11    1    1    2    0    0 -0.14458607602E+03 -0.12430369498E+03  0.66817531824E+03  0.69484875899E+03  0.00000000000E+00 0. -1.
</event>
<event>
 7    1  0.2394257E-009  0.1873188E+03  0.7561462E-02  0.1160902E+00
          3   -1    0    0  501    0  0.00000000000E+00  0.00000000000E+00  0.55434687897E+02  0.55434687897E+02  0.00000000000E+00 0. -1.
         -3   -1    0    0    0  501 -0.00000000000E+00 -0.00000000000E+00 -0.86993266533E+03  0.86993266533E+03  0.00000000000E+00 0.  1.
         25    2    1    2    0    0  0.53932151536E+02 -0.17387843808E+03 -0.54383321010E+03  0.58697906121E+03  0.12508984649E+03 0.  0.
          5    1    3    3  502    0  0.81428813499E+01 -0.86452555629E+02 -0.10099852575E+03  0.13326111772E+03  0.41800000000E+01 0.  1.
         -5    1    3    3    0  502  0.45789270186E+02 -0.87425882447E+02 -0.44283468435E+03  0.45371794349E+03  0.41800000000E+01 0.  1.
        -11    1    1    2    0    0 -0.48637705935E+02  0.71895895855E+02 -0.63919960076E+02  0.10779799430E+03  0.00000000000E+00 0. -1.
         11    1    1    2    0    0 -0.52944456010E+01  0.10198254222E+03 -0.20674480726E+03  0.23059029771E+03  0.00000000000E+00 0.  1.
</event>
<event>
 7    1  0.2394257E-009  0.1132011E+03  0.7561462E-02  0.1254754E+00
         -1   -1    0    0    0  501 -0.00000000000E+00  0.00000000000E+00  0.11576847178E+03  0.11576847178E+03  0.00000000000E+00 0.  1.
          1   -1    0    0  501    0  0.00000000000E+00 -0.00000000000E+00 -0.18721244221E+03  0.18721244221E+03  0.00000000000E+00 0. -1.
         25    2    1    2    0    0 -0.21105740556E+02  0.40919094548E+02  0.51379123017E+02  0.14285073126E+03  0.12508674013E+03 0.  0.
          5    1    3    3  502    0 -0.40450740247E+02 -0.29901111307E+02  0.47347012506E+02  0.69206580880E+02  0.41800000000E+01 0.  1.
         -5    1    3    3    0  502  0.19344999691E+02  0.70820205856E+02  0.40321105115E+01  0.73644150383E+02  0.41800000000E+01 0.  1.
        -11    1    1    2    0    0  0.93509936077E+00  0.29309714746E+02 -0.41333516193E+02  0.50679318762E+02  0.00000000000E+00 0. -1.
         11    1    1    2    0    0  0.20170641195E+02 -0.70228809295E+02 -0.81489577251E+02  0.10945086396E+03  0.00000000000E+00 0.  1.
</event>
<event>
 7    1  0.2394257E-009  0.1176899E+03  0.7561462E-02  0.1246957E+00
          2   -1    0    0  501    0  0.00000000000E+00  0.00000000000E+00  0.12426961394E+03  0.12426961394E+03  0.00000000000E+00 0.  1.
         -2   -1    0    0    0  501 -0.00000000000E+00 -0.00000000000E+00 -0.11754259531E+03  0.11754259531E+03  0.00000000000E+00 0. -1.
         25    2    1    2    0    0 -0.46839692096E+02 -0.13042176054E+02 -0.18156169952E+02  0.13541748278E+03  0.12507674853E+03 0.  0.
          5    1    3    3  502    0  0.42313573681E+02  0.53598918986E+00 -0.14977076122E+02  0.45083378437E+02  0.41800000000E+01 0.  1.
         -5    1    3    3    0  502 -0.89153265777E+02 -0.13578165244E+02 -0.31790938304E+01  0.90334104344E+02  0.41800000000E+01 0.  1.
        -11    1    1    2    0    0  0.60469154446E+02  0.39909580721E+02  0.11224408627E+02  0.73316305293E+02  0.00000000000E+00 0.  1.
         11    1    1    2    0    0 -0.13629462351E+02 -0.26867404666E+02  0.13658779956E+02  0.33078421174E+02  0.00000000000E+00 0. -1.
</event>
<event>
 7    1  0.2394257E-009  0.1691857E+03  0.7561462E-02  0.1178700E+00
          4   -1    0    0  501    0  0.00000000000E+00  0.00000000000E+00  0.21693840242E+03  0.21693840242E+03  0.00000000000E+00 0. -1.
         -4   -1    0    0    0  501 -0.00000000000E+00 -0.00000000000E+00 -0.16258903869E+03  0.16258903869E+03  0.00000000000E+00 0.  1.
         25    2    1    2    0    0  0.10113296017E+03 -0.10888999851E+03 -0.97047293143E+01  0.19448935860E+03  0.12508805470E+03 0.  0.
          5    1    3    3  502    0 -0.95379280402E+01 -0.55288193032E+02 -0.38440694533E+02  0.68138944490E+02  0.41800000000E+01 0. -1.
         -5    1    3    3    0  502  0.11067088821E+03 -0.53601805483E+02  0.28735965218E+02  0.12635041411E+03  0.41800000000E+01 0. -1.
        -11    1    1    2    0    0 -0.30743072484E+02  0.74779407648E+02 -0.45717849734E+01  0.80981464125E+02  0.00000000000E+00 0. -1.
         11    1    1    2    0    0 -0.70389887686E+02  0.34110590867E+02  0.68625878010E+02  0.10405661839E+03  0.00000000000E+00 0.  1.
</event>
<event>
 7    1  0.2394257E-009  0.2125466E+03  0.7561462E-02  0.1139565E+00
         -1   -1    0    0    0  501 -0.00000000000E+00  0.00000000000E+00  0.23929113144E+03  0.23929113144E+03  0.00000000000E+00 0.  1.
          1   -1    0    0  501    0  0.00000000000E+00 -0.00000000000E+00 -0.19795497466E+03  0.19795497466E+03  0.00000000000E+00 0. -1.
         25    2    1    2    0    0 -0.17600595405E+03 -0.69188462660E+02  0.66190430027E+01  0.22683819151E+03  0.12508642681E+03 0.  0.
          5    1    3    3  502    0 -0.10843021154E+03  0.18532649580E+02 -0.22296294226E+02  0.11231726052E+03  0.41800000000E+01 0.  1.
         -5    1    3    3    0  502 -0.67575742512E+02 -0.87721112240E+02  0.28915337229E+02  0.11452093099E+03  0.41800000000E+01 0.  1.
        -11    1    1    2    0    0  0.11873913261E+02  0.34441778175E+02 -0.79701429607E+01  0.37292748340E+02  0.00000000000E+00 0. -1.
         11    1    1    2    0    0  0.16413204079E+03  0.34746684485E+02  0.42687256736E+02  0.17311516624E+03  0.00000000000E+00 0.  1.
</event>
<event>
 7    1  0.2394257E-009  0.1439616E+03  0.7561462E-02  0.1208096E+00
         -2   -1    0    0    0  501 -0.00000000000E+00  0.00000000000E+00  0.25660756346E+02  0.25660756346E+02  0.00000000000E+00 0.  1.
          2   -1    0    0  501    0  0.00000000000E+00 -0.00000000000E+00 -0.87999951025E+03  0.87999951025E+03  0.00000000000E+00 0. -1.
         25    2    1    2    0    0  0.94185237115E+02 -0.41708100735E+02 -0.42578772865E+03  0.45558064465E+03  0.12509240325E+03 0.  0.
          5    1    3    3  502    0 -0.28851696142E+02 -0.78706819836E+01 -0.47090390331E+02  0.55940551183E+02  0.41800000000E+01 0. -1.
         -5    1    3    3    0  502  0.12303693326E+03 -0.33837418752E+02 -0.37869733832E+03  0.39964009346E+03  0.41800000000E+01 0. -1.
        -11    1    1    2    0    0 -0.73785468071E+02  0.65534429602E+02 -0.24961367802E+03  0.26841394341E+03  0.00000000000E+00 0.  1.
         11    1    1    2    0    0 -0.20399769044E+02 -0.23826328867E+02 -0.17893734723E+03  0.18166567854E+03  0.00000000000E+00 0. -1.
</event>
<event>
 7    1  0.2394257E-009  0.2152453E+03  0.7561462E-02  0.1137478E+00
         -1   -1    0    0    0  501 -0.00000000000E+00  0.00000000000E+00  0.49845798819E+03  0.49845798819E+03  0.00000000000E+00 0.  1.
          1   -1    0    0  501    0  0.00000000000E+00 -0.00000000000E+00 -0.12939936212E+03  0.12939936212E+03  0.00000000000E+00 0. -1.
         25    2    1    2    0    0  0.19883750265E+03 -0.19282802146E+02  0.51067754972E+02  0.24117254733E+03  0.12509237815E+03 0.  0.
          5    1    3    3  502    0  0.80361694404E+02 -0.64039758617E+02 -0.41984623098E+01  0.10292809187E+03  0.41800000000E+01 0.  1.
         -5    1    3    3    0  502  0.11847580824E+03  0.44756956471E+02  0.55266217282E+02  0.13824445545E+03  0.41800000000E+01 0.  1.
        -11    1    1    2    0    0 -0.14768376503E+03  0.23756012900E+02  0.29430400822E+03  0.33013586878E+03  0.00000000000E+00 0. -1.
         11    1    1    2    0    0 -0.51153737616E+02 -0.44732107545E+01  0.23686862872E+02  0.56548934201E+02  0.00000000000E+00 0.  1.
</event>
<event>
 7    1  0.2394257E-009  0.1169695E+03  0.7561462E-02  0.1248182E+00
         -1   -1    0    0    0  501 -0.00000000000E+00  0.00000000000E+00  0.19511924186E+03  0.19511924186E+03  0.00000000000E+00 0.  1.
          1   -1    0    0  501    0  0.00000000000E+00 -0.00000000000E+00 -0.12193224969E+03  0.12193224969E+03  0.00000000000E+00 0. -1.
         25    2    1    2    0    0 -0.83621291480E+02 -0.68454244918E+02  0.36418505000E+02  0.16927017555E+03  0.12509029055E+03 0.  0.
          5    1    3    3  502    0 -0.23956919625E+02 -0.54927961451E+02  0.75554729970E+02  0.96524631923E+02  0.41800000000E+01 0.  1.
         -5    1    3    3    0  502 -0.59664371855E+02 -0.13526283467E+02 -0.39136224970E+02  0.72745543631E+02  0.41800000000E+01 0.  1.
        -11    1    1    2    0    0  0.27407835653E+02  0.51509749607E+01  0.54558436545E+02  0.61272710047E+02  0.00000000000E+00 0.  1.
         11    1    1    2    0    0  0.56213455826E+02  0.63303269957E+02 -0.17789949373E+02  0.86508605942E+02  0.00000000000E+00 0. -1.
</event>
<event>
 7    1  0.2394257E-009  0.9356999E+02  0.7561462E-02  0.1294430E+00
         -2   -1    0    0    0  501 -0.00000000000E+00  0.00000000000E+00  0.17389545147E+03  0.17389545147E+03  0.00000000000E+00 0.  1.
          2   -1    0    0  501    0  0.00000000000E+00 -0.00000000000E+00 -0.99638919654E+02  0.99638919654E+02  0.00000000000E+00 0. -1.
         25    2    1    2    0    0  0.14968034820E+02  0.11996846985E+02 -0.33846367873E+02  0.13100225841E+03  0.12509216077E+03 0.  0.
          5    1    3    3  502    0  0.40690344950E+02 -0.45738277952E+02 -0.55059253423E+01  0.61607482143E+02  0.41800000000E+01 0.  1.
         -5    1    3    3    0  502 -0.25722310130E+02  0.57735124937E+02 -0.28340442530E+02  0.69394776264E+02  0.41800000000E+01 0.  1.
        -11    1    1    2    0    0  0.14561456592E+02  0.16076453884E+02 -0.50467624993E+01  0.22270118978E+02  0.00000000000E+00 0. -1.
         11    1    1    2    0    0 -0.29529491413E+02 -0.28073300869E+02  0.11314966219E+03  0.12026199374E+03  0.00000000000E+00 0.  1.
</event>
<event>
 7    1  0.2394257E-009  0.9340118E+02  0.7561462E-02  0.1294818E+00
         -4   -1    0    0    0  501 -0.00000000000E+00  0.00000000000E+00  0.72828027051E+01  0.72828027051E+01  0.00000000000E+00 0.  1.
          4   -1    0    0  501    0  0.00000000000E+00 -0.00000000000E+00 -0.19008634435E+04  0.19008634435E+04  0.00000000000E+00 0. -1.
         25    2    1    2    0    0  0.26114997853E+02 -0.99943918016E+01 -0.13311369587E+04  0.13372938178E+04  0.12508905367E+03 0.  0.
          5    1    3    3  502    0 -0.65176489937E+01  0.33696147125E+02 -0.11892896356E+03  0.12385265784E+03  0.41800000000E+01 0. -1.
         -5    1    3    3    0  502  0.32632646847E+02 -0.43690538927E+02 -0.12122079952E+04  0.12134411600E+04  0.41800000000E+01 0. -1.
        -11    1    1    2    0    0  0.18712658246E+02  0.39610782623E+02 -0.24091551361E+03  0.24486621322E+03  0.00000000000E+00 0. -1.
         11    1    1    2    0    0 -0.44827656099E+02 -0.29616390821E+02 -0.32152816845E+03  0.32598621514E+03  0.00000000000E+00 0.  1.
</event>
<event>
 7    1  0.2394257E-009  0.1084131E+03  0.7561462E-02  0.1263537E+00
          2   -1    0    0  501    0  0.00000000000E+00  0.00000000000E+00  0.35494540601E+03  0.35494540601E+03  0.00000000000E+00 0.  1.
         -2   -1    0    0    0  501 -0.00000000000E+00 -0.00000000000E+00 -0.39620921023E+02  0.39620921023E+02  0.00000000000E+00 0. -1.
         25    2    1    2    0    0  0.43333427809E+01 -0.39808238375E+02  0.23093614131E+03  0.26567271996E+03  0.12508804525E+03 0.  0.
          5    1    3    3  502    0  0.44255559859E+02  0.20164846436E+02  0.14744690277E+03  0.15531657074E+03  0.41800000000E+01 0.  1.
         -5    1    3    3    0  502 -0.39922217078E+02 -0.59973084811E+02  0.83489238538E+02  0.11035614922E+03  0.41800000000E+01 0.  1.
        -11    1    1    2    0    0 -0.41964603008E+02  0.12706700829E+01  0.25657462565E+02  0.49203128898E+02  0.00000000000E+00 0.  1.
         11    1    1    2    0    0  0.37631260227E+02  0.38537568292E+02  0.58730881120E+02  0.79690478185E+02  0.00000000000E+00 0. -1.
</event>
<event>
 7    1  0.2394257E-009  0.1039063E+03  0.7561462E-02  0.1272290E+00
          1   -1    0    0  501    0  0.00000000000E+00  0.00000000000E+00  0.23178986759E+03  0.23178986759E+03  0.00000000000E+00 0. -1.
         -1   -1    0    0    0  501 -0.00000000000E+00 -0.00000000000E+00 -0.58857199148E+02  0.58857199148E+02  0.00000000000E+00 0.  1.
         25    2    1    2    0    0 -0.28398171915E+02  0.44844142485E+01  0.71550840639E+02  0.14694744397E+03  0.12508981714E+03 0.  0.
          5    1    3    3  502    0 -0.25815482591E+02 -0.48087963546E+02  0.76331370502E+02  0.93929984042E+02  0.41800000000E+01 0. -1.
         -5    1    3    3    0  502 -0.25826893244E+01  0.52572377795E+02 -0.47805298633E+01  0.53017459925E+02  0.41800000000E+01 0. -1.
        -11    1    1    2    0    0 -0.26017524636E+02 -0.30389018342E+02  0.53067359282E+02  0.66457118845E+02  0.00000000000E+00 0. -1.
         11    1    1    2    0    0  0.54415696551E+02  0.25904604094E+02  0.48314468523E+02  0.77242503928E+02  0.00000000000E+00 0.  1.
</event>
<event>
 7    1  0.2394257E-009  0.1017951E+03  0.7561462E-02  0.1276566E+00
         -1   -1    0    0    0  501 -0.00000000000E+00  0.00000000000E+00  0.28498877206E+02  0.28498877206E+02  0.00000000000E+00 0.  1.
          1   -1    0    0  501    0  0.00000000000E+00 -0.00000000000E+00 -0.62496055617E+03  0.62496055617E+03  0.00000000000E+00 0. -1.
         25    2    1    2    0    0  0.28657051474E+01 -0.68926214381E+02 -0.39419808072E+03  0.41928321177E+03  0.12508896646E+03 0.  0.
          5    1    3    3  502    0  0.54550681692E+02 -0.13324518103E+02 -0.25007083909E+03  0.25633223875E+03  0.41800000000E+01 0. -1.
         -5    1    3    3    0  502 -0.51684976545E+02 -0.55601696277E+02 -0.14412724163E+03  0.16295097302E+03  0.41800000000E+01 0. -1.
        -11    1    1    2    0    0 -0.10457741652E+02  0.39093881480E+02 -0.19916797082E+03  0.20323773402E+03  0.00000000000E+00 0. -1.
         11    1    1    2    0    0  0.75920365050E+01  0.29832332900E+02 -0.30956274152E+01  0.30938487579E+02  0.00000000000E+00 0.  1.
</event>
<event>
 7    1  0.2394257E-009  0.9757762E+02  0.7561462E-02  0.1285474E+00
          1   -1    0    0  501    0  0.00000000000E+00  0.00000000000E+00  0.54155919788E+03  0.54155919788E+03  0.00000000000E+00 0. -1.
         -1   -1    0    0    0  501 -0.00000000000E+00 -0.00000000000E+00 -0.22204827068E+02  0.22204827068E+02  0.00000000000E+00 0.  1.
         25    2    1    2    0    0 -0.14129811724E+02 -0.84770805795E+01  0.32289836284E+03  0.34667293270E+03  0.12508899661E+03 0.  0.
          5    1    3    3  502    0  0.35068306732E+02  0.25304965390E+02  0.45558418136E+02  0.62953707385E+02  0.41800000000E+01 0. -1.
         -5    1    3    3    0  502 -0.49198118456E+02 -0.33782045969E+02  0.27733994470E+03  0.28371922532E+03  0.41800000000E+01 0. -1.
        -11    1    1    2    0    0  0.49811250026E+02 -0.11314128933E+02  0.97949205777E+02  0.11046817214E+03  0.00000000000E+00 0.  1.
         11    1    1    2    0    0 -0.35681438302E+02  0.19791209513E+02  0.98506802205E+02  0.10662292011E+03  0.00000000000E+00 0. -1.
</event>
<event>
 7    1  0.2394257E-009  0.1045531E+03  0.7561462E-02  0.1271003E+00
         -2   -1    0    0    0  501 -0.00000000000E+00  0.00000000000E+00  0.17470692735E+03  0.17470692735E+03  0.00000000000E+00 0.  1.
          2   -1    0    0  501    0  0.00000000000E+00 -0.00000000000E+00 -0.72415841798E+02  0.72415841798E+02  0.00000000000E+00 0. -1.
         25    2    1    2    0    0  0.21132646078E+02 -0.23642243212E+00  0.85185377540E+02  0.15281419439E+03  0.12509590255E+03 0.  0.
          5    1    3    3  502    0  0.68665846373E+02  0.62406946896E+00  0.78894990510E+02  0.10467702636E+03  0.41800000000E+01 0. -1.
         -5    1    3    3    0  502 -0.47533200295E+02 -0.86049190107E+00  0.62903870297E+01  0.48137168026E+02  0.41800000000E+01 0. -1.
        -11    1    1    2    0    0  0.10479894439E+02  0.40249777775E+02  0.10426219433E+02  0.42878652614E+02  0.00000000000E+00 0.  1.
         11    1    1    2    0    0 -0.31612540517E+02 -0.40013355343E+02  0.66794885750E+01  0.51429922140E+02  0.00000000000E+00 0. -1.
</event>
<event>
 7    1  0.2394257E-009  0.9631552E+02  0.7561462E-02  0.1288240E+00
          2   -1    0    0  501    0  0.00000000000E+00  0.00000000000E+00  0.72314635453E+03  0.72314635453E+03  0.00000000000E+00 0. -1.
         -2   -1    0    0    0  501 -0.00000000000E+00 -0.00000000000E+00 -0.26710056013E+02  0.26710056013E+02  0.00000000000E+00 0.  1.
         25    2    1    2    0    0  0.50886250460E+02 -0.32876259254E+02  0.20567093582E+03  0.24822961099E+03  0.12508855672E+03 0.  0.
          5    1    3    3  502    0  0.12152827771E+02  0.19721932809E+02  0.17387424809E+03  0.17546045824E+03  0.41800000000E+01 0.  1.
         -5    1    3    3    0  502  0.38733422689E+02 -0.52598192063E+02  0.31796687732E+02  0.72769152752E+02  0.41800000000E+01 0.  1.
        -11    1    1    2    0    0 -0.19459532857E+02  0.59404249494E+02  0.31045658050E+03  0.31668726948E+03  0.00000000000E+00 0. -1.
         11    1    1    2    0    0 -0.31426717603E+02 -0.26527990241E+02  0.18030878220E+03  0.18493953008E+03  0.00000000000E+00 0.  1.
</event>
<event>
 7    1  0.2394257E-009  0.6782499E+02  0.7561462E-02  0.1367649E+00
         -2   -1    0    0    0  501 -0.00000000000E+00  0.00000000000E+00  0.11786432504E+02  0.11786432504E+02  0.00000000000E+00 0.  1.
          2   -1    0    0  501    0  0.00000000000E+00 -0.00000000000E+00 -0.10889147171E+04  0.10889147171E+04  0.00000000000E+00 0. -1.
         25    2    1    2    0    0 -0.26991095913E+02 -0.86608976805E+01 -0.62819477418E+03  0.64115446327E+03  0.12508733371E+03 0.  0.
          5    1    3    3  502    0 -0.13511229094E+02 -0.17007371606E+02 -0.12829789235E+02  0.25571075308E+02  0.41800000000E+01 0. -1.
         -5    1    3    3    0  502 -0.13479866818E+02  0.83464739254E+01 -0.61536498495E+03  0.61558338796E+03  0.41800000000E+01 0. -1.
        -11    1    1    2    0    0  0.54661786862E+02 -0.19133853740E+02 -0.29977913855E+03  0.30532203853E+03  0.00000000000E+00 0.  1.
         11    1    1    2    0    0 -0.27670690949E+02  0.27794751421E+02 -0.14915437185E+03  0.15422464779E+03  0.00000000000E+00 0. -1.
</event>
<event>
 7    1  0.2394257E-009  0.1247596E+03  0.7561462E-02  0.1235446E+00
          2   -1    0    0  501    0  0.00000000000E+00  0.00000000000E+00  0.32187362699E+02  0.32187362699E+02  0.00000000000E+00 0. -1.
         -2   -1    0    0    0  501 -0.00000000000E+00 -0.00000000000E+00 -0.60516911823E+03  0.60516911823E+03  0.00000000000E+00 0.  1.
         25    2    1    2    0    0  0.26529394546E+02 -0.69990647549E+02 -0.21608192450E+03  0.26065603231E+03  0.12509064540E+03 0.  0.
          5    1    3    3  502    0  0.56639279008E+02  0.12225151261E+02 -0.83794107696E+02  0.10196267520E+03  0.41800000000E+01 0.  1.
         -5    1    3    3    0  502 -0.30109884462E+02 -0.82215798810E+02 -0.13228781680E+03  0.15869335711E+03  0.41800000000E+01 0.  1.
        -11    1    1    2    0    0 -0.15439344207E+02  0.84279312861E+02 -0.34393354795E+03  0.35444556893E+03  0.00000000000E+00 0.  1.
         11    1    1    2    0    0 -0.11090050340E+02 -0.14288665312E+02 -0.12966283075E+02  0.22254879683E+02  0.00000000000E+00 0. -1.
</event>
<event>
 7    1  0.2394257E-009  0.2406534E+03  0.7561462E-02  0.1119358E+00
          2   -1    0    0  501    0  0.00000000000E+00  0.00000000000E+00  0.39551927755E+02  0.39551927755E+02  0.00000000000E+00 0. -1.
         -2   -1    0    0    0  501 -0.00000000000E+00 -0.00000000000E+00 -0.17838198113E+04  0.17838198113E+04  0.00000000000E+00 0.  1.
         25    2    1    2    0    0 -0.13666022023E+03  0.18846281126E+03 -0.11567478004E+04  0.11865528780E+04  0.12509201182E+03 0.  0.
          5    1    3    3  502    0 -0.71933408595E+02  0.32480865573E+02 -0.20082825638E+03  0.21582141428E+03  0.41800000000E+01 0. -1.
         -5    1    3    3    0  502 -0.64726811640E+02  0.15598194569E+03 -0.95591954405E+03  0.97073146370E+03  0.41800000000E+01 0. -1.
        -11    1    1    2    0    0  0.96442720753E+02 -0.12017211425E+03 -0.47365348196E+03  0.49808649490E+03  0.00000000000E+00 0.  1.
         11    1    1    2    0    0  0.40217499482E+02 -0.68290697010E+02 -0.11386660110E+03  0.13873236612E+03  0.00000000000E+00 0. -1.
</event>
<event>
 7    1  0.2394257E-009  0.1167367E+03  0.7561462E-02  0.1248580E+00
         -2   -1    0    0    0  501 -0.00000000000E+00  0.00000000000E+00  0.21185436435E+02  0.21185436435E+02  0.00000000000E+00 0.  1.
          2   -1    0    0  501    0  0.00000000000E+00 -0.00000000000E+00 -0.83710434302E+03  0.83710434302E+03  0.00000000000E+00 0. -1.
         25    2    1    2    0    0 -0.67424114790E+02 -0.14221726236E+02 -0.55903212289E+03  0.57698604978E+03  0.12509084086E+03 0.  0.
          5    1    3    3  502    0 -0.96096463554E+02  0.19408480577E+02 -0.36722109247E+03  0.38010527829E+03  0.41800000000E+01 0. -1.
         -5    1    3    3    0  502  0.28672348764E+02 -0.33630206814E+02 -0.19181103042E+03  0.19688077149E+03  0.41800000000E+01 0. -1.
        -11    1    1    2    0    0  0.35900877333E+02 -0.22648002305E+02 -0.20854102117E+03  0.21281720446E+03  0.00000000000E+00 0. -1.
         11    1    1    2    0    0  0.31523237457E+02  0.36869728541E+02 -0.48345762528E+02  0.68486525221E+02  0.00000000000E+00 0.  1.
</event>
<event>
 7    1  0.2394257E-009  0.2157220E+03  0.7561462E-02  0.1137113E+00
          2   -1    0    0  501    0  0.00000000000E+00  0.00000000000E+00  0.20161070854E+04  0.20161070854E+04  0.00000000000E+00 0. -1.
         -2   -1    0    0    0  501 -0.00000000000E+00 -0.00000000000E+00 -0.28300178799E+02  0.28300178799E+02  0.00000000000E+00 0.  1.
         25    2    1    2    0    0 -0.86222816158E+02 -0.17846776963E+03  0.13559774638E+04  0.13760844417E+04  0.12509352333E+03 0.  0.
          5    1    3    3  502    0 -0.32608438306E+01  0.80486295484E+01  0.32179754147E+03  0.32194183269E+03  0.41800000000E+01 0. -1.
         -5    1    3    3    0  502 -0.82961972327E+02 -0.18651639918E+03  0.10341799223E+04  0.10541426090E+04  0.41800000000E+01 0. -1.
        -11    1    1    2    0    0  0.10352102036E+03  0.13010104793E+03  0.47039878250E+03  0.49891672542E+03  0.00000000000E+00 0.  1.
         11    1    1    2    0    0 -0.17298204200E+02  0.48366721701E+02  0.16143066035E+03  0.16940609710E+03  0.00000000000E+00 0. -1.
</event>
<event>
 7    1  0.2394257E-009  0.1691818E+03  0.7561462E-02  0.1178704E+00
         -2   -1    0    0    0  501 -0.00000000000E+00  0.00000000000E+00  0.90940848893E+02  0.90940848893E+02  0.00000000000E+00 0.  1.
          2   -1    0    0  501    0  0.00000000000E+00 -0.00000000000E+00 -0.36880985760E+03  0.36880985760E+03  0.00000000000E+00 0. -1.
         25    2    1    2    0    0 -0.10463259992E+03  0.94032204227E+02 -0.19989162803E+03  0.27457414563E+03  0.12507702465E+03 0.  0.
          5    1    3    3  502    0 -0.80684830977E+02 -0.99542007637E+01 -0.89474129525E+02  0.12096371488E+03  0.41800000000E+01 0. -1.
         -5    1    3    3    0  502 -0.23947768939E+02  0.10398640499E+03 -0.11041749851E+03  0.15361043076E+03  0.41800000000E+01 0. -1.
        -11    1    1    2    0    0  0.56938263703E+02 -0.16742936675E+02  0.82778855599E+01  0.59923411045E+02  0.00000000000E+00 0.  1.
         11    1    1    2    0    0  0.47694336213E+02 -0.77289267552E+02 -0.86255266234E+02  0.12525314982E+03  0.00000000000E+00 0. -1.
</event>
<event>
 7    1  0.2394257E-009  0.1100907E+03  0.7561462E-02  0.1260402E+00
         -2   -1    0    0    0  501 -0.00000000000E+00  0.00000000000E+00  0.15992465643E+03  0.15992465643E+03  0.00000000000E+00 0.  1.
          2   -1    0    0  501    0  0.00000000000E+00 -0.00000000000E+00 -0.10585673021E+03  0.10585673021E+03  0.00000000000E+00 0. -1.
         25    2    1    2    0    0  0.13006569227E+02 -0.59438172851E+02 -0.91404698455E+01  0.13940097107E+03  0.12508803024E+03 0.  0.
          5    1    3    3  502    0  0.46364328368E+02 -0.69064995685E+02  0.28493042966E+02  0.88028123185E+02  0.41800000000E+01 0.  1.
         -5    1    3    3    0  502 -0.33357759141E+02  0.96268228345E+01 -0.37633512812E+02  0.51372847881E+02  0.41800000000E+01 0.  1.
        -11    1    1    2    0    0  0.29109669642E+02  0.51363811459E+02  0.13188107166E+02  0.60494133310E+02  0.00000000000E+00 0. -1.
         11    1    1    2    0    0 -0.42116238869E+02  0.80743613920E+01  0.50020288905E+02  0.65886282264E+02  0.00000000000E+00 0.  1.
</event>
<event>
 7    1  0.2394257E-009  0.9794183E+02  0.7561462E-02  0.1284684E+00
          2   -1    0    0  501    0  0.00000000000E+00  0.00000000000E+00  0.75323648774E+03  0.75323648774E+03  0.00000000000E+00 0. -1.
         -2   -1    0    0    0  501 -0.00000000000E+00 -0.00000000000E+00 -0.18204017433E+02  0.18204017433E+02  0.00000000000E+00 0.  1.
         25    2    1    2    0    0 -0.11627295768E+02  0.31539389696E+02  0.32076954990E+03  0.34593419426E+03  0.12508970983E+03 0.  0.
          5    1    3    3  502    0  0.23126322802E+02  0.57540618488E+02  0.80307370529E+02  0.10155045910E+03  0.41800000000E+01 0.  1.
         -5    1    3    3    0  502 -0.34753618571E+02 -0.26001228792E+02  0.24046217937E+03  0.24438373516E+03  0.41800000000E+01 0.  1.
        -11    1    1    2    0    0 -0.33362192994E+02  0.28688526503E+01  0.84112370227E+02  0.90532629820E+02  0.00000000000E+00 0.  1.
         11    1    1    2    0    0  0.44989488762E+02 -0.34408242347E+02  0.33015055018E+03  0.33497368109E+03  0.00000000000E+00 0. -1.
</event>
<event>
 7    1  0.2405664E-009  0.1438132E+03  0.7561462E-02  0.1208288E+00
         -2   -1    0    0    0  501 -0.00000000000E+00  0.00000000000E+00  0.21283784962E+03  0.21283784962E+03  0.00000000000E+00 0.  1.
          2   -1    0    0  501    0  0.00000000000E+00 -0.00000000000E+00 -0.12602776119E+03  0.12602776119E+03  0.00000000000E+00 0. -1.
         25    2    1    2    0    0  0.27264254436E+02  0.95840104320E+02  0.12099163614E+03  0.20053736584E+03  0.12509034301E+03 0.  0.
          5    1    3    3  502    0 -0.50045411241E+02  0.42452862321E+02  0.45954553960E+02  0.80225196386E+02  0.41800000000E+01 0.  1.
         -5    1    3    3    0  502  0.77309665677E+02  0.53387242000E+02  0.75037082180E+02  0.12031216945E+03  0.41800000000E+01 0.  1.
        -11    1    1    2    0    0 -0.55742252952E+02 -0.68850630836E+02 -0.37354423899E+01  0.88665447952E+02  0.00000000000E+00 0.  1.
         11    1    1    2    0    0  0.28477998516E+02 -0.26989473484E+02 -0.30446105319E+02  0.49662797017E+02  0.00000000000E+00 0. -1.
</event>
<event>
 7    1  0.2394257E-009  0.1115646E+03  0.7561462E-02  0.1257700E+00
         -2   -1    0    0    0  501 -0.00000000000E+00  0.00000000000E+00  0.27801767716E+02  0.27801767716E+02  0.00000000000E+00 0.  1.
          2   -1    0    0  501    0  0.00000000000E+00 -0.00000000000E+00 -0.53722726658E+03  0.53722726658E+03  0.00000000000E+00 0. -1.
         25    2    1    2    0    0 -0.23051478859E+02  0.30281774817E+02 -0.38966034535E+03  0.41101246635E+03  0.12509079181E+03 0.  0.
          5    1    3    3  502    0 -0.74699497761E+02  0.20065693715E+02 -0.21419534320E+03  0.22777129863E+03  0.41800000000E+01 0.  1.
         -5    1    3    3    0  502  0.51648018901E+02  0.10216081102E+02 -0.17546500215E+03  0.18324116772E+03  0.41800000000E+01 0.  1.
        -11    1    1    2    0    0  0.53841742682E+02 -0.30860303389E+02 -0.57732993261E+02  0.84760781563E+02  0.00000000000E+00 0.  1.
         11    1    1    2    0    0 -0.30790263823E+02  0.57852857172E+00 -0.62032160253E+02  0.69255786380E+02  0.00000000000E+00 0. -1.
</event>
<event>
 7    1  0.2394257E-009  0.1265031E+03  0.7561462E-02  0.1232739E+00
         -2   -1    0    0    0  501 -0.00000000000E+00  0.00000000000E+00  0.40617978716E+03  0.40617978716E+03  0.00000000000E+00 0.  1.
          2   -1    0    0  501    0  0.00000000000E+00 -0.00000000000E+00 -0.41528013970E+02  0.41528013970E+02  0.00000000000E+00 0. -1.
         25    2    1    2    0    0  0.61463617535E+01 -0.64717091170E+02  0.25231087010E+03  0.28902488106E+03  0.12509407280E+03 0.  0.
          5    1    3    3  502    0 -0.39085862738E+02 -0.83133837323E+02  0.16535491278E+03  0.18920533595E+03  0.41800000000E+01 0. -1.
         -5    1    3    3    0  502  0.45232224492E+02  0.18416746152E+02  0.86955957321E+02  0.99819545105E+02  0.41800000000E+01 0. -1.
        -11    1    1    2    0    0  0.25553635536E+02 -0.12582922733E+02  0.26750941194E+02  0.39075965610E+02  0.00000000000E+00 0. -1.
         11    1    1    2    0    0 -0.31699997289E+02  0.77300013903E+02  0.85589961895E+02  0.11960695446E+03  0.00000000000E+00 0.  1.
</event>
<event>
 7    1  0.2394257E-009  0.1071065E+03  0.7561462E-02  0.1266024E+00
          1   -1    0    0  501    0  0.00000000000E+00  0.00000000000E+00  0.29048085854E+02  0.29048085854E+02  0.00000000000E+00 0. -1.
         -1   -1    0    0    0  501 -0.00000000000E+00 -0.00000000000E+00 -0.44246367335E+03  0.44246367335E+03  0.00000000000E+00 0.  1.
         25    2    1    2    0    0  0.13737396059E+02 -0.97118210180E+01 -0.29504900286E+03  0.32091204475E+03  0.12509033080E+03 0.  0.
          5    1    3    3  502    0 -0.53923321239E+02 -0.38280165315E+01 -0.92276188141E+02  0.10702684515E+03  0.41800000000E+01 0. -1.
         -5    1    3    3    0  502  0.67660717298E+02 -0.58838044865E+01 -0.20277281472E+03  0.21388519960E+03  0.41800000000E+01 0. -1.
        -11    1    1    2    0    0  0.34503038517E+02 -0.15144492464E+02 -0.37098558843E+02  0.52878335707E+02  0.00000000000E+00 0. -1.
         11    1    1    2    0    0 -0.48240434576E+02  0.24856313482E+02 -0.81268025788E+02  0.97721378744E+02  0.00000000000E+00 0.  1.
</event>
<event>
 7    1  0.2394257E-009  0.1096749E+03  0.7561462E-02  0.1261173E+00
          2   -1    0    0  501    0  0.00000000000E+00  0.00000000000E+00  0.22892515319E+02  0.22892515319E+02  0.00000000000E+00 0. -1.
         -2   -1    0    0    0  501 -0.00000000000E+00 -0.00000000000E+00 -0.56672400167E+03  0.56672400167E+03  0.00000000000E+00 0.  1.
         25    2    1    2    0    0 -0.27975456171E+02 -0.12318017774E+01 -0.23869892286E+03  0.27093948722E+03  0.12508751527E+03 0.  0.
          5    1    3    3  502    0  0.24555620261E+02  0.48849262296E+02 -0.89292154954E+02  0.10478449432E+03  0.41800000000E+01 0. -1.
         -5    1    3    3    0  502 -0.52531076433E+02 -0.50081064073E+02 -0.14940676791E+03  0.16615499290E+03  0.41800000000E+01 0. -1.
        -11    1    1    2    0    0 -0.20826812017E+02 -0.28025860459E+02 -0.10884327584E+03  0.11430688365E+03  0.00000000000E+00 0.  1.
         11    1    1    2    0    0  0.48802268188E+02  0.29257662236E+02 -0.19628928765E+03  0.20437014613E+03  0.00000000000E+00 0. -1.
</event>
<event>
 7    1  0.2394257E-009  0.1247307E+03  0.7561462E-02  0.1235491E+00
          2   -1    0    0  501    0  0.00000000000E+00  0.00000000000E+00  0.18883430357E+03  0.18883430357E+03  0.00000000000E+00 0.  1.
         -2   -1    0    0    0  501 -0.00000000000E+00 -0.00000000000E+00 -0.10617707962E+03  0.10617707962E+03  0.00000000000E+00 0. -1.
         25    2    1    2    0    0 -0.46235204318E+02  0.44085968852E+02  0.11208228801E+03  0.17969686580E+03  0.12508899841E+03 0.  0.
          5    1    3    3  502    0 -0.44356058307E+02  0.86204006207E+02  0.67563954600E+02  0.11824107136E+03  0.41800000000E+01 0. -1.
         -5    1    3    3    0  502 -0.18791460112E+01 -0.42118037355E+02  0.44518333414E+02  0.61455794441E+02  0.41800000000E+01 0. -1.
        -11    1    1    2    0    0  0.58152645683E+02  0.61047216060E+01 -0.24824446668E+02  0.63523625355E+02  0.00000000000E+00 0. -1.
         11    1    1    2    0    0 -0.11917441365E+02 -0.50190690458E+02 -0.46006173919E+01  0.51790892034E+02  0.00000000000E+00 0.  1.
</event>
<event>
 7    1  0.2524998E-009  0.1379758E+03  0.7561462E-02  0.1216079E+00
         -2   -1    0    0    0  501 -0.00000000000E+00  0.00000000000E+00  0.13211851436E+02  0.13211851436E+02  0.00000000000E+00 0.  1.
          2   -1    0    0  501    0  0.00000000000E+00 -0.00000000000E+00 -0.15161294287E+04  0.15161294287E+04  0.00000000000E+00 0. -1.
         25    2    1    2    0    0 -0.63018391954E+01 -0.88327632242E+02 -0.92635750722E+03  0.93895003205E+03  0.12508975859E+03 0.  0.
          5    1    3    3  502    0  0.38397942461E+02  0.10786112664E+02 -0.36072065329E+03  0.36294297668E+03  0.41800000000E+01 0. -1.
         -5    1    3    3    0  502 -0.44699781656E+02 -0.99113744906E+02 -0.56563685394E+03  0.57600705537E+03  0.41800000000E+01 0. -1.
        -11    1    1    2    0    0  0.35059133159E+02  0.97031927728E+00 -0.15734978965E+03  0.16121116785E+03  0.00000000000E+00 0.  1.
         11    1    1    2    0    0 -0.28757293964E+02  0.87357312965E+02 -0.41921028044E+03  0.42918008028E+03  0.00000000000E+00 0. -1.
</event>
<event>
 7    1  0.2394257E-009  0.9039441E+02  0.7561462E-02  0.1301899E+00
          1   -1    0    0  501    0  0.00000000000E+00  0.00000000000E+00  0.16645992107E+03  0.16645992107E+03  0.00000000000E+00 0. -1.
         -1   -1    0    0    0  501 -0.00000000000E+00 -0.00000000000E+00 -0.10626456102E+03  0.10626456102E+03  0.00000000000E+00 0.  1.
         25    2    1    2    0    0 -0.60710321035E+02  0.21884269308E+02  0.76508053035E+02  0.16020863015E+03  0.12509459890E+03 0.  0.
          5    1    3    3  502    0  0.25899197895E+02  0.54362737023E+01  0.66121314623E+02  0.71342989641E+02  0.41800000000E+01 0. -1.
         -5    1    3    3    0  502 -0.86609518930E+02  0.16447995606E+02  0.10386738412E+02  0.88865640512E+02  0.41800000000E+01 0. -1.
        -11    1    1    2    0    0  0.51280946849E+02 -0.13272970663E+02  0.32442419355E+02  0.62116164028E+02  0.00000000000E+00 0. -1.
         11    1    1    2    0    0  0.94293741859E+01 -0.86112986446E+01 -0.48755112342E+02  0.50399687909E+02  0.00000000000E+00 0.  1.
</event>
<event>
 7    1  0.2394257E-009  0.1093552E+03  0.7561462E-02  0.1261769E+00
         -2   -1    0    0    0  501 -0.00000000000E+00  0.00000000000E+00  0.63010999250E+02  0.63010999250E+02  0.00000000000E+00 0.  1.
          2   -1    0    0  501    0  0.00000000000E+00 -0.00000000000E+00 -0.22061782078E+03  0.22061782078E+03  0.00000000000E+00 0. -1.
         25    2    1    2    0    0 -0.28490576202E+02  0.73545852002E+01 -0.10412494087E+03  0.16539201124E+03  0.12508681471E+03 0.  0.
          5    1    3    3  502    0  0.26521023955E+02 -0.42990506540E+02 -0.24761158811E+02  0.56410422351E+02  0.41800000000E+01 0. -1.
         -5    1    3    3    0  502 -0.55011600157E+02  0.50345091740E+02 -0.79363782057E+02  0.10898158889E+03  0.41800000000E+01 0. -1.
        -11    1    1    2    0    0  0.52118415106E+02  0.21207402308E+02 -0.39995416292E+01  0.56409923232E+02  0.00000000000E+00 0.  1.
         11    1    1    2    0    0 -0.23627838904E+02 -0.28561987508E+02 -0.49482339034E+02  0.61826885560E+02  0.00000000000E+00 0. -1.
</event>
<event>
 7    1  0.2394257E-009  0.1689457E+03  0.7561462E-02  0.1178952E+00
          2   -1    0    0  501    0  0.00000000000E+00  0.00000000000E+00  0.99338860614E+03  0.99338860614E+03  0.00000000000E+00 0.  1.
         -2   -1    0    0    0  501 -0.00000000000E+00 -0.00000000000E+00 -0.33359290963E+02  0.33359290963E+02  0.00000000000E+00 0. -1.
         25    2    1    2    0    0 -0.15506334030E+02 -0.14528461709E+03  0.51438699162E+03  0.54917191493E+03  0.12509096146E+03 0.  0.
          5    1    3    3  502    0 -0.37739593655E+02 -0.15297080387E+03  0.36060846745E+03  0.39354832354E+03  0.41800000000E+01 0. -1.
         -5    1    3    3    0  502  0.22233259625E+02  0.76861867705E+01  0.15377852417E+03  0.15562359139E+03  0.41800000000E+01 0. -1.
        -11    1    1    2    0    0  0.35566072341E+02  0.11212620269E+03  0.40361844497E+03  0.42041060875E+03  0.00000000000E+00 0.  1.
         11    1    1    2    0    0 -0.20059738310E+02  0.33158414406E+02  0.42023878586E+02  0.57165373421E+02  0.00000000000E+00 0. -1.
</event>
<event>
 7    1  0.2394257E-009  0.1381706E+03  0.7561462E-02  0.1215812E+00
          2   -1    0    0  501    0  0.00000000000E+00  0.00000000000E+00  0.22474138736E+03  0.22474138736E+03  0.00000000000E+00 0. -1.
         -2   -1    0    0    0  501 -0.00000000000E+00 -0.00000000000E+00 -0.14450967490E+03  0.14450967490E+03  0.00000000000E+00 0.  1.
         25    2    1    2    0    0 -0.65846206834E+02 -0.11913269626E+03  0.86898219824E+02  0.20427276645E+03  0.12509092786E+03 0.  0.
          5    1    3    3  502    0 -0.62112949303E+02 -0.10158463145E+03  0.38485560351E+01  0.11920461233E+03  0.41800000000E+01 0.  1.
         -5    1    3    3    0  502 -0.37332575312E+01 -0.17548064816E+02  0.83049663789E+02  0.85068154124E+02  0.41800000000E+01 0.  1.
        -11    1    1    2    0    0  0.31008416582E+02  0.30286155487E+02  0.39789927759E+02  0.58838860153E+02  0.00000000000E+00 0. -1.
         11    1    1    2    0    0  0.34837790252E+02  0.88846540776E+02 -0.46456435117E+02  0.10613943566E+03  0.00000000000E+00 0.  1.
</event>
<event>
 7    1  0.2394257E-009  0.1098129E+03  0.7561462E-02  0.1260917E+00
         -1   -1    0    0    0  501 -0.00000000000E+00  0.00000000000E+00  0.22771387729E+02  0.22771387729E+02  0.00000000000E+00 0.  1.
          1   -1    0    0  501    0  0.00000000000E+00 -0.00000000000E+00 -0.54229532010E+03  0.54229532010E+03  0.00000000000E+00 0. -1.
         25    2    1    2    0    0 -0.61725821945E+01 -0.25195389458E+02 -0.30803785533E+03  0.33347866889E+03  0.12509114223E+03 0.  0.
          5    1    3    3  502    0 -0.64126944395E+02 -0.51419423237E+01 -0.12957807518E+03  0.14472959109E+03  0.41800000000E+01 0. -1.
         -5    1    3    3    0  502  0.57954362201E+02 -0.20053447134E+02 -0.17845978014E+03  0.18874907780E+03  0.41800000000E+01 0. -1.
        -11    1    1    2    0    0  0.46602535756E+02  0.10830276853E+01 -0.91299271680E+02  0.10251110329E+03  0.00000000000E+00 0.  1.
         11    1    1    2    0    0 -0.40429953561E+02  0.24112361772E+02 -0.12018680536E+03  0.12907693566E+03  0.00000000000E+00 0. -1.
</event>
<event>
 7    1  0.2394257E-009  0.1304800E+03  0.7561462E-02  0.1226745E+00
         -1   -1    0    0    0  501 -0.00000000000E+00  0.00000000000E+00  0.34900317332E+03  0.34900317332E+03  0.00000000000E+00 0.  1.
          1   -1    0    0  501    0  0.00000000000E+00 -0.00000000000E+00 -0.67729324311E+02  0.67729324311E+02  0.00000000000E+00 0. -1.
         25    2    1    2    0    0  0.93935448383E+02  0.12746711111E+02  0.22484878042E+03  0.27421341098E+03  0.12509865546E+03 0.  0.
          5    1    3    3  502    0  0.48044815239E+02  0.65677119844E+02  0.85016137355E+02  0.11775824537E+03  0.41800000000E+01 0. -1.
         -5    1    3    3    0  502  0.45890633144E+02 -0.52930408733E+02  0.13983264306E+03  0.15645516561E+03  0.41800000000E+01 0. -1.
        -11    1    1    2    0    0 -0.83947587210E+02  0.99182891407E+01  0.73840766661E+02  0.11224094030E+03  0.00000000000E+00 0.  1.
         11    1    1    2    0    0 -0.99878611727E+01 -0.22665000252E+02 -0.17415698071E+02  0.30278146352E+02  0.00000000000E+00 0. -1.
</event>
<event>
 7    1  0.2394257E-009  0.1153284E+03  0.7561462E-02  0.1251009E+00
         -3   -1    0    0    0  501 -0.00000000000E+00  0.00000000000E+00  0.91346656612E+03  0.91346656612E+03  0.00000000000E+00 0.  1.
          3   -1    0    0  501    0  0.00000000000E+00 -0.00000000000E+00 -0.24005688802E+02  0.24005688802E+02  0.00000000000E+00 0. -1.
         25    2    1    2    0    0  0.44264857777E+02 -0.89511781452E+02  0.54281762783E+03  0.56592472546E+03  0.12509229055E+03 0.  0.
          5    1    3    3  502    0  0.26749643623E+02 -0.91180283921E+02  0.53914579427E+03  0.54747150382E+03  0.41800000000E+01 0. -1.
         -5    1    3    3    0  502  0.17515214154E+02  0.16685024692E+01  0.36718335535E+01  0.18453221643E+02  0.41800000000E+01 0. -1.
        -11    1    1    2    0    0 -0.10305473280E+02  0.82041555062E+02  0.31079478843E+03  0.32160600127E+03  0.00000000000E+00 0.  1.
         11    1    1    2    0    0 -0.33959384496E+02  0.74702263901E+01  0.35848461056E+02  0.49941528188E+02  0.00000000000E+00 0. -1.
</event>
<event>
 7    1  0.2394257E-009  0.1105058E+03  0.7561462E-02  0.1259636E+00
          2   -1    0    0  501    0  0.00000000000E+00  0.00000000000E+00  0.27451527676E+03  0.27451527676E+03  0.00000000000E+00 0. -1.
         -2   -1    0    0    0  501 -0.00000000000E+00 -0.00000000000E+00 -0.63800590197E+02  0.63800590197E+02  0.00000000000E+00 0.  1.
         25    2    1    2    0    0  0.20521562140E+01  0.65604618590E+02  0.16455159522E+03  0.21687150585E+03  0.12509134756E+03 0.  0.
          5    1    3    3  502    0  0.25522871705E+02 -0.18276730080E+02  0.11892451250E+01  0.31691363909E+02  0.41800000000E+01 0.  1.
         -5    1    3    3    0  502 -0.23470715491E+02  0.83881348670E+02  0.16336235010E+03  0.18518014194E+03  0.41800000000E+01 0.  1.
        -11    1    1    2    0    0  0.19396561164E+02  0.11198538423E+02 -0.93622982941E+01  0.24275223524E+02  0.00000000000E+00 0.  1.
         11    1    1    2    0    0 -0.21448717378E+02 -0.76803157014E+02  0.55525389636E+02  0.97169137583E+02  0.00000000000E+00 0. -1.
</event>
<event>
 7    1  0.2394257E-009  0.9307058E+02  0.7561462E-02  0.1295582E+00
          2   -1    0    0  501    0  0.00000000000E+00  0.00000000000E+00  0.83497613733E+03  0.83497613733E+03  0.00000000000E+00 0.  1.
         -2   -1    0    0    0  501 -0.00000000000E+00 -0.00000000000E+00 -0.16733062330E+02  0.16733062330E+02  0.00000000000E+00 0. -1.
         25    2    1    2    0    0  0.28479893876E+02  0.17740074527E+02  0.49677762787E+03  0.51338225514E+03  0.12509002254E+03 0.  0.
          5    1    3    3  502    0  0.49054638784E+02 -0.17385632061E+02  0.86266427742E+02  0.10083643560E+03  0.41800000000E+01 0. -1.
         -5    1    3    3    0  502 -0.20574744908E+02  0.35125706588E+02  0.41051120013E+03  0.41254581955E+03  0.41800000000E+01 0. -1.
        -11    1    1    2    0    0  0.22751387817E+02 -0.32518248764E+02  0.22152884708E+03  0.22505575363E+03  0.00000000000E+00 0.  1.
         11    1    1    2    0    0 -0.51231281693E+02  0.14778174237E+02  0.99936600044E+02  0.11327119089E+03  0.00000000000E+00 0. -1.
</event>
<event>
 7    1  0.2394257E-009  0.1714259E+03  0.7561462E-02  0.1176369E+00
         -2   -1    0    0    0  501 -0.00000000000E+00  0.00000000000E+00  0.78708781074E+02  0.78708781074E+02  0.00000000000E+00 0.  1.
          2   -1    0    0  501    0  0.00000000000E+00 -0.00000000000E+00 -0.54752925063E+03  0.54752925063E+03  0.00000000000E+00 0. -1.
         25    2    1    2    0    0 -0.13717040808E+03 -0.40795296206E+02 -0.39884377012E+03  0.44181873075E+03  0.12508981107E+03 0.  0.
          5    1    3    3  502    0 -0.15843292655E+03 -0.50485369094E+02 -0.34915687854E+03  0.38675284477E+03  0.41800000000E+01 0.  1.
         -5    1    3    3    0  502  0.21262518465E+02  0.96900728884E+01 -0.49686891575E+02  0.55065885977E+02  0.41800000000E+01 0.  1.
        -11    1    1    2    0    0  0.61465259303E+01  0.18982056939E+02 -0.45053709956E+02  0.49274080889E+02  0.00000000000E+00 0.  1.
         11    1    1    2    0    0  0.13102388215E+03  0.21813239267E+02 -0.24922989479E+02  0.13514522006E+03  0.00000000000E+00 0. -1.
</event>
<event>
 7    1  0.2394257E-009  0.1069217E+03  0.7561462E-02  0.1266379E+00
          1   -1    0    0  501    0  0.00000000000E+00  0.00000000000E+00  0.19825825838E+03  0.19825825838E+03  0.00000000000E+00 0. -1.
         -1   -1    0    0    0  501 -0.00000000000E+00 -0.00000000000E+00 -0.11599564697E+03  0.11599564697E+03  0.00000000000E+00 0.  1.
         25    2    1    2    0    0  0.44263847798E+01  0.44887949892E+01 -0.65423750333E+02  0.14130801905E+03  0.12509175423E+03 0.  0.
          5    1    3    3  502    0 -0.57857387261E+02  0.16979853081E+02 -0.22342376431E+02  0.64439482120E+02  0.41800000000E+01 0.  1.
         -5    1    3    3    0  502  0.62283772040E+02 -0.12491058092E+02 -0.43081373903E+02  0.76868536926E+02  0.41800000000E+01 0.  1.
        -11    1    1    2    0    0 -0.41596511122E+02 -0.23725410916E+02  0.72294524755E+02  0.86715991433E+02  0.00000000000E+00 0. -1.
         11    1    1    2    0    0  0.37170126342E+02  0.19236615927E+02  0.75391836987E+02  0.86229894868E+02  0.00000000000E+00 0.  1.
</event>
<event>
 7    1  0.2394257E-009  0.1117449E+03  0.7561462E-02  0.1257372E+00
         -1   -1    0    0    0  501 -0.00000000000E+00  0.00000000000E+00  0.10266077780E+02  0.10266077780E+02  0.00000000000E+00 0.  1.
          1   -1    0    0  501    0  0.00000000000E+00 -0.00000000000E+00 -0.15494586728E+04  0.15494586728E+04  0.00000000000E+00 0. -1.
         25    2    1    2    0    0  0.26028638128E+02 -0.44193518223E+02 -0.10792198518E+04  0.10876566619E+04  0.12510383060E+03 0.  0.
          5    1    3    3  502    0 -0.25552515417E+02 -0.58297350268E+02 -0.84362234301E+03  0.84603052080E+03  0.41800000000E+01 0. -1.
         -5    1    3    3    0  502  0.51581153545E+02  0.14103832044E+02 -0.23559750882E+03  0.24162614106E+03  0.41800000000E+01 0. -1.
        -11    1    1    2    0    0 -0.59157018496E+02  0.42595301169E+02 -0.32602939877E+03  0.33407945370E+03  0.00000000000E+00 0. -1.
         11    1    1    2    0    0  0.33128380368E+02  0.15982170546E+01 -0.13394334437E+03  0.13798863498E+03  0.00000000000E+00 0.  1.
</event>
<event>
 7    1  0.2394257E-009  0.1199754E+03  0.7561462E-02  0.1243138E+00
         -2   -1    0    0    0  501 -0.00000000000E+00  0.00000000000E+00  0.40614335717E+02  0.40614335717E+02  0.00000000000E+00 0.  1.
          2   -1    0    0  501    0  0.00000000000E+00 -0.00000000000E+00 -0.45017161201E+03  0.45017161201E+03  0.00000000000E+00 0. -1.
         25    2    1    2    0    0 -0.74435598413E+02  0.31115489103E+02 -0.27552389654E+03  0.31315959513E+03  0.12508669987E+03 0.  0.
          5    1    3    3  502    0  0.31431109819E+02 -0.12655168568E+02 -0.67412330699E+02  0.75564295049E+02  0.41800000000E+01 0. -1.
         -5    1    3    3    0  502 -0.10586670823E+03  0.43770657670E+02 -0.20811156584E+03  0.23759530008E+03  0.41800000000E+01 0. -1.
        -11    1    1    2    0    0  0.55618271644E+02 -0.41765598527E+02 -0.13900917173E+03  0.15543907869E+03  0.00000000000E+00 0. -1.
         11    1    1    2    0    0  0.18817326768E+02  0.10650109425E+02  0.49757919734E+01  0.22187273902E+02  0.00000000000E+00 0.  1.
</event>
<event>
 7    1  0.2394257E-009  0.2189860E+03  0.7561462E-02  0.1134641E+00
          1   -1    0    0  501    0  0.00000000000E+00  0.00000000000E+00  0.47948317672E+03  0.47948317672E+03  0.00000000000E+00 0. -1.
         -1   -1    0    0    0  501 -0.00000000000E+00 -0.00000000000E+00 -0.12822554038E+03  0.12822554038E+03  0.00000000000E+00 0.  1.
         25    2    1    2    0    0 -0.14026678013E+03 -0.14355181364E+03  0.63019722531E+02  0.24474746682E+03  0.12509174346E+03 0.  0.
          5    1    3    3  502    0 -0.52405564158E+02  0.47671359539E+01 -0.15865428419E+02  0.55120349771E+02  0.41800000000E+01 0.  1.
         -5    1    3    3    0  502 -0.87861215967E+02 -0.14831894960E+03  0.78885150951E+02  0.18962711705E+03  0.41800000000E+01 0.  1.
        -11    1    1    2    0    0  0.11508989025E+03  0.69307903652E+02  0.13297290724E+03  0.18902661825E+03  0.00000000000E+00 0.  1.
         11    1    1    2    0    0  0.25176889872E+02  0.74243909992E+02  0.15526500657E+03  0.17393463203E+03  0.00000000000E+00 0. -1.
</event>
<event>
 7    1  0.2394257E-009  0.8842427E+02  0.7561462E-02  0.1306713E+00
         -3   -1    0    0    0  501 -0.00000000000E+00  0.00000000000E+00  0.42984976840E+02  0.42984976840E+02  0.00000000000E+00 0.  1.
          3   -1    0    0  501    0  0.00000000000E+00 -0.00000000000E+00 -0.32204960456E+03  0.32204960456E+03  0.00000000000E+00 0. -1.
         25    2    1    2    0    0  0.33237558716E+02  0.24929387301E+02 -0.20180330871E+03  0.24103661268E+03  0.12509142091E+03 0.  0.
          5    1    3    3  502    0  0.61019005709E+02  0.66115095747E+01 -0.34759537910E+02  0.70659245625E+02  0.41800000000E+01 0.  1.
         -5    1    3    3    0  502 -0.27781446992E+02  0.18317877726E+02 -0.16704377080E+03  0.17037736706E+03  0.41800000000E+01 0.  1.
        -11    1    1    2    0    0 -0.24851815070E+02 -0.49739707674E+02 -0.16763213038E+02  0.58074577426E+02  0.00000000000E+00 0.  1.
         11    1    1    2    0    0 -0.83857436462E+01  0.24810320373E+02 -0.60498105965E+02  0.65923391288E+02  0.00000000000E+00 0. -1.
</event>
<event>
 7    1  0.2394257E-009  0.9621033E+02  0.7561462E-02  0.1288473E+00
          1   -1    0    0  501    0  0.00000000000E+00  0.00000000000E+00  0.84132664660E+02  0.84132664660E+02  0.00000000000E+00 0. -1.
         -1   -1    0    0    0  501 -0.00000000000E+00 -0.00000000000E+00 -0.16566505659E+03  0.16566505659E+03  0.00000000000E+00 0.  1.
         25    2    1    2    0    0 -0.37387384478E+02  0.15828009828E+02 -0.67144854330E+02  0.14766711480E+03  0.12509517543E+03 0.  0.
          5    1    3    3  502    0  0.27552668485E+02 -0.30114573150E+02  0.35218948496E+01  0.41181466705E+02  0.41800000000E+01 0.  1.
         -5    1    3    3    0  502 -0.64940052963E+02  0.45942582978E+02 -0.70666749179E+02  0.10648564809E+03  0.41800000000E+01 0.  1.
        -11    1    1    2    0    0  0.38236266151E+02  0.14867299908E+02 -0.43516246736E+02  0.59805621690E+02  0.00000000000E+00 0.  1.
         11    1    1    2    0    0 -0.84888167233E+00 -0.30695309736E+02  0.29128709133E+02  0.42324984768E+02  0.00000000000E+00 0. -1.
</event>
<event>
 7    1  0.2394257E-009  0.1229552E+03  0.7561462E-02  0.1238300E+00
         -2   -1    0    0    0  501 -0.00000000000E+00  0.00000000000E+00  0.85741339329E+02  0.85741339329E+02  0.00000000000E+00 0. -1.
          2   -1    0    0  501    0  0.00000000000E+00 -0.00000000000E+00 -0.17828413412E+03  0.17828413412E+03  0.00000000000E+00 0.  1.
         25    2    1    2    0    0 -0.57539581282E+02 -0.87562542492E+01 -0.53969322838E+02  0.14814692283E+03  0.12508935820E+03 0.  0.
          5    1    3    3  502    0 -0.21520761523E+02 -0.65709138153E+02 -0.17655902743E+02  0.71484525004E+02  0.41800000000E+01 0. -1.
         -5    1    3    3    0  502 -0.36018819759E+02  0.56952883904E+02 -0.36313420095E+02  0.76662397828E+02  0.41800000000E+01 0. -1.
        -11    1    1    2    0    0 -0.54367535483E+01 -0.33076345163E+02 -0.91087884063E+01  0.34735758588E+02  0.00000000000E+00 0.  1.
         11    1    1    2    0    0  0.62976334830E+02  0.41832599412E+02 -0.29464683549E+02  0.81142792032E+02  0.00000000000E+00 0. -1.
</event>
<event>
 7    1  0.2394257E-009  0.1338530E+03  0.7561462E-02  0.1221848E+00
         -1   -1    0    0    0  501 -0.00000000000E+00  0.00000000000E+00  0.28094013946E+02  0.28094013946E+02  0.00000000000E+00 0.  1.
          1   -1    0    0  501    0  0.00000000000E+00 -0.00000000000E+00 -0.76318782354E+03  0.76318782354E+03  0.00000000000E+00 0. -1.
         25    2    1    2    0    0  0.92413244429E+02  0.27517160143E+02 -0.45457154156E+03  0.48122754103E+03  0.12508900031E+03 0.  0.
          5    1    3    3  502    0  0.97235116011E+02 -0.99340367819E+01 -0.41498391841E+03  0.42635956400E+03  0.41800000000E+01 0. -1.
         -5    1    3    3    0  502 -0.48218715817E+01  0.37451196925E+02 -0.39587623149E+02  0.54867977029E+02  0.41800000000E+01 0. -1.
        -11    1    1    2    0    0 -0.92377346633E+02  0.11301205510E+02 -0.19042755559E+03  0.21195269601E+03  0.00000000000E+00 0.  1.
         11    1    1    2    0    0 -0.35897796061E-01 -0.38818365653E+02 -0.90094712436E+02  0.98101600444E+02  0.00000000000E+00 0. -1.
</event>
<event>
 7    1  0.2394257E-009  0.7766888E+02  0.7561462E-02  0.1335800E+00
          3   -1    0    0  501    0  0.00000000000E+00  0.00000000000E+00  0.56492368062E+02  0.56492368062E+02  0.00000000000E+00 0. -1.
         -3   -1    0    0    0  501 -0.00000000000E+00 -0.00000000000E+00 -0.28755602219E+03  0.28755602219E+03  0.00000000000E+00 0.  1.
         25    2    1    2    0    0  0.57195211886E+02  0.30126353842E+02 -0.14898564048E+03  0.20498761022E+03  0.12507721542E+03 0.  0.
          5    1    3    3  502    0  0.58030169110E+02  0.10203948185E+00 -0.56218523703E+01  0.58451591622E+02  0.41800000000E+01 0. -1.
         -5    1    3    3    0  502 -0.83495722461E+00  0.30024314360E+02 -0.14336378811E+03  0.14653601860E+03  0.41800000000E+01 0. -1.
        -11    1    1    2    0    0 -0.31763692215E+02 -0.71505588481E+01  0.15192551640E+02  0.35928766474E+02  0.00000000000E+00 0. -1.
         11    1    1    2    0    0 -0.25431519670E+02 -0.22975794994E+02 -0.97270565290E+02  0.10313201356E+03  0.00000000000E+00 0.  1.
</event>
<event>
 7    1  0.2394257E-009  0.9758892E+02  0.7561462E-02  0.1285449E+00
          1   -1    0    0  501    0  0.00000000000E+00  0.00000000000E+00  0.41026426445E+03  0.41026426445E+03  0.00000000000E+00 0. -1.
         -1   -1    0    0    0  501 -0.00000000000E+00 -0.00000000000E+00 -0.47566299975E+02  0.47566299975E+02  0.00000000000E+00 0.  1.
         25    2    1    2    0    0  0.41796407511E+01 -0.73144518011E+02  0.27997972782E+03  0.31528383767E+03  0.12509060873E+03 0.  0.
          5    1    3    3  502    0 -0.12222708996E+02 -0.63107085030E+01 -0.98105991397E+01  0.17405169131E+02  0.41800000000E+01 0. -1.
         -5    1    3    3    0  502  0.16402349747E+02 -0.66833809508E+02  0.28979032696E+03  0.29787866854E+03  0.41800000000E+01 0. -1.
        -11    1    1    2    0    0  0.23424174962E+02 -0.90802515907E+01  0.40434115135E+01  0.25445866428E+02  0.00000000000E+00 0.  1.
         11    1    1    2    0    0 -0.27603815714E+02  0.82224769602E+02  0.78674825138E+02  0.11710086032E+03  0.00000000000E+00 0. -1.
</event>
<event>
 7    1  0.2394257E-009  0.1124923E+03  0.7561462E-02  0.1256023E+00
         -2   -1    0    0    0  501 -0.00000000000E+00  0.00000000000E+00  0.37431283035E+03  0.37431283035E+03  0.00000000000E+00 0.  1.
          2   -1    0    0  501    0  0.00000000000E+00 -0.00000000000E+00 -0.41252784588E+02  0.41252784588E+02  0.00000000000E+00 0. -1.
         25    2    1    2    0    0 -0.37028414545E+02 -0.48317528553E+02  0.19740116237E+03  0.24150206536E+03  0.12510132541E+03 0.  0.
          5    1    3    3  502    0  0.32584792346E+02  0.19723033416E+02  0.33845295379E+02  0.51124780280E+02  0.41800000000E+01 0.  1.
         -5    1    3    3    0  502 -0.69613206891E+02 -0.68040561969E+02  0.16355586699E+03  0.19037728508E+03  0.41800000000E+01 0.  1.
        -11    1    1    2    0    0  0.29119092900E+02  0.64750969971E+02  0.13847016750E+03  0.15561040123E+03  0.00000000000E+00 0.  1.
         11    1    1    2    0    0  0.79093216448E+01 -0.16433441418E+02 -0.28112841056E+01  0.18453148351E+02  0.00000000000E+00 0. -1.
</event>
<event>
 7    1  0.2394257E-009  0.1151346E+03  0.7561462E-02  0.1251346E+00
          2   -1    0    0  501    0  0.00000000000E+00  0.00000000000E+00  0.34006092094E+03  0.34006092094E+03  0.00000000000E+00 0. -1.
         -2   -1    0    0    0  501 -0.00000000000E+00 -0.00000000000E+00 -0.60327361792E+02  0.60327361792E+02  0.00000000000E+00 0.  1.
         25    2    1    2    0    0 -0.82631427140E+02  0.16422007345E+02  0.21467281815E+03  0.26235363895E+03  0.12508947975E+03 0.  0.
          5    1    3    3  502    0 -0.86793396098E+02  0.57045874841E+02  0.18317047032E+03  0.21060916181E+03  0.41800000000E+01 0.  1.
         -5    1    3    3    0  502  0.41619689575E+01 -0.40623867495E+02  0.31502347835E+02  0.51744477145E+02  0.41800000000E+01 0.  1.
        -11    1    1    2    0    0  0.58683660924E+02 -0.54640984569E+01  0.86090852198E+02  0.10433246505E+03  0.00000000000E+00 0. -1.
         11    1    1    2    0    0  0.23947766217E+02 -0.10957908888E+02 -0.21030111199E+02  0.33702178728E+02  0.00000000000E+00 0.  1.
</event>
<event>
 7    1  0.2394257E-009  0.9382313E+02  0.7561462E-02  0.1293849E+00
          1   -1    0    0  501    0  0.00000000000E+00  0.00000000000E+00  0.36377972143E+03  0.36377972143E+03  0.00000000000E+00 0. -1.
         -1   -1    0    0    0  501 -0.00000000000E+00 -0.00000000000E+00 -0.32663744719E+02  0.32663744719E+02  0.00000000000E+00 0.  1.
         25    2    1    2    0    0  0.15833571660E+02 -0.22348219305E+01  0.17106090621E+03  0.21251819495E+03  0.12508578309E+03 0.  0.
          5    1    3    3  502    0  0.40203885604E+02 -0.49477415492E+02  0.53135121577E+02  0.83097416364E+02  0.41800000000E+01 0.  1.
         -5    1    3    3    0  502 -0.24370313944E+02  0.47242593562E+02  0.11792578464E+03  0.12942077859E+03  0.41800000000E+01 0.  1.
        -11    1    1    2    0    0 -0.41629294413E+02  0.11227262424E+02  0.14784260255E+03  0.15400157370E+03  0.00000000000E+00 0. -1.
         11    1    1    2    0    0  0.25795722753E+02 -0.89924404936E+01  0.12212467954E+02  0.29923697498E+02  0.00000000000E+00 0.  1.
</event>
<event>
 7    1  0.2394257E-009  0.1169371E+03  0.7561462E-02  0.1248237E+00
          1   -1    0    0  501    0  0.00000000000E+00  0.00000000000E+00  0.76457593397E+02  0.76457593397E+02  0.00000000000E+00 0. -1.
         -1   -1    0    0    0  501 -0.00000000000E+00 -0.00000000000E+00 -0.23686292610E+03  0.23686292610E+03  0.00000000000E+00 0.  1.
         25    2    1    2    0    0  0.20500523985E+02  0.73208308194E+02 -0.62458592935E+02  0.15914827828E+03  0.12508945110E+03 0.  0.
          5    1    3    3  502    0 -0.24407276497E+01  0.10088915525E+03 -0.69059762275E+02  0.12235727181E+03  0.41800000000E+01 0.  1.
         -5    1    3    3    0  502  0.22941251634E+02 -0.27680847060E+02  0.66011693403E+01  0.36791006471E+02  0.41800000000E+01 0.  1.
        -11    1    1    2    0    0 -0.56840695793E+01  0.10352773552E+02  0.10954708692E+02  0.16108823972E+02  0.00000000000E+00 0. -1.
         11    1    1    2    0    0 -0.14816454405E+02 -0.83561081747E+02 -0.10890144846E+03  0.13806341724E+03  0.00000000000E+00 0.  1.
</event>
<event>
 7    1  0.2394257E-009  0.1691380E+03  0.7561462E-02  0.1178750E+00
          1   -1    0    0  501    0  0.00000000000E+00  0.00000000000E+00  0.20334758473E+03  0.20334758473E+03  0.00000000000E+00 0. -1.
         -1   -1    0    0    0  501 -0.00000000000E+00 -0.00000000000E+00 -0.18341979138E+03  0.18341979138E+03  0.00000000000E+00 0.  1.
         25    2    1    2    0    0  0.10689297688E+03 -0.11370484506E+03  0.50896772328E+02  0.20638081329E+03  0.12509060062E+03 0.  0.
          5    1    3    3  502    0  0.69631370621E+01 -0.31487834346E+02  0.68394535255E+02  0.75731458736E+02  0.41800000000E+01 0. -1.
         -5    1    3    3    0  502  0.99929839820E+02 -0.82217010716E+02 -0.17497762928E+02  0.13064935455E+03  0.41800000000E+01 0. -1.
        -11    1    1    2    0    0 -0.62914595238E+02  0.10083306919E+02 -0.30998602838E+00  0.63718250633E+02  0.00000000000E+00 0.  1.
         11    1    1    2    0    0 -0.43978381645E+02  0.10362153814E+03 -0.30658992947E+02  0.11666831218E+03  0.00000000000E+00 0. -1.
</event>
<event>
 7    1  0.2394257E-009  0.1425773E+03  0.7561462E-02  0.1209903E+00
          1   -1    0    0  501    0  0.00000000000E+00  0.00000000000E+00  0.10604671555E+03  0.10604671555E+03  0.00000000000E+00 0. -1.
         -1   -1    0    0    0  501 -0.00000000000E+00 -0.00000000000E+00 -0.20780938385E+03  0.20780938385E+03  0.00000000000E+00 0.  1.
         25    2    1    2    0    0  0.54260497355E+02  0.86216293747E+02 -0.53238530445E+02  0.16988671162E+03  0.12509877210E+03 0.  0.
          5    1    3    3  502    0  0.69428375757E+02  0.11127600078E+03 -0.48600361186E+02  0.13993611120E+03  0.41800000000E+01 0. -1.
         -5    1    3    3    0  502 -0.15167878402E+02 -0.25059707030E+02 -0.46381692591E+01  0.29950600423E+02  0.41800000000E+01 0. -1.
        -11    1    1    2    0    0 -0.65413913091E+02 -0.39729606727E+02 -0.97081902254E+00  0.76539951438E+02  0.00000000000E+00 0.  1.
         11    1    1    2    0    0  0.11153415736E+02 -0.46486687020E+02 -0.47553318840E+02  0.67429436342E+02  0.00000000000E+00 0. -1.
</event>
<event>
 7    1  0.2394257E-009  0.7378486E+02  0.7561462E-02  0.1347676E+00
          2   -1    0    0  501    0  0.00000000000E+00  0.00000000000E+00  0.11662365503E+04  0.11662365503E+04  0.00000000000E+00 0. -1.
         -2   -1    0    0    0  501 -0.00000000000E+00 -0.00000000000E+00 -0.13584684962E+02  0.13584684962E+02  0.00000000000E+00 0.  1.
         25    2    1    2    0    0 -0.47630272300E+02 -0.21243389954E+01  0.83375614288E+03  0.84443400835E+03  0.12508530295E+03 0.  0.
          5    1    3    3  502    0 -0.24332811074E+02  0.14517930259E+02  0.79765228222E+03  0.79816633086E+03  0.41800000000E+01 0. -1.
         -5    1    3    3    0  502 -0.23297461227E+02 -0.16642269254E+02  0.36103860661E+02  0.46267677489E+02  0.41800000000E+01 0. -1.
        -11    1    1    2    0    0  0.12447692156E+02 -0.36014863491E+02  0.58109906266E+02  0.69489399469E+02  0.00000000000E+00 0.  1.
         11    1    1    2    0    0  0.35182580144E+02  0.38139202486E+02  0.26078581623E+03  0.26589782748E+03  0.00000000000E+00 0. -1.
</event>
<event>
 7    1  0.2394257E-009  0.1070309E+03  0.7561462E-02  0.1266169E+00
          1   -1    0    0  501    0  0.00000000000E+00  0.00000000000E+00  0.39395071328E+03  0.39395071328E+03  0.00000000000E+00 0. -1.
         -1   -1    0    0    0  501 -0.00000000000E+00 -0.00000000000E+00 -0.46152209622E+02  0.46152209622E+02  0.00000000000E+00 0.  1.
         25    2    1    2    0    0 -0.13440082583E+02 -0.62540260835E+02  0.28069856133E+03  0.31389630325E+03  0.12508911550E+03 0.  0.
          5    1    3    3  502    0  0.42941144079E+02 -0.26404299065E+02  0.21167300459E+03  0.21763286089E+03  0.41800000000E+01 0.  1.
         -5    1    3    3    0  502 -0.56381226662E+02 -0.36135961770E+02  0.69025556734E+02  0.96263442362E+02  0.41800000000E+01 0.  1.
        -11    1    1    2    0    0 -0.21182376585E+02  0.57646109569E+02  0.14597123555E+02  0.63125613203E+02  0.00000000000E+00 0.  1.
         11    1    1    2    0    0  0.34622459168E+02  0.48941512658E+01  0.52502818769E+02  0.63081006446E+02  0.00000000000E+00 0. -1.
</event>
<event>
 7    1  0.2394257E-009  0.1609827E+03  0.7561462E-02  0.1187592E+00
          2   -1    0    0  501    0  0.00000000000E+00  0.00000000000E+00  0.15028325616E+03  0.15028325616E+03  0.00000000000E+00 0. -1.
         -2   -1    0    0    0  501 -0.00000000000E+00 -0.00000000000E+00 -0.22754874557E+03  0.22754874557E+03  0.00000000000E+00 0.  1.
         25    2    1    2    0    0  0.31192615015E+02  0.13992902344E+03  0.31581493707E+01  0.19029756061E+03  0.12510026713E+03 0.  0.
          5    1    3    3  502    0 -0.16076011094E+02 -0.11272068094E+02 -0.22065126203E+02  0.29830183475E+02  0.41800000000E+01 0. -1.
         -5    1    3    3    0  502  0.47268626109E+02  0.15120109153E+03  0.25223275574E+02  0.16046737714E+03  0.41800000000E+01 0. -1.
        -11    1    1    2    0    0 -0.22948781069E+02 -0.94401764971E+02 -0.98043926313E+02  0.13802518346E+03  0.00000000000E+00 0.  1.
         11    1    1    2    0    0 -0.82438339455E+01 -0.45527258464E+02  0.17620287528E+02  0.49509257659E+02  0.00000000000E+00 0. -1.
</event>
<event>
 7    1  0.2394257E-009  0.1176465E+03  0.7561462E-02  0.1247031E+00
          2   -1    0    0  501    0  0.00000000000E+00  0.00000000000E+00  0.65029948566E+02  0.65029948566E+02  0.00000000000E+00 0. -1.
         -2   -1    0    0    0  501 -0.00000000000E+00 -0.00000000000E+00 -0.22962518233E+03  0.22962518233E+03  0.00000000000E+00 0.  1.
         25    2    1    2    0    0 -0.27920877537E+00  0.57196209974E+02 -0.95828647729E+02  0.16763918250E+03  0.12509309090E+03 0.  0.
          5    1    3    3  502    0 -0.48732313469E+02  0.71238666418E+02 -0.53332219460E+02  0.10154596989E+03  0.41800000000E+01 0. -1.
         -5    1    3    3    0  502  0.48453104694E+02 -0.14042456443E+02 -0.42496428269E+02  0.66093212609E+02  0.41800000000E+01 0. -1.
        -11    1    1    2    0    0 -0.39060532529E+02 -0.19033808635E+02 -0.62874134363E+01  0.43903788450E+02  0.00000000000E+00 0. -1.
         11    1    1    2    0    0  0.39339741304E+02 -0.38162401339E+02 -0.62479172602E+02  0.83112159946E+02  0.00000000000E+00 0.  1.
</event>
<event>
 7    1  0.2394257E-009  0.1005570E+03  0.7561462E-02  0.1279129E+00
         -2   -1    0    0    0  501 -0.00000000000E+00  0.00000000000E+00  0.11636237166E+03  0.11636237166E+03  0.00000000000E+00 0.  1.
          2   -1    0    0  501    0  0.00000000000E+00 -0.00000000000E+00 -0.16832068624E+03  0.16832068624E+03  0.00000000000E+00 0. -1.
         25    2    1    2    0    0 -0.68795621508E+01 -0.88250769105E+02 -0.32195627015E+02  0.15658593548E+03  0.12508824952E+03 0.  0.
          5    1    3    3  502    0  0.28359992272E+02 -0.52807670045E+02  0.37418996255E+02  0.70785541306E+02  0.41800000000E+01 0. -1.
         -5    1    3    3    0  502 -0.35239554423E+02 -0.35443099060E+02 -0.69614623269E+02  0.85800394171E+02  0.41800000000E+01 0. -1.
        -11    1    1    2    0    0 -0.44488680333E+01  0.63462493698E+02 -0.54620690475E+02  0.83849271679E+02  0.00000000000E+00 0.  1.
         11    1    1    2    0    0  0.11328430184E+02  0.24788275406E+02  0.34858002914E+02  0.44247850741E+02  0.00000000000E+00 0. -1.
</event>
<event>
 7    1  0.2394257E-009  0.7775612E+02  0.7561462E-02  0.1335543E+00
          2   -1    0    0  501    0  0.00000000000E+00  0.00000000000E+00  0.37223496316E+03  0.37223496316E+03  0.00000000000E+00 0. -1.
         -2   -1    0    0    0  501 -0.00000000000E+00 -0.00000000000E+00 -0.62138320999E+02  0.62138320999E+02  0.00000000000E+00 0.  1.
         25    2    1    2    0    0  0.50476263945E+02  0.10518077598E+02  0.34175454603E+02  0.13955124991E+03  0.12509239176E+03 0.  0.
          5    1    3    3  502    0  0.29424487497E+02  0.34711496782E+01  0.81658758545E+02  0.86968238982E+02  0.41800000000E+01 0. -1.
         -5    1    3    3    0  502  0.21051776449E+02  0.70469279194E+01 -0.47483303942E+02  0.52583010925E+02  0.41800000000E+01 0. -1.
        -11    1    1    2    0    0 -0.19728379231E+02 -0.49537751973E+02  0.12381040416E+03  0.13480435451E+03  0.00000000000E+00 0. -1.
         11    1    1    2    0    0 -0.30747884714E+02  0.39019674376E+02  0.15211078339E+03  0.16001767973E+03  0.00000000000E+00 0.  1.
</event>
<event>
 7    1  0.2394257E-009  0.1001386E+03  0.7561462E-02  0.1280005E+00
         -1   -1    0    0    0  501 -0.00000000000E+00  0.00000000000E+00  0.18114129420E+02  0.18114129420E+02  0.00000000000E+00 0.  1.
          1   -1    0    0  501    0  0.00000000000E+00 -0.00000000000E+00 -0.71942301938E+03  0.71942301938E+03  0.00000000000E+00 0. -1.
         25    2    1    2    0    0 -0.17876506002E+02  0.24888221142E+02 -0.46868751841E+03  0.48606023802E+03  0.12509025563E+03 0.  0.
          5    1    3    3  502    0 -0.15232294844E+02  0.74688656731E+02 -0.32703915706E+03  0.33583106006E+03  0.41800000000E+01 0.  1.
         -5    1    3    3    0  502 -0.26442111585E+01 -0.49800435589E+02 -0.14164836135E+03  0.15022917796E+03  0.41800000000E+01 0.  1.
        -11    1    1    2    0    0 -0.22333227527E+02 -0.25210653084E+02 -0.30640628523E+02  0.45532386243E+02  0.00000000000E+00 0.  1.
         11    1    1    2    0    0  0.40209733530E+02  0.32243194196E+00 -0.20198074302E+03  0.20594452453E+03  0.00000000000E+00 0. -1.
</event>
<event>
 7    1  0.2394257E-009  0.1432408E+03  0.7561462E-02  0.1209034E+00
         -3   -1    0    0    0  501 -0.00000000000E+00  0.00000000000E+00  0.10412705307E+04  0.10412705307E+04  0.00000000000E+00 0.  1.
          3   -1    0    0  501    0  0.00000000000E+00 -0.00000000000E+00 -0.23155717952E+02  0.23155717952E+02  0.00000000000E+00 0. -1.
         25    2    1    2    0    0  0.59033071293E+02 -0.90023903990E+02  0.46073805620E+03  0.48940366545E+03  0.12508870662E+03 0.  0.
          5    1    3    3  502    0 -0.18645942621E+02  0.15981422333E+02  0.29736374185E+02  0.38791769561E+02  0.41800000000E+01 0.  1.
         -5    1    3    3    0  502  0.77679013913E+02 -0.10600532632E+03  0.43100168202E+03  0.45061189589E+03  0.41800000000E+01 0.  1.
        -11    1    1    2    0    0 -0.90036415081E+01  0.78147996344E+02  0.43852232289E+03  0.44552216843E+03  0.00000000000E+00 0.  1.
         11    1    1    2    0    0 -0.50029429785E+02  0.11875907646E+02  0.11885443367E+03  0.12950041479E+03  0.00000000000E+00 0. -1.
</event>
<event>
 7    1  0.2394257E-009  0.1537183E+03  0.7561462E-02  0.1195977E+00
         -2   -1    0    0    0  501 -0.00000000000E+00  0.00000000000E+00  0.20664778552E+03  0.20664778552E+03  0.00000000000E+00 0.  1.
          2   -1    0    0  501    0  0.00000000000E+00 -0.00000000000E+00 -0.13654888196E+03  0.13654888196E+03  0.00000000000E+00 0. -1.
         25    2    1    2    0    0  0.33287363720E+02  0.11856129218E+03  0.55711275147E+02  0.18416563544E+03  0.12509359101E+03 0.  0.
          5    1    3    3  502    0  0.80962888041E+02  0.80422808171E+02  0.39847287617E+02  0.12094666612E+03  0.41800000000E+01 0. -1.
         -5    1    3    3    0  502 -0.47675524321E+02  0.38138484013E+02  0.15863987531E+02  0.63218969325E+02  0.41800000000E+01 0. -1.
        -11    1    1    2    0    0 -0.25082953849E+02 -0.17340223153E+02  0.43741021995E+02  0.53320867566E+02  0.00000000000E+00 0.  1.
         11    1    1    2    0    0 -0.82044098715E+01 -0.10122106903E+03 -0.29353393589E+02  0.10571016447E+03  0.00000000000E+00 0. -1.
</event>
<event>
 7    1  0.2394257E-009  0.1324395E+03  0.7561462E-02  0.1223880E+00
         -2   -1    0    0    0  501 -0.00000000000E+00  0.00000000000E+00  0.25836069227E+02  0.25836069227E+02  0.00000000000E+00 0.  1.
          2   -1    0    0  501    0  0.00000000000E+00 -0.00000000000E+00 -0.10274778891E+04  0.10274778891E+04  0.00000000000E+00 0. -1.
         25    2    1    2    0    0 -0.93780899043E+01  0.97012356459E+02 -0.76732881282E+03  0.78354409552E+03  0.12509395177E+03 0.  0.
          5    1    3    3  502    0  0.57706625770E+02  0.50965886610E+02 -0.37113313302E+03  0.37905784661E+03  0.41800000000E+01 0.  1.
         -5    1    3    3    0  502 -0.67084715674E+02  0.46046469849E+02 -0.39619567980E+03  0.40448624891E+03  0.41800000000E+01 0.  1.
        -11    1    1    2    0    0  0.20690143130E+02 -0.21106512902E+02 -0.77405761261E+01  0.30552961041E+02  0.00000000000E+00 0.  1.
         11    1    1    2    0    0 -0.11312053225E+02 -0.75905843558E+02 -0.22657243096E+03  0.23921690179E+03  0.00000000000E+00 0. -1.
</event>
<event>
 7    1  0.2394257E-009  0.2434865E+03  0.7561462E-02  0.1117492E+00
         -2   -1    0    0    0  501 -0.00000000000E+00  0.00000000000E+00  0.16332196578E+03  0.16332196578E+03  0.00000000000E+00 0.  1.
          2   -1    0    0  501    0  0.00000000000E+00 -0.00000000000E+00 -0.42079371891E+03  0.42079371891E+03  0.00000000000E+00 0. -1.
         25    2    1    2    0    0  0.22658970968E+03  0.18903518724E+02 -0.21117583569E+03  0.33457946485E+03  0.12509174700E+03 0.  0.
          5    1    3    3  502    0  0.14640090054E+03  0.52092311634E+02 -0.18936643889E+03  0.24499786364E+03  0.41800000000E+01 0.  1.
         -5    1    3    3    0  502  0.80188809143E+02 -0.33188792910E+02 -0.21809396798E+02  0.89581601210E+02  0.41800000000E+01 0.  1.
        -11    1    1    2    0    0 -0.19080036018E+03  0.19917410253E+02 -0.29264634913E+02  0.19405643389E+03  0.00000000000E+00 0. -1.
         11    1    1    2    0    0 -0.35789349500E+02 -0.38820928977E+02 -0.17031282521E+02  0.55479785946E+02  0.00000000000E+00 0.  1.
</event>
<event>
 7    1  0.2394257E-009  0.1002636E+03  0.7561462E-02  0.1279743E+00
          4   -1    0    0  501    0  0.00000000000E+00  0.00000000000E+00  0.77206821517E+03  0.77206821517E+03  0.00000000000E+00 0.  1.
         -4   -1    0    0    0  501 -0.00000000000E+00 -0.00000000000E+00 -0.19580644003E+02  0.19580644003E+02  0.00000000000E+00 0. -1.
         25    2    1    2    0    0 -0.23492690053E+02 -0.52159587213E+02  0.46012817842E+03  0.48024783638E+03  0.12509002658E+03 0.  0.
          5    1    3    3  502    0  0.12459781100E+02  0.13221207964E+02  0.32737836094E+03  0.32790869170E+03  0.41800000000E+01 0.  1.
         -5    1    3    3    0  502 -0.35952471153E+02 -0.65380795177E+02  0.13274981748E+03  0.15233914468E+03  0.41800000000E+01 0.  1.
        -11    1    1    2    0    0  0.41241822334E+02  0.70471435510E+02  0.22739487494E+03  0.24161030665E+03  0.00000000000E+00 0.  1.
         11    1    1    2    0    0 -0.17749132282E+02 -0.18311848297E+02  0.64964517809E+02  0.69790716138E+02  0.00000000000E+00 0. -1.
</event>
<event>
 7    1  0.2394257E-009  0.9410055E+02  0.7561462E-02  0.1293215E+00
          1   -1    0    0  501    0  0.00000000000E+00  0.00000000000E+00  0.11929399339E+03  0.11929399339E+03  0.00000000000E+00 0. -1.
         -1   -1    0    0    0  501 -0.00000000000E+00 -0.00000000000E+00 -0.32307669876E+03  0.32307669876E+03  0.00000000000E+00 0.  1.
         25    2    1    2    0    0 -0.42161409285E+02  0.32541274368E+02 -0.26946341124E+03  0.30182015239E+03  0.12509338681E+03 0.  0.
          5    1    3    3  502    0 -0.62197467115E+02  0.97950036937E+01 -0.26310621461E+03  0.27056758782E+03  0.41800000000E+01 0. -1.
         -5    1    3    3    0  502  0.20036057831E+02  0.22746270675E+02 -0.63571966235E+01  0.31252564566E+02  0.41800000000E+01 0. -1.
        -11    1    1    2    0    0 -0.16508808934E+01 -0.48008556916E+02 -0.12472085531E+02  0.49629626861E+02  0.00000000000E+00 0.  1.
         11    1    1    2    0    0  0.43812290178E+02  0.15467282548E+02  0.78152791399E+02  0.90920912905E+02  0.00000000000E+00 0. -1.
</event>
<event>
 7    1  0.2394257E-009  0.2245500E+03  0.7561462E-02  0.1130536E+00
          2   -1    0    0  501    0  0.00000000000E+00  0.00000000000E+00  0.48446250105E+03  0.48446250105E+03  0.00000000000E+00 0. -1.
         -2   -1    0    0    0  501 -0.00000000000E+00 -0.00000000000E+00 -0.11577944774E+03  0.11577944774E+03  0.00000000000E+00 0.  1.
         25    2    1    2    0    0  0.42054594915E+01  0.20976771158E+03  0.18260443670E+03  0.30497836595E+03  0.12508894709E+03 0.  0.
          5    1    3    3  502    0  0.53866183397E+02  0.75230173222E+02  0.34664034242E+02  0.98894956124E+02  0.41800000000E+01 0.  1.
         -5    1    3    3    0  502 -0.49660723906E+02  0.13453753836E+03  0.14794040245E+03  0.20608340983E+03  0.41800000000E+01 0.  1.
        -11    1    1    2    0    0  0.11076453078E+02 -0.17068055620E+03  0.96604527785E+02  0.19643567616E+03  0.00000000000E+00 0.  1.
         11    1    1    2    0    0 -0.15281912570E+02 -0.39087155378E+02  0.89474088825E+02  0.98827906678E+02  0.00000000000E+00 0. -1.
</event>
<event>
 7    1  0.2394257E-009  0.1096368E+03  0.7561462E-02  0.1261244E+00
         -4   -1    0    0    0  501 -0.00000000000E+00  0.00000000000E+00  0.72922855751E+02  0.72922855751E+02  0.00000000000E+00 0.  1.
          4   -1    0    0  501    0  0.00000000000E+00 -0.00000000000E+00 -0.46898157023E+03  0.46898157023E+03  0.00000000000E+00 0. -1.
         25    2    1    2    0    0 -0.64159647313E+02 -0.39093295113E+02 -0.19655814791E+02  0.14723593035E+03  0.12508925640E+03 0.  0.
          5    1    3    3  502    0 -0.83216647810E+02 -0.17841209346E+01  0.23857511396E+02  0.86688216098E+02  0.41800000000E+01 0.  1.
         -5    1    3    3    0  502  0.19057000497E+02 -0.37309174178E+02 -0.43513326186E+02  0.60547714256E+02  0.41800000000E+01 0.  1.
        -11    1    1    2    0    0 -0.19337589550E+01  0.26472211551E+02 -0.23634733219E+02  0.35540371726E+02  0.00000000000E+00 0.  1.
         11    1    1    2    0    0  0.66093406268E+02  0.12621083562E+02 -0.35276816647E+03  0.35912812390E+03  0.00000000000E+00 0. -1.
</event>
<event>
 7    1  0.2394257E-009  0.1084513E+03  0.7561462E-02  0.1263465E+00
         -2   -1    0    0    0  501 -0.00000000000E+00  0.00000000000E+00  0.11769438020E+02  0.11769438020E+02  0.00000000000E+00 0.  1.
          2   -1    0    0  501    0  0.00000000000E+00 -0.00000000000E+00 -0.18586722614E+04  0.18586722614E+04  0.00000000000E+00 0. -1.
         25    2    1    2    0    0 -0.36053936891E+02  0.59244573379E+02 -0.14822563556E+04  0.14891405346E+04  0.12508326104E+03 0.  0.
          5    1    3    3  502    0  0.39870911498E+01  0.65435364369E+02 -0.13271626440E+04  0.13287873569E+04  0.41800000000E+01 0.  1.
         -5    1    3    3    0  502 -0.40041028040E+02 -0.61907909900E+01 -0.15509371167E+03  0.16035317776E+03  0.41800000000E+01 0.  1.
        -11    1    1    2    0    0  0.63303054004E+02 -0.52915070122E+02 -0.29274114733E+03  0.30414578845E+03  0.00000000000E+00 0.  1.
         11    1    1    2    0    0 -0.27249117114E+02 -0.63295032569E+01 -0.71905320380E+02  0.77155376312E+02  0.00000000000E+00 0. -1.
</event>
<event>
 7    1  0.2394257E-009  0.1360358E+03  0.7561462E-02  0.1218765E+00
         -2   -1    0    0    0  501 -0.00000000000E+00  0.00000000000E+00  0.15994297002E+03  0.15994297002E+03  0.00000000000E+00 0.  1.
          2   -1    0    0  501    0  0.00000000000E+00 -0.00000000000E+00 -0.20060938835E+03  0.20060938835E+03  0.00000000000E+00 0. -1.
         25    2    1    2    0    0 -0.10222311623E+03 -0.27220797602E+02 -0.11632387700E+03  0.20092068084E+03  0.12508932134E+03 0.  0.
          5    1    3    3  502    0 -0.12605468727E+03  0.10818255413E+01 -0.95945431140E+02  0.15847382335E+03  0.41800000000E+01 0. -1.
         -5    1    3    3    0  502  0.23831571042E+02 -0.28302623143E+02 -0.20378445859E+02  0.42446857489E+02  0.41800000000E+01 0. -1.
        -11    1    1    2    0    0  0.48162602311E+02  0.25780012699E+02 -0.12656347180E+02  0.56075203433E+02  0.00000000000E+00 0. -1.
         11    1    1    2    0    0  0.54060513919E+02  0.14407849023E+01  0.88313805845E+02  0.10355647411E+03  0.00000000000E+00 0.  1.
</event>
<event>
 7    1  0.2394257E-009  0.1172519E+03  0.7561462E-02  0.1247701E+00
         -1   -1    0    0    0  501 -0.00000000000E+00  0.00000000000E+00  0.19252303089E+02  0.19252303089E+02  0.00000000000E+00 0.  1.
          1   -1    0    0  501    0  0.00000000000E+00 -0.00000000000E+00 -0.85576188367E+03  0.85576188367E+03  0.00000000000E+00 0. -1.
         25    2    1    2    0    0 -0.19583465291E+01 -0.46621330623E+02 -0.63985516856E+03  0.65363616992E+03  0.12509285477E+03 0.  0.
          5    1    3    3  502    0 -0.58986488683E+02 -0.47754464221E+02 -0.38699083333E+03  0.39438467539E+03  0.41800000000E+01 0. -1.
         -5    1    3    3    0  502  0.57028142153E+02  0.11331335982E+01 -0.25286433523E+03  0.25925149453E+03  0.41800000000E+01 0. -1.
        -11    1    1    2    0    0  0.41137418096E+01 -0.27170034199E+02 -0.45379635050E+02  0.53051342181E+02  0.00000000000E+00 0.  1.
         11    1    1    2    0    0 -0.21553952805E+01  0.73791364821E+02 -0.15127477698E+03  0.16832667465E+03  0.00000000000E+00 0. -1.
</event>
<event>
 7    1  0.2394257E-009  0.1040332E+03  0.7561462E-02  0.1272036E+00
          2   -1    0    0  501    0  0.00000000000E+00  0.00000000000E+00  0.50334169445E+03  0.50334169445E+03  0.00000000000E+00 0. -1.
         -2   -1    0    0    0  501 -0.00000000000E+00 -0.00000000000E+00 -0.31058657679E+02  0.31058657679E+02  0.00000000000E+00 0.  1.
         25    2    1    2    0    0 -0.59122531127E+02  0.16584684264E+02  0.28933736228E+03  0.32114548138E+03  0.12509110906E+03 0.  0.
          5    1    3    3  502    0 -0.61815917380E+02  0.43987211418E+02  0.28240097013E+03  0.29244463192E+03  0.41800000000E+01 0. -1.
         -5    1    3    3    0  502  0.26933862529E+01 -0.27402527154E+02  0.69363921487E+01  0.28700849464E+02  0.41800000000E+01 0. -1.
        -11    1    1    2    0    0  0.80042136467E+02 -0.47168722642E+01  0.16430519080E+03  0.18282556774E+03  0.00000000000E+00 0. -1.
         11    1    1    2    0    0 -0.20919605341E+02 -0.11867812000E+02  0.18640483696E+02  0.30429303011E+02  0.00000000000E+00 0.  1.
</event>
<event>
 7    1  0.2394257E-009  0.1001994E+03  0.7561462E-02  0.1279877E+00
         -1   -1    0    0    0  501 -0.00000000000E+00  0.00000000000E+00  0.26713117108E+02  0.26713117108E+02  0.00000000000E+00 0.  1.
          1   -1    0    0  501    0  0.00000000000E+00 -0.00000000000E+00 -0.47980221909E+03  0.47980221909E+03  0.00000000000E+00 0. -1.
         25    2    1    2    0    0  0.83614482534E+00  0.32297998143E+02 -0.33198621693E+03  0.35623743164E+03  0.12508556929E+03 0.  0.
          5    1    3    3  502    0 -0.32244415512E+02  0.67563644642E+02 -0.14736334160E+03  0.16534199484E+03  0.41800000000E+01 0. -1.
         -5    1    3    3    0  502  0.33080560338E+02 -0.35265646499E+02 -0.18462287533E+03  0.19089543680E+03  0.41800000000E+01 0. -1.
        -11    1    1    2    0    0  0.30851528577E+02  0.10685477833E+01 -0.14375192393E+02  0.34052970006E+02  0.00000000000E+00 0.  1.
         11    1    1    2    0    0 -0.31687673402E+02 -0.33366545927E+02 -0.10672769266E+03  0.11622493456E+03  0.00000000000E+00 0. -1.
</event>
<event>
 7    1  0.2394257E-009  0.8590239E+02  0.7561462E-02  0.1313089E+00
         -3   -1    0    0    0  501 -0.00000000000E+00  0.00000000000E+00  0.65916980513E+02  0.65916980513E+02  0.00000000000E+00 0.  1.
          3   -1    0    0  501    0  0.00000000000E+00 -0.00000000000E+00 -0.22216839079E+03  0.22216839079E+03  0.00000000000E+00 0. -1.
         25    2    1    2    0    0 -0.97241437771E+01  0.38852393174E+02 -0.53011557157E+02  0.14164120691E+03  0.12509172185E+03 0.  0.
          5    1    3    3  502    0  0.39045268074E+02 -0.27445353758E+02 -0.11062758023E+02  0.49169476476E+02  0.41800000000E+01 0. -1.
         -5    1    3    3    0  502 -0.48769411851E+02  0.66297746933E+02 -0.41948799133E+02  0.92471730433E+02  0.41800000000E+01 0. -1.
        -11    1    1    2    0    0  0.73309297173E+01 -0.93217742791E+01  0.18044997682E+02  0.21593053225E+02  0.00000000000E+00 0.  1.
         11    1    1    2    0    0  0.23932140599E+01 -0.29530618895E+02 -0.12128485080E+03  0.12485111117E+03  0.00000000000E+00 0. -1.
</event>
<event>
 7    1  0.2394257E-009  0.1370046E+03  0.7561462E-02  0.1217417E+00
         -2   -1    0    0    0  501 -0.00000000000E+00  0.00000000000E+00  0.64804539183E+03  0.64804539183E+03  0.00000000000E+00 0.  1.
          2   -1    0    0  501    0  0.00000000000E+00 -0.00000000000E+00 -0.30945518263E+02  0.30945518263E+02  0.00000000000E+00 0. -1.
         25    2    1    2    0    0 -0.71888116073E+02  0.52880851270E+02  0.38720690444E+03  0.41658268047E+03  0.12509059581E+03 0.  0.
          5    1    3    3  502    0  0.96343003410E+01 -0.29624256740E+02  0.14001888354E+03  0.14350322811E+03  0.41800000000E+01 0.  1.
         -5    1    3    3    0  502 -0.81522416414E+02  0.82505108010E+02  0.24718802090E+03  0.27307945236E+03  0.41800000000E+01 0.  1.
        -11    1    1    2    0    0  0.74127744690E+02 -0.74315185240E+02  0.18995767503E+03  0.21702900173E+03  0.00000000000E+00 0.  1.
         11    1    1    2    0    0 -0.22396286171E+01  0.21434333970E+02  0.39935294099E+02  0.45379227890E+02  0.00000000000E+00 0. -1.
</event>
<event>
 7    1  0.2394257E-009  0.1060419E+03  0.7561462E-02  0.1268080E+00
          1   -1    0    0  501    0  0.00000000000E+00  0.00000000000E+00  0.46914519436E+03  0.46914519436E+03  0.00000000000E+00 0. -1.
         -1   -1    0    0    0  501 -0.00000000000E+00 -0.00000000000E+00 -0.33958162848E+02  0.33958162848E+02  0.00000000000E+00 0.  1.
         25    2    1    2    0    0 -0.34017681660E+01  0.35906600776E+02  0.34823939923E+03  0.37178287699E+03  0.12510384660E+03 0.  0.
          5    1    3    3  502    0 -0.42978600701E+02  0.66863370015E+02  0.20343042266E+03  0.21844742990E+03  0.41800000000E+01 0. -1.
         -5    1    3    3    0  502  0.39576832535E+02 -0.30956769240E+02  0.14480897658E+03  0.15333544709E+03  0.41800000000E+01 0. -1.
        -11    1    1    2    0    0  0.26451493694E+02  0.11893412069E+02  0.69744782512E+02  0.75534558031E+02  0.00000000000E+00 0. -1.
         11    1    1    2    0    0 -0.23049725528E+02 -0.47800012845E+02  0.17202849768E+02  0.55785922194E+02  0.00000000000E+00 0.  1.
</event>
<event>
 7    1  0.2394257E-009  0.9979668E+02  0.7561462E-02  0.1280724E+00
          2   -1    0    0  501    0  0.00000000000E+00  0.00000000000E+00  0.12310558087E+03  0.12310558087E+03  0.00000000000E+00 0. -1.
         -2   -1    0    0    0  501 -0.00000000000E+00 -0.00000000000E+00 -0.98449126710E+02  0.98449126710E+02  0.00000000000E+00 0.  1.
         25    2    1    2    0    0 -0.12527846206E+02 -0.73923528862E+01 -0.18419471628E+01  0.12594910883E+03  0.12509273134E+03 0.  0.
          5    1    3    3  502    0  0.51288962598E+02 -0.27581051415E+02 -0.63759254252E+01  0.58731566525E+02  0.41800000000E+01 0.  1.
         -5    1    3    3    0  502 -0.63816808804E+02  0.20188698529E+02  0.45339782623E+01  0.67217542302E+02  0.41800000000E+01 0.  1.
        -11    1    1    2    0    0 -0.23076368392E+02 -0.18945685830E+02 -0.16300797585E+02  0.34017257262E+02  0.00000000000E+00 0.  1.
         11    1    1    2    0    0  0.35604214598E+02  0.26338038716E+02  0.42799198907E+02  0.61588341491E+02  0.00000000000E+00 0. -1.
</event>
<event>
 7    1  0.2394257E-009  0.1267968E+03  0.7561462E-02  0.1232288E+00
         -2   -1    0    0    0  501 -0.00000000000E+00  0.00000000000E+00  0.18662428670E+02  0.18662428670E+02  0.00000000000E+00 0. -1.
          2   -1    0    0  501    0  0.00000000000E+00 -0.00000000000E+00 -0.90579812311E+03  0.90579812311E+03  0.00000000000E+00 0.  1.
         25    2    1    2    0    0  0.62085814493E+02  0.24258036579E+02 -0.57261699894E+03  0.58989898734E+03  0.12508991601E+03 0.  0.
          5    1    3    3  502    0  0.42569729796E+02 -0.48298003458E+02 -0.21601562566E+03  0.22544423249E+03  0.41800000000E+01 0. -1.
         -5    1    3    3    0  502  0.19516084697E+02  0.72556040038E+02 -0.35660137328E+03  0.36445475485E+03  0.41800000000E+01 0. -1.
        -11    1    1    2    0    0 -0.11344042240E+02 -0.53886510003E+02 -0.14150724151E+03  0.15184446863E+03  0.00000000000E+00 0.  1.
         11    1    1    2    0    0 -0.50741772253E+02  0.29628473424E+02 -0.17301145398E+03  0.18271709580E+03  0.00000000000E+00 0. -1.
</event>
<event>
 7    1  0.2394257E-009  0.1200803E+03  0.7561462E-02  0.1242965E+00
          1   -1    0    0  501    0  0.00000000000E+00  0.00000000000E+00  0.41084059517E+03  0.41084059517E+03  0.00000000000E+00 0. -1.
         -1   -1    0    0    0  501 -0.00000000000E+00 -0.00000000000E+00 -0.56826095601E+02  0.56826095601E+02  0.00000000000E+00 0.  1.
         25    2    1    2    0    0  0.55482460315E+02  0.87154514464E+02  0.21727412849E+03  0.27116258226E+03  0.12508751462E+03 0.  0.
          5    1    3    3  502    0  0.77393201687E+02  0.73487973978E+02  0.22030251221E+03  0.24482822401E+03  0.41800000000E+01 0.  1.
         -5    1    3    3    0  502 -0.21910741372E+02  0.13666540487E+02 -0.30283837217E+01  0.26334358247E+02  0.41800000000E+01 0.  1.
        -11    1    1    2    0    0 -0.11493889783E+02 -0.44355192860E+02  0.12616213291E+03  0.13422509608E+03  0.00000000000E+00 0. -1.
         11    1    1    2    0    0 -0.43988570532E+02 -0.42799321604E+02  0.10578238169E+02  0.62279012436E+02  0.00000000000E+00 0.  1.
</event>
<event>
 7    1  0.3119690E-009  0.1176470E+03  0.7561462E-02  0.1247030E+00
          1   -1    0    0  501    0  0.00000000000E+00  0.00000000000E+00  0.91327674207E+03  0.91327674207E+03  0.00000000000E+00 0. -1.
         -1   -1    0    0    0  501 -0.00000000000E+00 -0.00000000000E+00 -0.24451266800E+02  0.24451266800E+02  0.00000000000E+00 0.  1.
         25    2    1    2    0    0  0.43022785347E+02 -0.92219843789E+02  0.50528357133E+03  0.53039017544E+03  0.12508713402E+03 0.  0.
          5    1    3    3  502    0  0.52644863199E+02 -0.10116855439E+03  0.25092470777E+03  0.27565783026E+03  0.41800000000E+01 0. -1.
         -5    1    3    3    0  502 -0.96220778521E+01  0.89487106013E+01  0.25435886356E+03  0.25473234517E+03  0.41800000000E+01 0. -1.
        -11    1    1    2    0    0 -0.25548291545E+02  0.84501034519E+02  0.37691911111E+03  0.38711904675E+03  0.00000000000E+00 0. -1.
         11    1    1    2    0    0 -0.17474493802E+02  0.77188092700E+01  0.66227928317E+01  0.20218786686E+02  0.00000000000E+00 0.  1.
</event>
<event>
 7    1  0.2394257E-009  0.1190834E+03  0.7561462E-02  0.1244617E+00
          2   -1    0    0  501    0  0.00000000000E+00  0.00000000000E+00  0.61031439501E+03  0.61031439501E+03  0.00000000000E+00 0.  1.
         -2   -1    0    0    0  501 -0.00000000000E+00 -0.00000000000E+00 -0.39329999608E+02  0.39329999608E+02  0.00000000000E+00 0. -1.
         25    2    1    2    0    0 -0.56437853000E+01 -0.10090252431E+03  0.40203565797E+03  0.43300706815E+03  0.12509707856E+03 0.  0.
          5    1    3    3  502    0 -0.38535582911E+01 -0.96518722899E+02  0.13583410506E+03  0.16673059191E+03  0.41800000000E+01 0.  1.
         -5    1    3    3    0  502 -0.17902270089E+01 -0.43838014160E+01  0.26620155291E+03  0.26627647624E+03  0.41800000000E+01 0.  1.
        -11    1    1    2    0    0  0.32275270609E+02  0.10349147579E+03  0.14212045449E+03  0.17874675448E+03  0.00000000000E+00 0.  1.
         11    1    1    2    0    0 -0.26631485309E+02 -0.25889514730E+01  0.26828282933E+02  0.37890571976E+02  0.00000000000E+00 0. -1.
</event>
<event>
 7    1  0.2394257E-009  0.1238820E+03  0.7561462E-02  0.1236827E+00
         -1   -1    0    0    0  501 -0.00000000000E+00  0.00000000000E+00  0.90279940706E+03  0.90279940706E+03  0.00000000000E+00 0.  1.
          1   -1    0    0  501    0  0.00000000000E+00 -0.00000000000E+00 -0.19730468733E+02  0.19730468733E+02  0.00000000000E+00 0. -1.
         25    2    1    2    0    0  0.51047879492E+02  0.62144226404E+02  0.48699806832E+03  0.50919818630E+03  0.12509150053E+03 0.  0.
          5    1    3    3  502    0  0.74134964875E+02  0.72996877154E+02  0.25032264197E+03  0.27111516847E+03  0.41800000000E+01 0. -1.
         -5    1    3    3    0  502 -0.23087085382E+02 -0.10852650749E+02  0.23667542636E+03  0.23808301783E+03  0.41800000000E+01 0. -1.
        -11    1    1    2    0    0 -0.24553954071E+02  0.19879022925E+02  0.12213140388E+03  0.12615130608E+03  0.00000000000E+00 0.  1.
         11    1    1    2    0    0 -0.26493925421E+02 -0.82023249329E+02  0.27393946613E+03  0.28718038341E+03  0.00000000000E+00 0. -1.
</event>
<event>
 7    1  0.2394257E-009  0.1673531E+03  0.7561462E-02  0.1180637E+00
          2   -1    0    0  501    0  0.00000000000E+00  0.00000000000E+00  0.79574259994E+02  0.79574259994E+02  0.00000000000E+00 0.  1.
         -2   -1    0    0    0  501 -0.00000000000E+00 -0.00000000000E+00 -0.54066057059E+03  0.54066057059E+03  0.00000000000E+00 0. -1.
         25    2    1    2    0    0  0.72063356878E+01  0.12919612188E+03 -0.60980582344E+02  0.19002677662E+03  0.12509186716E+03 0.  0.
          5    1    3    3  502    0 -0.57322124565E+02  0.53589583577E+02 -0.13284686014E+02  0.79697080970E+02  0.41800000000E+01 0. -1.
         -5    1    3    3    0  502  0.64528460253E+02  0.75606538301E+02 -0.47695896330E+02  0.11032969565E+03  0.41800000000E+01 0. -1.
        -11    1    1    2    0    0 -0.46566928633E+02 -0.50796628847E+02 -0.14751316041E+03  0.16281556694E+03  0.00000000000E+00 0.  1.
         11    1    1    2    0    0  0.39360592945E+02 -0.78399493031E+02 -0.25259256785E+03  0.26739248702E+03  0.00000000000E+00 0. -1.
</event>
<event>
 7    1  0.2394257E-009  0.1153255E+03  0.7561462E-02  0.1251014E+00
         -2   -1    0    0    0  501 -0.00000000000E+00  0.00000000000E+00  0.48350400116E+02  0.48350400116E+02  0.00000000000E+00 0.  1.
          2   -1    0    0  501    0  0.00000000000E+00 -0.00000000000E+00 -0.53388116030E+03  0.53388116030E+03  0.00000000000E+00 0. -1.
         25    2    1    2    0    0  0.11645805944E+02  0.93160454508E+02 -0.38881711797E+03  0.41909279561E+03  0.12508207314E+03 0.  0.
          5    1    3    3  502    0  0.20642592616E+02  0.24807512800E+02 -0.10019693139E+02  0.34049904138E+02  0.41800000000E+01 0. -1.
         -5    1    3    3    0  502 -0.89967866723E+01  0.68352941708E+02 -0.37879742483E+03  0.38504289147E+03  0.41800000000E+01 0. -1.
        -11    1    1    2    0    0 -0.46983154353E+02 -0.27408606805E+02 -0.25890149906E+02  0.60240753499E+02  0.00000000000E+00 0. -1.
         11    1    1    2    0    0  0.35337348409E+02 -0.65751847703E+02 -0.70823492303E+02  0.10289801131E+03  0.00000000000E+00 0.  1.
</event>
<event>
 7    1  0.2394257E-009  0.9670285E+02  0.7561462E-02  0.1287386E+00
          2   -1    0    0  501    0  0.00000000000E+00  0.00000000000E+00  0.68469046303E+02  0.68469046303E+02  0.00000000000E+00 0. -1.
         -2   -1    0    0    0  501 -0.00000000000E+00 -0.00000000000E+00 -0.30506482848E+03  0.30506482848E+03  0.00000000000E+00 0.  1.
         25    2    1    2    0    0 -0.36457673090E+02 -0.87676732584E+02 -0.13182418861E+03  0.20503447683E+03  0.12508056852E+03 0.  0.
          5    1    3    3  502    0 -0.32664576799E+02 -0.47546490147E+02  0.89660890997E+01  0.58527826344E+02  0.41800000000E+01 0. -1.
         -5    1    3    3    0  502 -0.37930962914E+01 -0.40130242437E+02 -0.14079027771E+03  0.14650665049E+03  0.41800000000E+01 0. -1.
        -11    1    1    2    0    0  0.30592226557E+02  0.69265427023E+02 -0.15667703632E+02  0.77324385827E+02  0.00000000000E+00 0. -1.
         11    1    1    2    0    0  0.58654465327E+01  0.18411305562E+02 -0.89103889935E+02  0.91175012131E+02  0.00000000000E+00 0.  1.
</event>
<event>
 7    1  0.2394257E-009  0.3075223E+03  0.7561462E-02  0.1081540E+00
         -1   -1    0    0    0  501 -0.00000000000E+00  0.00000000000E+00  0.27602559552E+03  0.27602559552E+03  0.00000000000E+00 0.  1.
          1   -1    0    0  501    0  0.00000000000E+00 -0.00000000000E+00 -0.44599451608E+03  0.44599451608E+03  0.00000000000E+00 0. -1.
         25    2    1    2    0    0  0.98404169009E+02 -0.28295445805E+03 -0.23426473155E+03  0.40033640198E+03  0.12507063800E+03 0.  0.
          5    1    3    3  502    0  0.85103847482E+02 -0.14620088571E+03 -0.62621880787E+02  0.18043374461E+03  0.41800000000E+01 0. -1.
         -5    1    3    3    0  502  0.13300321528E+02 -0.13675357234E+03 -0.17164285076E+03  0.21990265737E+03  0.41800000000E+01 0. -1.
        -11    1    1    2    0    0 -0.10604122574E+03  0.21242206029E+03  0.20483694302E+02  0.23830118545E+03  0.00000000000E+00 0. -1.
         11    1    1    2    0    0  0.76370567257E+01  0.70532397761E+02  0.43812116689E+02  0.83382524177E+02  0.00000000000E+00 0.  1.
</event>
<event>
 7    1  0.2394257E-009  0.1276998E+03  0.7561462E-02  0.1230909E+00
         -2   -1    0    0    0  501 -0.00000000000E+00  0.00000000000E+00  0.37545003540E+02  0.37545003540E+02  0.00000000000E+00 0.  1.
          2   -1    0    0  501    0  0.00000000000E+00 -0.00000000000E+00 -0.57936189812E+03  0.57936189812E+03  0.00000000000E+00 0. -1.
         25    2    1    2    0    0 -0.81180787821E+02  0.15637112732E+02 -0.40768816533E+03  0.43438720235E+03  0.12509101412E+03 0.  0.
          5    1    3    3  502    0  0.67972665073E+01 -0.43084328620E+02 -0.13145481699E+03  0.13856515982E+03  0.41800000000E+01 0.  1.
         -5    1    3    3    0  502 -0.87978054328E+02  0.58721441352E+02 -0.27623334833E+03  0.29582204254E+03  0.41800000000E+01 0.  1.
        -11    1    1    2    0    0  0.40620562119E+02  0.25494869681E+02 -0.10984222354E+03  0.11985546512E+03  0.00000000000E+00 0. -1.
         11    1    1    2    0    0  0.40560225702E+02 -0.41131982413E+02 -0.24286505707E+02  0.62664234183E+02  0.00000000000E+00 0.  1.
</event>
<event>
 7    1  0.3633540E-009  0.1492526E+03  0.7561462E-02  0.1201394E+00
          1   -1    0    0  501    0  0.00000000000E+00  0.00000000000E+00  0.10901702144E+04  0.10901702144E+04  0.00000000000E+00 0. -1.
         -1   -1    0    0    0  501 -0.00000000000E+00 -0.00000000000E+00 -0.31889200647E+02  0.31889200647E+02  0.00000000000E+00 0.  1.
         25    2    1    2    0    0  0.18193873682E+02  0.13588782950E+03  0.36531840563E+03  0.40975766437E+03  0.12508911532E+03 0.  0.
          5    1    3    3  502    0  0.79735940465E+01  0.55227060286E+02  0.30057583722E+03  0.30573994295E+03  0.41800000000E+01 0. -1.
         -5    1    3    3    0  502  0.10220279636E+02  0.80660769216E+02  0.64742568401E+02  0.10401772142E+03  0.41800000000E+01 0. -1.
        -11    1    1    2    0    0  0.30351164835E+02 -0.87414625231E+02  0.47005351515E+03  0.47907495971E+03  0.00000000000E+00 0. -1.
         11    1    1    2    0    0 -0.48545038517E+02 -0.48473204271E+02  0.22290909301E+03  0.23322679101E+03  0.00000000000E+00 0.  1.
</event>
<event>
 7    1  0.2394257E-009  0.1513673E+03  0.7561462E-02  0.1198803E+00
         -2   -1    0    0    0  501 -0.00000000000E+00  0.00000000000E+00  0.26811809790E+02  0.26811809790E+02  0.00000000000E+00 0.  1.
          2   -1    0    0  501    0  0.00000000000E+00 -0.00000000000E+00 -0.87955636564E+03  0.87955636564E+03  0.00000000000E+00 0. -1.
         25    2    1    2    0    0  0.98481968255E+02 -0.45281608553E+02 -0.47665685134E+03  0.50457795914E+03  0.12509212915E+03 0.  0.
          5    1    3    3  502    0  0.84552616642E+02 -0.84453304646E+02 -0.39712969153E+03  0.41474205230E+03  0.41800000000E+01 0. -1.
         -5    1    3    3    0  502  0.13929351613E+02  0.39171696093E+02 -0.79527159805E+02  0.89835906841E+02  0.41800000000E+01 0. -1.
        -11    1    1    2    0    0 -0.81816396211E+01  0.50272558589E+02 -0.13921324003E+03  0.14823830670E+03  0.00000000000E+00 0.  1.
         11    1    1    2    0    0 -0.90300328634E+02 -0.49909500359E+01 -0.23687446448E+03  0.25355190959E+03  0.00000000000E+00 0. -1.
</event>
<event>
 7    1  0.2394257E-009  0.7574029E+02  0.7561462E-02  0.1341594E+00
         -1   -1    0    0    0  501 -0.00000000000E+00  0.00000000000E+00  0.39467052685E+02  0.39467052685E+02  0.00000000000E+00 0.  1.
          1   -1    0    0  501    0  0.00000000000E+00 -0.00000000000E+00 -0.31769235396E+03  0.31769235396E+03  0.00000000000E+00 0. -1.
         25    2    1    2    0    0 -0.25701520891E+02  0.14686662622E+02 -0.15938504529E+03  0.20476130493E+03  0.12508930051E+03 0.  0.
          5    1    3    3  502    0 -0.47546068408E+02 -0.66270886787E+01 -0.62879768852E+01  0.48595863803E+02  0.41800000000E+01 0.  1.
         -5    1    3    3    0  502  0.21844547517E+02  0.21313751301E+02 -0.15309706840E+03  0.15616544113E+03  0.41800000000E+01 0.  1.
        -11    1    1    2    0    0  0.14541880930E+02 -0.41216765204E+02 -0.11541471618E+03  0.12341330863E+03  0.00000000000E+00 0. -1.
         11    1    1    2    0    0  0.11159639961E+02  0.26530102582E+02 -0.34255398043E+01  0.28984793082E+02  0.00000000000E+00 0.  1.
</event>
<event>
 7    1  0.2394257E-009  0.9656585E+02  0.7561462E-02  0.1287688E+00
         -3   -1    0    0    0  501 -0.00000000000E+00  0.00000000000E+00  0.52656079996E+03  0.52656079996E+03  0.00000000000E+00 0.  1.
          3   -1    0    0  501    0  0.00000000000E+00 -0.00000000000E+00 -0.24939372288E+02  0.24939372288E+02  0.00000000000E+00 0. -1.
         25    2    1    2    0    0  0.17723425982E+02 -0.10256437778E+02  0.20749438073E+03  0.24314669603E+03  0.12508830245E+03 0.  0.
          5    1    3    3  502    0 -0.39638123249E+02 -0.23410345620E+02  0.16250602156E+03  0.16895237359E+03  0.41800000000E+01 0.  1.
         -5    1    3    3    0  502  0.57361549231E+02  0.13153907842E+02  0.44988359167E+02  0.74194322440E+02  0.41800000000E+01 0.  1.
        -11    1    1    2    0    0  0.33715600811E+02 -0.53874385666E+01  0.70207348203E+02  0.78069443280E+02  0.00000000000E+00 0. -1.
         11    1    1    2    0    0 -0.51439026793E+02  0.15643876345E+02  0.22391969874E+03  0.23028403294E+03  0.00000000000E+00 0.  1.
</event>
<event>
 7    1  0.2394257E-009  0.1553445E+03  0.7561462E-02  0.1194055E+00
          1   -1    0    0  501    0  0.00000000000E+00  0.00000000000E+00  0.18701388482E+03  0.18701388482E+03  0.00000000000E+00 0. -1.
         -1   -1    0    0    0  501 -0.00000000000E+00 -0.00000000000E+00 -0.27709404243E+03  0.27709404243E+03  0.00000000000E+00 0.  1.
         25    2    1    2    0    0 -0.14012024483E+03  0.32131007412E+01 -0.19175029092E+03  0.26843883013E+03  0.12508886613E+03 0.  0.
          5    1    3    3  502    0 -0.14438299179E+02 -0.26834648901E+02 -0.11286729122E+03  0.11698316414E+03  0.41800000000E+01 0. -1.
         -5    1    3    3    0  502 -0.12568194565E+03  0.30047749642E+02 -0.78882999698E+02  0.15145566600E+03  0.41800000000E+01 0. -1.
        -11    1    1    2    0    0  0.13517642238E+03 -0.16767177487E+02  0.11327128572E+03  0.17715582852E+03  0.00000000000E+00 0. -1.
         11    1    1    2    0    0  0.49438224474E+01  0.13554076746E+02 -0.11601152420E+02  0.18513268601E+02  0.00000000000E+00 0.  1.
</event>
<event>
 7    1  0.2394257E-009  0.8207050E+02  0.7561462E-02  0.1323276E+00
          3   -1    0    0  501    0  0.00000000000E+00  0.00000000000E+00  0.11454183785E+02  0.11454183785E+02  0.00000000000E+00 0. -1.
         -3   -1    0    0    0  501 -0.00000000000E+00 -0.00000000000E+00 -0.10692462211E+04  0.10692462211E+04  0.00000000000E+00 0.  1.
         25    2    1    2    0    0  0.89698566593E+01  0.10524645428E+02 -0.62268468471E+03  0.63527608498E+03  0.12509300974E+03 0.  0.
          5    1    3    3  502    0  0.23399355882E+02 -0.23974771671E+02 -0.56738483351E+03  0.56838837182E+03  0.41800000000E+01 0.  1.
         -5    1    3    3    0  502 -0.14429499223E+02  0.34499417100E+02 -0.55299851200E+02  0.66887713153E+02  0.41800000000E+01 0.  1.
        -11    1    1    2    0    0  0.26116237441E+02  0.29584264027E+02 -0.23757270837E+03  0.24082790182E+03  0.00000000000E+00 0.  1.
         11    1    1    2    0    0 -0.35086094100E+02 -0.40108909455E+02 -0.19753464421E+03  0.20459641805E+03  0.00000000000E+00 0. -1.
</event>
<event>
 7    1  0.2394257E-009  0.1353537E+03  0.7561462E-02  0.1219721E+00
         -1   -1    0    0    0  501 -0.00000000000E+00  0.00000000000E+00  0.82586853550E+02  0.82586853550E+02  0.00000000000E+00 0.  1.
          1   -1    0    0  501    0  0.00000000000E+00 -0.00000000000E+00 -0.36048276675E+03  0.36048276675E+03  0.00000000000E+00 0. -1.
         25    2    1    2    0    0 -0.61954713382E+02 -0.11392803390E+03 -0.19255605713E+03  0.26371077370E+03  0.12509018192E+03 0.  0.
          5    1    3    3  502    0 -0.59524188073E+02 -0.56530421153E+02 -0.24066713955E+02  0.85647513694E+02  0.41800000000E+01 0.  1.
         -5    1    3    3    0  502 -0.24305253091E+01 -0.57397612748E+02 -0.16848934317E+03  0.17806326001E+03  0.41800000000E+01 0.  1.
        -11    1    1    2    0    0  0.30043191928E+02  0.37244693256E+02  0.14013030541E+02  0.49861062783E+02  0.00000000000E+00 0.  1.
         11    1    1    2    0    0  0.31911521453E+02  0.76683340645E+02 -0.99352886616E+02  0.12949778381E+03  0.00000000000E+00 0. -1.
</event>
<event>
 7    1  0.2394257E-009  0.8512061E+02  0.7561462E-02  0.1315117E+00
          1   -1    0    0  501    0  0.00000000000E+00  0.00000000000E+00  0.27802508132E+03  0.27802508132E+03  0.00000000000E+00 0. -1.
         -1   -1    0    0    0  501 -0.00000000000E+00 -0.00000000000E+00 -0.44939498201E+02  0.44939498201E+02  0.00000000000E+00 0.  1.
         25    2    1    2    0    0  0.26182874210E+02 -0.72605660987E+01  0.13613221579E+03  0.18685794930E+03  0.12508258999E+03 0.  0.
          5    1    3    3  502    0  0.48947322665E+02 -0.20475083209E+02  0.54662328144E+01  0.53501603057E+02  0.41800000000E+01 0.  1.
         -5    1    3    3    0  502 -0.22764448455E+02  0.13214517111E+02  0.13066598298E+03  0.13335634624E+03  0.41800000000E+01 0.  1.
        -11    1    1    2    0    0  0.28643796994E+02 -0.13597765741E+02  0.14375018293E+02  0.34813897947E+02  0.00000000000E+00 0.  1.
         11    1    1    2    0    0 -0.54826671204E+02  0.20858331839E+02  0.82578349039E+02  0.10129273228E+03  0.00000000000E+00 0. -1.
</event>
<event>
 7    1  0.2394257E-009  0.1269819E+03  0.7561462E-02  0.1232004E+00
          2   -1    0    0  501    0  0.00000000000E+00  0.00000000000E+00  0.23820530589E+03  0.23820530589E+03  0.00000000000E+00 0.  1.
         -2   -1    0    0    0  501 -0.00000000000E+00 -0.00000000000E+00 -0.14220194509E+03  0.14220194509E+03  0.00000000000E+00 0. -1.
         25    2    1    2    0    0  0.12755593524E+02 -0.95371946272E+02 -0.66143565576E+02  0.17111537807E+03  0.12508792126E+03 0.  0.
          5    1    3    3  502    0 -0.24258599341E+02 -0.11353233163E+03 -0.44882875466E+02  0.12453921020E+03  0.41800000000E+01 0.  1.
         -5    1    3    3    0  502  0.37014192865E+02  0.18160385358E+02 -0.21260690110E+02  0.46576167874E+02  0.41800000000E+01 0.  1.
        -11    1    1    2    0    0 -0.71210137480E+01  0.70086322456E+02  0.33398840574E+02  0.77963350261E+02  0.00000000000E+00 0. -1.
         11    1    1    2    0    0 -0.56345797763E+01  0.25285623816E+02  0.12874808581E+03  0.13132852265E+03  0.00000000000E+00 0.  1.
</event>
<event>
 7    1  0.2394257E-009  0.8642622E+02  0.7561462E-02  0.1311744E+00
          2   -1    0    0  501    0  0.00000000000E+00  0.00000000000E+00  0.63625742977E+02  0.63625742977E+02  0.00000000000E+00 0. -1.
         -2   -1    0    0    0  501 -0.00000000000E+00 -0.00000000000E+00 -0.24287674493E+03  0.24287674493E+03  0.00000000000E+00 0.  1.
         25    2    1    2    0    0  0.48523350705E+02  0.45631841051E+02 -0.14293132952E+03  0.20128750570E+03  0.12510201641E+03 0.  0.
          5    1    3    3  502    0  0.51326691229E+02  0.34742302361E+02 -0.44412739095E+01  0.62278841670E+02  0.41800000000E+01 0.  1.
         -5    1    3    3    0  502 -0.28033405237E+01  0.10889538690E+02 -0.13849005561E+03  0.13900866403E+03  0.41800000000E+01 0.  1.
        -11    1    1    2    0    0  0.16812608556E+02 -0.25173705558E+02 -0.11885201385E+02  0.32521335611E+02  0.00000000000E+00 0. -1.
         11    1    1    2    0    0 -0.65335959261E+02 -0.20458135493E+02 -0.24434471043E+02  0.72693646597E+02  0.00000000000E+00 0.  1.
</event>
<event>
 7    1  0.2394257E-009  0.1804104E+03  0.7561462E-02  0.1167406E+00
          2   -1    0    0  501    0  0.00000000000E+00  0.00000000000E+00  0.21022954720E+03  0.21022954720E+03  0.00000000000E+00 0. -1.
         -2   -1    0    0    0  501 -0.00000000000E+00 -0.00000000000E+00 -0.18109287011E+03  0.18109287011E+03  0.00000000000E+00 0.  1.
         25    2    1    2    0    0 -0.28504577438E+02 -0.15448171950E+03  0.52626726296E+02  0.20758795423E+03  0.12508426689E+03 0.  0.
          5    1    3    3  502    0 -0.60762216184E+02 -0.74182851326E+02  0.70543917852E+02  0.11911783700E+03  0.41800000000E+01 0. -1.
         -5    1    3    3    0  502  0.32257638747E+02 -0.80298868178E+02 -0.17917191556E+02  0.88470117223E+02  0.41800000000E+01 0. -1.
        -11    1    1    2    0    0  0.57611428239E+02  0.11973812991E+03 -0.34103726073E+02  0.13718367451E+03  0.00000000000E+00 0.  1.
         11    1    1    2    0    0 -0.29106850802E+02  0.34743589591E+02  0.10613676866E+02  0.46550788585E+02  0.00000000000E+00 0. -1.
</event>
<event>
 7    1  0.2394257E-009  0.1068293E+03  0.7561462E-02  0.1266557E+00
          1   -1    0    0  501    0  0.00000000000E+00  0.00000000000E+00  0.15169577951E+02  0.15169577951E+02  0.00000000000E+00 0. -1.
         -1   -1    0    0    0  501 -0.00000000000E+00 -0.00000000000E+00 -0.78813757086E+03  0.78813757086E+03  0.00000000000E+00 0.  1.
         25    2    1    2    0    0  0.21935783688E+02 -0.58222415219E+01 -0.49320030431E+03  0.50932219755E+03  0.12508990226E+03 0.  0.
          5    1    3    3  502    0  0.53328774529E+02 -0.49631683905E+02 -0.27310359279E+03  0.28268411175E+03  0.41800000000E+01 0.  1.
         -5    1    3    3    0  502 -0.31392990841E+02  0.43809442383E+02 -0.22009671152E+03  0.22663808580E+03  0.41800000000E+01 0.  1.
        -11    1    1    2    0    0 -0.34614150136E+02 -0.31753703419E+02 -0.10931647658E+03  0.11898121331E+03  0.00000000000E+00 0.  1.
         11    1    1    2    0    0  0.12678366448E+02  0.37575944941E+02 -0.17045121202E+03  0.17500373794E+03  0.00000000000E+00 0. -1.
</event>
<event>
 7    1  0.2394257E-009  0.1085101E+03  0.7561462E-02  0.1263354E+00
         -1   -1    0    0    0  501 -0.00000000000E+00  0.00000000000E+00  0.10109972296E+03  0.10109972296E+03  0.00000000000E+00 0.  1.
          1   -1    0    0  501    0  0.00000000000E+00 -0.00000000000E+00 -0.15488130797E+03  0.15488130797E+03  0.00000000000E+00 0. -1.
         25    2    1    2    0    0 -0.23125482116E+02  0.62203138226E+01  0.30194273930E+02  0.13089084469E+03  0.12508892365E+03 0.  0.
          5    1    3    3  502    0  0.25367883941E+02 -0.47260606338E+02  0.38904877200E+01  0.53941660540E+02  0.41800000000E+01 0.  1.
         -5    1    3    3    0  502 -0.48493366057E+02  0.53480920160E+02  0.26303786210E+02  0.76949184152E+02  0.41800000000E+01 0.  1.
        -11    1    1    2    0    0  0.20922546007E+02  0.39729811230E+02 -0.29210486332E+02  0.53567372005E+02  0.00000000000E+00 0.  1.
         11    1    1    2    0    0  0.22029361085E+01 -0.45950125052E+02 -0.54765372605E+02  0.71522814237E+02  0.00000000000E+00 0. -1.
</event>
<event>
 7    1  0.2394257E-009  0.1005898E+03  0.7561462E-02  0.1279061E+00
          2   -1    0    0  501    0  0.00000000000E+00  0.00000000000E+00  0.90698405073E+02  0.90698405073E+02  0.00000000000E+00 0.  1.
         -2   -1    0    0    0  501 -0.00000000000E+00 -0.00000000000E+00 -0.16460792120E+03  0.16460792120E+03  0.00000000000E+00 0. -1.
         25    2    1    2    0    0  0.36787325679E+02 -0.30480341137E+02 -0.77456133970E+02  0.15469432519E+03  0.12509405674E+03 0.  0.
          5    1    3    3  502    0  0.62796682564E+02 -0.65004455451E+02 -0.52147584589E+02  0.10443105643E+03  0.41800000000E+01 0. -1.
         -5    1    3    3    0  502 -0.26009356884E+02  0.34524114314E+02 -0.25308549381E+02  0.50263268760E+02  0.41800000000E+01 0. -1.
        -11    1    1    2    0    0 -0.19600623736E+02 -0.10927462790E+02 -0.34939788727E+02  0.41525687594E+02  0.00000000000E+00 0.  1.
         11    1    1    2    0    0 -0.17186701944E+02  0.41407803927E+02  0.38486406574E+02  0.59086313481E+02  0.00000000000E+00 0. -1.
</event>
<event>
 7    1  0.2394257E-009  0.1480507E+03  0.7561462E-02  0.1202889E+00
         -4   -1    0    0    0  501 -0.00000000000E+00  0.00000000000E+00  0.91772615841E+02  0.91772615841E+02  0.00000000000E+00 0.  1.
          4   -1    0    0  501    0  0.00000000000E+00 -0.00000000000E+00 -0.26194428078E+03  0.26194428078E+03  0.00000000000E+00 0. -1.
         25    2    1    2    0    0 -0.10782641071E+03 -0.26358529659E+02 -0.10417281323E+03  0.19703027298E+03  0.12509055329E+03 0.  0.
          5    1    3    3  502    0 -0.10071048196E+03 -0.70013467340E+02 -0.79216769531E+02  0.14607277556E+03  0.41800000000E+01 0.  1.
         -5    1    3    3    0  502 -0.71159287502E+01  0.43654937682E+02 -0.24956043701E+02  0.50957497419E+02  0.41800000000E+01 0.  1.
        -11    1    1    2    0    0  0.11587190499E+02  0.30490626964E+02  0.98590307763E+01  0.34075530872E+02  0.00000000000E+00 0.  1.
         11    1    1    2    0    0  0.96239220211E+02 -0.41320973056E+01 -0.75857882484E+02  0.12261109277E+03  0.00000000000E+00 0. -1.
</event>
<event>
 7    1  0.2394257E-009  0.1055618E+03  0.7561462E-02  0.1269017E+00
          2   -1    0    0  501    0  0.00000000000E+00  0.00000000000E+00  0.12580355912E+03  0.12580355912E+03  0.00000000000E+00 0. -1.
         -2   -1    0    0    0  501 -0.00000000000E+00 -0.00000000000E+00 -0.12002589752E+03  0.12002589752E+03  0.00000000000E+00 0.  1.
         25    2    1    2    0    0  0.49083100901E+01 -0.30923335903E+02  0.55709679056E+02  0.14046673639E+03  0.12508793499E+03 0.  0.
          5    1    3    3  502    0  0.44791187817E+02  0.26976229091E+02  0.45227885022E+02  0.69260388575E+02  0.41800000000E+01 0.  1.
         -5    1    3    3    0  502 -0.39882877727E+02 -0.57899564995E+02  0.10481794034E+02  0.71206347811E+02  0.41800000000E+01 0.  1.
        -11    1    1    2    0    0  0.19539987939E+02  0.52257256890E+02 -0.15183942942E+02  0.57820274555E+02  0.00000000000E+00 0. -1.
         11    1    1    2    0    0 -0.24448298029E+02 -0.21333920987E+02 -0.34748074514E+02  0.47542445705E+02  0.00000000000E+00 0.  1.
</event>
<event>
 7    1  0.2394257E-009  0.1459678E+03  0.7561462E-02  0.1205517E+00
         -1   -1    0    0    0  501 -0.00000000000E+00  0.00000000000E+00  0.51952128948E+02  0.51952128948E+02  0.00000000000E+00 0.  1.
          1   -1    0    0  501    0  0.00000000000E+00 -0.00000000000E+00 -0.52952562356E+03  0.52952562356E+03  0.00000000000E+00 0. -1.
         25    2    1    2    0    0  0.77371640295E+02 -0.84592597020E+02 -0.28921883577E+03  0.33531565815E+03  0.12508707943E+03 0.  0.
          5    1    3    3  502    0  0.64186718047E+02 -0.96716430019E+02 -0.12719016935E+03  0.17224637641E+03  0.41800000000E+01 0. -1.
         -5    1    3    3    0  502  0.13184922248E+02  0.12123832998E+02 -0.16202866642E+03  0.16306928173E+03  0.41800000000E+01 0. -1.
        -11    1    1    2    0    0 -0.37020514132E+02  0.10559753786E+03 -0.12023460520E+03  0.16424895360E+03  0.00000000000E+00 0.  1.
         11    1    1    2    0    0 -0.40351126163E+02 -0.21004940843E+02 -0.68120053637E+02  0.81913140765E+02  0.00000000000E+00 0. -1.
</event>
<event>
 7    1  0.2394257E-009  0.1038084E+03  0.7561462E-02  0.1272485E+00
          1   -1    0    0  501    0  0.00000000000E+00  0.00000000000E+00  0.29601630954E+03  0.29601630954E+03  0.00000000000E+00 0. -1.
         -1   -1    0    0    0  501 -0.00000000000E+00 -0.00000000000E+00 -0.41469057355E+02  0.41469057355E+02  0.00000000000E+00 0.  1.
         25    2    1    2    0    0 -0.13369869628E+02 -0.17565563976E+02  0.14805767093E+03  0.19507827450E+03  0.12508859584E+03 0.  0.
          5    1    3    3  502    0  0.31557357448E+02 -0.58026491147E+02  0.83153791147E+02  0.10627777692E+03  0.41800000000E+01 0. -1.
         -5    1    3    3    0  502 -0.44927227075E+02  0.40460927172E+02  0.64903879781E+02  0.88800497582E+02  0.41800000000E+01 0. -1.
        -11    1    1    2    0    0 -0.11113712950E+02 -0.27432927548E+02  0.68668238773E+01  0.30384756039E+02  0.00000000000E+00 0.  1.
         11    1    1    2    0    0  0.24483582577E+02  0.44998491524E+02  0.99622757381E+02  0.11202233636E+03  0.00000000000E+00 0. -1.
</event>
<event>
 7    1  0.2394257E-009  0.9317593E+02  0.7561462E-02  0.1295338E+00
         -2   -1    0    0    0  501 -0.00000000000E+00  0.00000000000E+00  0.51487996029E+02  0.51487996029E+02  0.00000000000E+00 0.  1.
          2   -1    0    0  501    0  0.00000000000E+00 -0.00000000000E+00 -0.34868078846E+03  0.34868078846E+03  0.00000000000E+00 0. -1.
         25    2    1    2    0    0 -0.46514062948E+02  0.60655816216E+02 -0.13454452779E+03  0.19898021827E+03  0.12509281039E+03 0.  0.
          5    1    3    3  502    0 -0.14831875224E+02  0.24309849605E+02  0.21291767332E+02  0.35801746697E+02  0.41800000000E+01 0.  1.
         -5    1    3    3    0  502 -0.31682187724E+02  0.36345966612E+02 -0.15583629512E+03  0.16317847158E+03  0.41800000000E+01 0.  1.
        -11    1    1    2    0    0  0.35896923076E+02 -0.79676355583E+02 -0.90426237991E+02  0.12575299298E+03  0.00000000000E+00 0.  1.
         11    1    1    2    0    0  0.10617139872E+02  0.19020539366E+02 -0.72222026646E+02  0.75435573238E+02  0.00000000000E+00 0. -1.
</event>
<event>
 7    1  0.2394257E-009  0.1049082E+03  0.7561462E-02  0.1270301E+00
          2   -1    0    0  501    0  0.00000000000E+00  0.00000000000E+00  0.56293256078E+03  0.56293256078E+03  0.00000000000E+00 0. -1.
         -2   -1    0    0    0  501 -0.00000000000E+00 -0.00000000000E+00 -0.27064834816E+02  0.27064834816E+02  0.00000000000E+00 0.  1.
         25    2    1    2    0    0 -0.48484843521E+02  0.41187638737E+02  0.24344391556E+03  0.28099714774E+03  0.12508898983E+03 0.  0.
          5    1    3    3  502    0 -0.76571756233E+02  0.41154914845E+02  0.23615317326E+03  0.25167986513E+03  0.41800000000E+01 0. -1.
         -5    1    3    3    0  502  0.28086912711E+02  0.32723892450E-01  0.72907423019E+01  0.29317282613E+02  0.41800000000E+01 0. -1.
        -11    1    1    2    0    0  0.19581767078E+02  0.19210341459E+02  0.13776332314E+03  0.14046784693E+03  0.00000000000E+00 0. -1.
         11    1    1    2    0    0  0.28903076444E+02 -0.60397980196E+02  0.15466048727E+03  0.16853240093E+03  0.00000000000E+00 0.  1.
</event>
<event>
 7    1  0.2394257E-009  0.1489255E+03  0.7561462E-02  0.1201800E+00
          2   -1    0    0  501    0  0.00000000000E+00  0.00000000000E+00  0.28210833639E+02  0.28210833639E+02  0.00000000000E+00 0. -1.
         -2   -1    0    0    0  501 -0.00000000000E+00 -0.00000000000E+00 -0.85215636002E+03  0.85215636002E+03  0.00000000000E+00 0.  1.
         25    2    1    2    0    0  0.10456703062E+03  0.31688121318E+02 -0.42115671387E+03  0.45272398800E+03  0.12509049024E+03 0.  0.
          5    1    3    3  502    0  0.12232916054E+03  0.53645799568E+02 -0.30292652950E+03  0.33109553003E+03  0.41800000000E+01 0.  1.
         -5    1    3    3    0  502 -0.17762129914E+02 -0.21957678250E+02 -0.11823018437E+03  0.12162845797E+03  0.41800000000E+01 0.  1.
        -11    1    1    2    0    0 -0.30252211352E+02 -0.50620964087E+02 -0.10810027867E+03  0.12313954907E+03  0.00000000000E+00 0. -1.
         11    1    1    2    0    0 -0.74314819269E+02  0.18932842768E+02 -0.29468853383E+03  0.30450365658E+03  0.00000000000E+00 0.  1.
</event>
<event>
 7    1  0.2394257E-009  0.1591585E+03  0.7561462E-02  0.1189650E+00
          2   -1    0    0  501    0  0.00000000000E+00  0.00000000000E+00  0.18063423175E+03  0.18063423175E+03  0.00000000000E+00 0. -1.
         -2   -1    0    0    0  501 -0.00000000000E+00 -0.00000000000E+00 -0.17444803314E+03  0.17444803314E+03  0.00000000000E+00 0.  1.
         25    2    1    2    0    0 -0.12271547951E+03 -0.57014589533E+02 -0.30340337042E+02  0.18675020042E+03  0.12508136940E+03 0.  0.
          5    1    3    3  502    0 -0.41173734355E+02  0.17246076429E+02  0.36418369932E+02  0.57762216210E+02  0.41800000000E+01 0.  1.
         -5    1    3    3    0  502 -0.81541745159E+02 -0.74260665962E+02 -0.66758706974E+02  0.12898798421E+03  0.41800000000E+01 0.  1.
        -11    1    1    2    0    0  0.13724358642E+03  0.56936773497E+02  0.27163053865E+02  0.15104777286E+03  0.00000000000E+00 0.  1.
         11    1    1    2    0    0 -0.14528106907E+02  0.77816035728E-01  0.93634817877E+01  0.17284291620E+02  0.00000000000E+00 0. -1.
</event>
<event>
 7    1  0.2394257E-009  0.9844343E+02  0.7561462E-02  0.1283604E+00
          2   -1    0    0  501    0  0.00000000000E+00  0.00000000000E+00  0.70900370548E+03  0.70900370548E+03  0.00000000000E+00 0. -1.
         -2   -1    0    0    0  501 -0.00000000000E+00 -0.00000000000E+00 -0.24168683013E+02  0.24168683013E+02  0.00000000000E+00 0.  1.
         25    2    1    2    0    0 -0.21667143362E+02  0.66119777817E+02  0.44512816501E+03  0.46757704986E+03  0.12509166298E+03 0.  0.
          5    1    3    3  502    0 -0.17485410361E+02  0.75533005163E+02  0.44910785027E+03  0.45577001659E+03  0.41800000000E+01 0.  1.
         -5    1    3    3    0  502 -0.41817330015E+01 -0.94132273461E+01 -0.39796852582E+01  0.11807033273E+02  0.41800000000E+01 0.  1.
        -11    1    1    2    0    0 -0.15464446098E+02 -0.69163743667E+02  0.11178021256E+03  0.13235402695E+03  0.00000000000E+00 0.  1.
         11    1    1    2    0    0  0.37131589460E+02  0.30439658505E+01  0.12792664490E+03  0.13324131168E+03  0.00000000000E+00 0. -1.
</event>
<event>
 7    1  0.2394257E-009  0.1256763E+03  0.7561462E-02  0.1234016E+00
         -1   -1    0    0    0  501 -0.00000000000E+00  0.00000000000E+00  0.14393522184E+03  0.14393522184E+03  0.00000000000E+00 0. -1.
          1   -1    0    0  501    0  0.00000000000E+00 -0.00000000000E+00 -0.14760226462E+03  0.14760226462E+03  0.00000000000E+00 0.  1.
         25    2    1    2    0    0  0.91088980154E+02 -0.25963922404E+02 -0.18895119480E+02  0.15804203072E+03  0.12509568482E+03 0.  0.
          5    1    3    3  502    0  0.11602262995E+03  0.55423282721E+01 -0.98542886459E+01  0.11664710656E+03  0.41800000000E+01 0. -1.
         -5    1    3    3    0  502 -0.24933649800E+02 -0.31506250676E+02 -0.90408308337E+01  0.41394924160E+02  0.41800000000E+01 0. -1.
        -11    1    1    2    0    0 -0.29663160031E+02  0.91184062351E+01  0.51552071505E+02  0.60171957520E+02  0.00000000000E+00 0. -1.
         11    1    1    2    0    0 -0.61425820122E+02  0.16845516169E+02 -0.36323994800E+02  0.73323498218E+02  0.00000000000E+00 0.  1.
</event>
<event>
 7    1  0.2394257E-009  0.1173719E+03  0.7561462E-02  0.1247497E+00
          2   -1    0    0  501    0  0.00000000000E+00  0.00000000000E+00  0.32556482406E+03  0.32556482406E+03  0.00000000000E+00 0. -1.
         -2   -1    0    0    0  501 -0.00000000000E+00 -0.00000000000E+00 -0.56948506749E+02  0.56948506749E+02  0.00000000000E+00 0.  1.
         25    2    1    2    0    0  0.63486229098E+02 -0.51598657373E+02  0.12530339098E+03  0.19504224022E+03  0.12509041911E+03 0.  0.
          5    1    3    3  502    0  0.52265790813E+02  0.18824390495E+02  0.60581117249E+01  0.56037877231E+02  0.41800000000E+01 0. -1.
         -5    1    3    3    0  502  0.11220438285E+02 -0.70423047869E+02  0.11924527926E+03  0.13900436299E+03  0.41800000000E+01 0. -1.
        -11    1    1    2    0    0 -0.62760197842E+02  0.67219131250E+02  0.78850110902E+02  0.12113873876E+03  0.00000000000E+00 0.  1.
         11    1    1    2    0    0 -0.72603125666E+00 -0.15620473877E+02  0.64462815426E+02  0.66332351821E+02  0.00000000000E+00 0. -1.
</event>
<event>
 7    1  0.2394257E-009  0.1001999E+03  0.7561462E-02  0.1279876E+00
          2   -1    0    0  501    0  0.00000000000E+00  0.00000000000E+00  0.41503923188E+03  0.41503923188E+03  0.00000000000E+00 0.  1.
         -2   -1    0    0    0  501 -0.00000000000E+00 -0.00000000000E+00 -0.46923749602E+02  0.46923749602E+02  0.00000000000E+00 0. -1.
         25    2    1    2    0    0 -0.39620665168E+02  0.67171321127E+02  0.13665261922E+03  0.20100392867E+03  0.12508739949E+03 0.  0.
          5    1    3    3  502    0 -0.42692920056E+01  0.32406296643E+02 -0.18692212096E+02  0.37884906089E+02  0.41800000000E+01 0.  1.
         -5    1    3    3    0  502 -0.35351373163E+02  0.34765024485E+02  0.15534483132E+03  0.16311902259E+03  0.41800000000E+01 0.  1.
        -11    1    1    2    0    0  0.36179022176E+01 -0.79539623889E+02  0.12832135001E+03  0.15101658801E+03  0.00000000000E+00 0. -1.
         11    1    1    2    0    0  0.36002762951E+02  0.12368302762E+02  0.10314151305E+03  0.10994246481E+03  0.00000000000E+00 0.  1.
</event>
<event>
 7    1  0.2394257E-009  0.1487546E+03  0.7561462E-02  0.1202012E+00
          3   -1    0    0  501    0  0.00000000000E+00  0.00000000000E+00  0.38696091835E+03  0.38696091835E+03  0.00000000000E+00 0. -1.
         -3   -1    0    0    0  501 -0.00000000000E+00 -0.00000000000E+00 -0.64768718958E+02  0.64768718958E+02  0.00000000000E+00 0.  1.
         25    2    1    2    0    0 -0.93322918470E+02 -0.55866164279E+02  0.21582085533E+03  0.27213183985E+03  0.12508757428E+03 0.  0.
          5    1    3    3  502    0 -0.12902861388E+02  0.33833130631E+02  0.18431612934E+02  0.40845578900E+02  0.41800000000E+01 0.  1.
         -5    1    3    3    0  502 -0.80420057082E+02 -0.89699294909E+02  0.19738924240E+03  0.23128626095E+03  0.41800000000E+01 0.  1.
        -11    1    1    2    0    0  0.91331172354E+02  0.69902290905E+01  0.88924989350E+02  0.12766322915E+03  0.00000000000E+00 0. -1.
         11    1    1    2    0    0  0.19917461168E+01  0.48875935188E+02  0.17446354711E+02  0.51934568312E+02  0.00000000000E+00 0.  1.
</event>
<event>
 7    1  0.2394257E-009  0.1179221E+03  0.7561462E-02  0.1246565E+00
         -2   -1    0    0    0  501 -0.00000000000E+00  0.00000000000E+00  0.15093092990E+03  0.15093092990E+03  0.00000000000E+00 0.  1.
          2   -1    0    0  501    0  0.00000000000E+00 -0.00000000000E+00 -0.12262654344E+03  0.12262654344E+03  0.00000000000E+00 0. -1.
         25    2    1    2    0    0 -0.33304795270E+02 -0.62985524005E+02 -0.29576331452E+02  0.14696482429E+03  0.12509002588E+03 0.  0.
          5    1    3    3  502    0  0.30398329843E+02 -0.54073313409E+02 -0.49527599400E+02  0.79488597816E+02  0.41800000000E+01 0.  1.
         -5    1    3    3    0  502 -0.63703125113E+02 -0.89122105955E+01  0.19951267948E+02  0.67476226477E+02  0.41800000000E+01 0.  1.
        -11    1    1    2    0    0  0.54565427457E+02  0.14788127087E+02  0.14532283507E+02  0.58371755501E+02  0.00000000000E+00 0. -1.
         11    1    1    2    0    0 -0.21260632187E+02  0.48197396918E+02  0.43348434410E+02  0.68220893548E+02  0.00000000000E+00 0.  1.
</event>
<event>
 7    1  0.2394257E-009  0.1036673E+03  0.7561462E-02  0.1272768E+00
         -2   -1    0    0    0  501 -0.00000000000E+00  0.00000000000E+00  0.34831863215E+02  0.34831863215E+02  0.00000000000E+00 0. -1.
          2   -1    0    0  501    0  0.00000000000E+00 -0.00000000000E+00 -0.60315687003E+03  0.60315687003E+03  0.00000000000E+00 0.  1.
         25    2    1    2    0    0  0.29933448380E+02 -0.75003540527E+02 -0.43064920342E+03  0.45566245215E+03  0.12509193206E+03 0.  0.
          5    1    3    3  502    0  0.23266643580E+02 -0.79756228598E+02 -0.43676826684E+03  0.44461936982E+03  0.41800000000E+01 0.  1.
         -5    1    3    3    0  502  0.66668048005E+01  0.47526880702E+01  0.61190634171E+01  0.11043082325E+02  0.41800000000E+01 0.  1.
        -11    1    1    2    0    0 -0.33541074653E+02  0.91821356487E+02 -0.94992123054E+02  0.13630725820E+03  0.00000000000E+00 0. -1.
         11    1    1    2    0    0  0.36076262727E+01 -0.16817815960E+02 -0.42683680336E+02  0.46019022893E+02  0.00000000000E+00 0.  1.
</event>
<event>
 7    1  0.2394257E-009  0.1252435E+03  0.7561462E-02  0.1234689E+00
          2   -1    0    0  501    0  0.00000000000E+00  0.00000000000E+00  0.60519396989E+02  0.60519396989E+02  0.00000000000E+00 0. -1.
         -2   -1    0    0    0  501 -0.00000000000E+00 -0.00000000000E+00 -0.26194738917E+03  0.26194738917E+03  0.00000000000E+00 0.  1.
         25    2    1    2    0    0  0.44736344616E+02  0.36352630215E+02 -0.10042172954E+03  0.17045523130E+03  0.12509039876E+03 0.  0.
          5    1    3    3  502    0  0.85821540471E+02  0.58691313960E+01 -0.57610128762E+02  0.10361555312E+03  0.41800000000E+01 0.  1.
         -5    1    3    3    0  502 -0.41085195855E+02  0.30483498819E+02 -0.42811600778E+02  0.66839678185E+02  0.41800000000E+01 0.  1.
        -11    1    1    2    0    0 -0.68692187907E+02 -0.50459092798E+02 -0.82453200111E+02  0.11858864589E+03  0.00000000000E+00 0.  1.
         11    1    1    2    0    0  0.23955843291E+02  0.14106462582E+02 -0.18553062526E+02  0.33422908962E+02  0.00000000000E+00 0. -1.
</event>
<event>
 7    1  0.2394257E-009  0.1223499E+03  0.7561462E-02  0.1239270E+00
          1   -1    0    0  501    0  0.00000000000E+00  0.00000000000E+00  0.57164231176E+02  0.57164231176E+02  0.00000000000E+00 0. -1.
         -1   -1    0    0    0  501 -0.00000000000E+00 -0.00000000000E+00 -0.29905519399E+03  0.29905519399E+03  0.00000000000E+00 0.  1.
         25    2    1    2    0    0 -0.42005621964E+01 -0.71162333080E+02 -0.10508994606E+03  0.17823835996E+03  0.12507315390E+03 0.  0.
          5    1    3    3  502    0 -0.59515689251E+02 -0.58912598126E+02 -0.43536108835E+02  0.94475799322E+02  0.41800000000E+01 0.  1.
         -5    1    3    3    0  502  0.55315127055E+02 -0.12249734955E+02 -0.61553837227E+02  0.83762560639E+02  0.41800000000E+01 0.  1.
        -11    1    1    2    0    0  0.40050317003E+02  0.37237890802E+02 -0.35228847263E+02  0.65051979854E+02  0.00000000000E+00 0.  1.
         11    1    1    2    0    0 -0.35849754807E+02  0.33924442278E+02 -0.10157216949E+03  0.11292908536E+03  0.00000000000E+00 0. -1.
</event>
<event>
 7    1  0.2394257E-009  0.8601962E+02  0.7561462E-02  0.1312787E+00
          1   -1    0    0  501    0  0.00000000000E+00  0.00000000000E+00  0.13087452347E+03  0.13087452347E+03  0.00000000000E+00 0. -1.
         -1   -1    0    0    0  501 -0.00000000000E+00 -0.00000000000E+00 -0.13507291716E+03  0.13507291716E+03  0.00000000000E+00 0.  1.
         25    2    1    2    0    0 -0.53024191736E+02 -0.24365871123E+02  0.45842303957E+02  0.14544429416E+03  0.12508902944E+03 0.  0.
          5    1    3    3  502    0 -0.33448658830E+02 -0.26971869268E+02 -0.39033458998E+02  0.58201184101E+02  0.41800000000E+01 0. -1.
         -5    1    3    3    0  502 -0.19575532905E+02  0.26059981456E+01  0.84875762955E+02  0.87243110055E+02  0.41800000000E+01 0. -1.
        -11    1    1    2    0    0  0.79385612639E+02  0.20924859872E+02 -0.30793754226E+02  0.87682270466E+02  0.00000000000E+00 0. -1.
         11    1    1    2    0    0 -0.26361420903E+02  0.34410112500E+01 -0.19246943421E+02  0.32820876001E+02  0.00000000000E+00 0.  1.
</event>
<event>
 7    1  0.2394257E-009  0.1077684E+03  0.7561462E-02  0.1264759E+00
         -2   -1    0    0    0  501 -0.00000000000E+00  0.00000000000E+00  0.57893311119E+02  0.57893311119E+02  0.00000000000E+00 0.  1.
          2   -1    0    0  501    0  0.00000000000E+00 -0.00000000000E+00 -0.30663099509E+03  0.30663099509E+03  0.00000000000E+00 0. -1.
         25    2    1    2    0    0 -0.32491995302E+02 -0.58514596948E+02 -0.19057450390E+03  0.23758406860E+03  0.12509140778E+03 0.  0.
          5    1    3    3  502    0 -0.68251501020E+02 -0.49044803140E+01 -0.13882607054E+03  0.15483046077E+03  0.41800000000E+01 0. -1.
         -5    1    3    3    0  502  0.35759505717E+02 -0.53610116634E+02 -0.51748433360E+02  0.82753607836E+02  0.41800000000E+01 0. -1.
        -11    1    1    2    0    0 -0.43256260985E+01  0.41708363868E+02 -0.72708793669E+02  0.83933707975E+02  0.00000000000E+00 0. -1.
         11    1    1    2    0    0  0.36817621401E+02  0.16806233080E+02  0.14545613601E+02  0.43006529632E+02  0.00000000000E+00 0.  1.
</event>
<event>
 7    1  0.2394257E-009  0.8303434E+02  0.7561462E-02  0.1320654E+00
          4   -1    0    0  501    0  0.00000000000E+00  0.00000000000E+00  0.89200763740E+02  0.89200763740E+02  0.00000000000E+00 0.  1.
         -4   -1    0    0    0  501 -0.00000000000E+00 -0.00000000000E+00 -0.14588231466E+03  0.14588231466E+03  0.00000000000E+00 0. -1.
         25    2    1    2    0    0 -0.17631060426E+02  0.46601513656E+01 -0.33544931573E+01  0.12645595926E+03  0.12508911106E+03 0.  0.
          5    1    3    3  502    0 -0.43713032512E+02 -0.13916390517E+02  0.47529830205E+02  0.66189518020E+02  0.41800000000E+01 0. -1.
         -5    1    3    3    0  502  0.26081972086E+02  0.18576541883E+02 -0.50884323362E+02  0.60266441244E+02  0.41800000000E+01 0. -1.
        -11    1    1    2    0    0  0.51291725654E+02  0.76721179701E+01 -0.10744119389E+02  0.52963559323E+02  0.00000000000E+00 0.  1.
         11    1    1    2    0    0 -0.33660665228E+02 -0.12332269336E+02 -0.42582938378E+02  0.55663559817E+02  0.00000000000E+00 0. -1.
</event>
<event>
 7    1  0.2394257E-009  0.1658747E+03  0.7561462E-02  0.1182219E+00
         -2   -1    0    0    0  501 -0.00000000000E+00  0.00000000000E+00  0.11834009749E+03  0.11834009749E+03  0.00000000000E+00 0.  1.
          2   -1    0    0  501    0  0.00000000000E+00 -0.00000000000E+00 -0.33400816099E+03  0.33400816099E+03  0.00000000000E+00 0. -1.
         25    2    1    2    0    0 -0.12875590376E+03  0.99802112304E+02 -0.13613494553E+03  0.24642004762E+03  0.12510624326E+03 0.  0.
          5    1    3    3  502    0 -0.53816316744E+02  0.68843842757E+02 -0.14005888902E+03  0.16513520347E+03  0.41800000000E+01 0. -1.
         -5    1    3    3    0  502 -0.74939587014E+02  0.30958269547E+02  0.39239434938E+01  0.81284844146E+02  0.41800000000E+01 0. -1.
        -11    1    1    2    0    0  0.75023688200E+02 -0.62774469602E+02 -0.97634923601E+02  0.13820913910E+03  0.00000000000E+00 0. -1.
         11    1    1    2    0    0  0.53732215557E+02 -0.37027642702E+02  0.18101805628E+02  0.67719071758E+02  0.00000000000E+00 0.  1.
</event>
<event>
 7    1  0.2394257E-009  0.1544982E+03  0.7561462E-02  0.1195052E+00
         -2   -1    0    0    0  501 -0.00000000000E+00  0.00000000000E+00  0.39241042387E+02  0.39241042387E+02  0.00000000000E+00 0.  1.
          2   -1    0    0  501    0  0.00000000000E+00 -0.00000000000E+00 -0.82506947141E+03  0.82506947141E+03  0.00000000000E+00 0. -1.
         25    2    1    2    0    0 -0.58955849002E+02 -0.10172133633E+03 -0.62634090412E+03  0.64944007433E+03  0.12508580885E+03 0.  0.
          5    1    3    3  502    0 -0.13636511776E+02 -0.11862838857E+03 -0.50034940397E+03  0.51441777523E+03  0.41800000000E+01 0.  1.
         -5    1    3    3    0  502 -0.45319337226E+02  0.16907052243E+02 -0.12599150016E+03  0.13502229910E+03  0.41800000000E+01 0.  1.
        -11    1    1    2    0    0 -0.17762442976E+02  0.35171740633E+02 -0.26277969266E+02  0.47361243526E+02  0.00000000000E+00 0.  1.
         11    1    1    2    0    0  0.76718291977E+02  0.66549595693E+02 -0.13320955563E+03  0.16750919593E+03  0.00000000000E+00 0. -1.
</event>
<event>
 7    1  0.2394257E-009  0.7915033E+02  0.7561462E-02  0.1331480E+00
          2   -1    0    0  501    0  0.00000000000E+00  0.00000000000E+00  0.83539032225E+02  0.83539032225E+02  0.00000000000E+00 0. -1.
         -2   -1    0    0    0  501 -0.00000000000E+00 -0.00000000000E+00 -0.18440811928E+03  0.18440811928E+03  0.00000000000E+00 0.  1.
         25    2    1    2    0    0  0.53758833314E+02  0.21381107152E+01 -0.22342681217E+02  0.13799006799E+03  0.12508988682E+03 0.  0.
          5    1    3    3  502    0  0.62971721158E+01  0.15832046680E+02 -0.68223237344E+02  0.70442817891E+02  0.41800000000E+01 0. -1.
         -5    1    3    3    0  502  0.47461661199E+02 -0.13693935965E+02  0.45880556127E+02  0.67547250103E+02  0.41800000000E+01 0. -1.
        -11    1    1    2    0    0  0.26203952181E+01 -0.28728415928E+02 -0.57221241229E+02  0.64081657287E+02  0.00000000000E+00 0.  1.
         11    1    1    2    0    0 -0.56379228533E+02  0.26590305212E+02 -0.21305164608E+02  0.65875426224E+02  0.00000000000E+00 0. -1.
</event>
<event>
 7    1  0.2394257E-009  0.1551792E+03  0.7561462E-02  0.1194249E+00
         -2   -1    0    0    0  501 -0.00000000000E+00  0.00000000000E+00  0.52923533479E+02  0.52923533479E+02  0.00000000000E+00 0.  1.
          2   -1    0    0  501    0  0.00000000000E+00 -0.00000000000E+00 -0.52838152509E+03  0.52838152509E+03  0.00000000000E+00 0. -1.
         25    2    1    2    0    0  0.98046675357E+02  0.60236081549E+02 -0.32729780239E+03  0.36879949195E+03  0.12509067809E+03 0.  0.
          5    1    3    3  502    0 -0.18044597172E+02 -0.18728172224E+02 -0.29569589039E+02  0.39600314619E+02  0.41800000000E+01 0.  1.
         -5    1    3    3    0  502  0.11609127253E+03  0.78964253773E+02 -0.29772821335E+03  0.32919917733E+03  0.41800000000E+01 0.  1.
        -11    1    1    2    0    0 -0.75066675723E+02  0.41589408062E+01 -0.41676048905E+02  0.85960430694E+02  0.00000000000E+00 0.  1.
         11    1    1    2    0    0 -0.22979999634E+02 -0.64395022355E+02 -0.10648414032E+03  0.12654513592E+03  0.00000000000E+00 0. -1.
</event>
<event>
 7    1  0.2394257E-009  0.8089255E+02  0.7561462E-02  0.1326537E+00
          2   -1    0    0  501    0  0.00000000000E+00  0.00000000000E+00  0.18691102149E+04  0.18691102149E+04  0.00000000000E+00 0. -1.
         -2   -1    0    0    0  501 -0.00000000000E+00 -0.00000000000E+00 -0.10403701070E+02  0.10403701070E+02  0.00000000000E+00 0.  1.
         25    2    1    2    0    0 -0.45854262836E+02  0.40982392657E+02  0.14415082953E+04  0.14482319078E+04  0.12508926157E+03 0.  0.
          5    1    3    3  502    0 -0.28878639389E+02  0.43509206963E+02  0.20469740744E+03  0.21129488379E+03  0.41800000000E+01 0. -1.
         -5    1    3    3    0  502 -0.16975623448E+02 -0.25268143068E+01  0.12368108879E+04  0.12369370240E+04  0.41800000000E+01 0. -1.
        -11    1    1    2    0    0  0.14351557821E+02  0.19100877195E+02  0.30834323457E+02  0.39007258614E+02  0.00000000000E+00 0.  1.
         11    1    1    2    0    0  0.31502705015E+02 -0.60083269852E+02  0.38636389505E+03  0.39227474955E+03  0.00000000000E+00 0. -1.
</event>
<event>
 7    1  0.2394257E-009  0.1064088E+03  0.7561462E-02  0.1267369E+00
          2   -1    0    0  501    0  0.00000000000E+00  0.00000000000E+00  0.17216188195E+04  0.17216188195E+04  0.00000000000E+00 0. -1.
         -2   -1    0    0    0  501 -0.00000000000E+00 -0.00000000000E+00 -0.13209478469E+02  0.13209478469E+02  0.00000000000E+00 0.  1.
         25    2    1    2    0    0 -0.17678792211E+02  0.74708225784E+02  0.13134467786E+04  0.13216218368E+04  0.12509188839E+03 0.  0.
          5    1    3    3  502    0 -0.30587000483E+02  0.81930072916E+02  0.47302290190E+03  0.48105741816E+03  0.41800000000E+01 0. -1.
         -5    1    3    3    0  502  0.12908208271E+02 -0.72218471313E+01  0.84042387673E+03  0.84056441864E+03  0.41800000000E+01 0. -1.
        -11    1    1    2    0    0  0.48916754430E+02 -0.51091324997E+02  0.32880771564E+03  0.33632972842E+03  0.00000000000E+00 0. -1.
         11    1    1    2    0    0 -0.31237962218E+02 -0.23616900788E+02  0.66154846725E+02  0.76876732706E+02  0.00000000000E+00 0.  1.
</event>
<event>
 7    1  0.2394257E-009  0.6238684E+02  0.7561462E-02  0.1388080E+00
         -1   -1    0    0    0  501 -0.00000000000E+00  0.00000000000E+00  0.58044337372E+02  0.58044337372E+02  0.00000000000E+00 0.  1.
          1   -1    0    0  501    0  0.00000000000E+00 -0.00000000000E+00 -0.22671827449E+03  0.22671827449E+03  0.00000000000E+00 0. -1.
         25    2    1    2    0    0 -0.24332267013E+02 -0.26117144533E+02 -0.52380997386E+02  0.14023875148E+03  0.12509585954E+03 0.  0.
          5    1    3    3  502    0 -0.19325589720E+02 -0.42145761101E+01 -0.92166039881E+02  0.94357259271E+02  0.41800000000E+01 0.  1.
         -5    1    3    3    0  502 -0.50066772931E+01 -0.21902568423E+02  0.39785042495E+02  0.45881492209E+02  0.41800000000E+01 0.  1.
        -11    1    1    2    0    0  0.34347163403E+02 -0.16372655530E+02 -0.76565176791E+02  0.85498641978E+02  0.00000000000E+00 0. -1.
         11    1    1    2    0    0 -0.10014896390E+02  0.42489800064E+02 -0.39727762936E+02  0.59025218399E+02  0.00000000000E+00 0.  1.
</event>
<event>
 7    1  0.2394257E-009  0.6532385E+02  0.7561462E-02  0.1376757E+00
          2   -1    0    0  501    0  0.00000000000E+00  0.00000000000E+00  0.27954719623E+03  0.27954719623E+03  0.00000000000E+00 0. -1.
         -2   -1    0    0    0  501 -0.00000000000E+00 -0.00000000000E+00 -0.64703421571E+02  0.64703421571E+02  0.00000000000E+00 0.  1.
         25    2    1    2    0    0 -0.43371979511E+02 -0.12725887330E+02  0.20888245125E+03  0.24763446501E+03  0.12509145857E+03 0.  0.
          5    1    3    3  502    0 -0.26910887013E+02 -0.53361802135E+01  0.22276547222E+03  0.22448741317E+03  0.41800000000E+01 0. -1.
         -5    1    3    3    0  502 -0.16461092498E+02 -0.73897071163E+01 -0.13883020974E+02  0.23147051839E+02  0.41800000000E+01 0. -1.
        -11    1    1    2    0    0 -0.23161021642E+00  0.35281769573E+02 -0.20541822920E+02  0.40826748541E+02  0.00000000000E+00 0.  1.
         11    1    1    2    0    0  0.43603589727E+02 -0.22555882243E+02  0.26503146330E+02  0.55789404247E+02  0.00000000000E+00 0. -1.
</event>
<event>
 7    1  0.2394257E-009  0.1735411E+03  0.7561462E-02  0.1174205E+00
         -2   -1    0    0    0  501 -0.00000000000E+00  0.00000000000E+00  0.63529501234E+02  0.63529501234E+02  0.00000000000E+00 0.  1.
          2   -1    0    0  501    0  0.00000000000E+00 -0.00000000000E+00 -0.62110894793E+03  0.62110894793E+03  0.00000000000E+00 0. -1.
         25    2    1    2    0    0 -0.14351154905E+03  0.56412677491E+02 -0.39322680740E+03  0.44051419592E+03  0.12508988711E+03 0.  0.
          5    1    3    3  502    0 -0.12420758018E+03  0.70036870911E+02 -0.39124195071E+03  0.41643777765E+03  0.41800000000E+01 0. -1.
         -5    1    3    3    0  502 -0.19303968873E+02 -0.13624193420E+02 -0.19848566900E+01  0.24076418269E+02  0.41800000000E+01 0. -1.
        -11    1    1    2    0    0  0.14212855849E+03 -0.19459251266E+02 -0.13354229954E+03  0.19599167167E+03  0.00000000000E+00 0. -1.
         11    1    1    2    0    0  0.13829905616E+01 -0.36953426224E+02 -0.30810339754E+02  0.48132581568E+02  0.00000000000E+00 0.  1.
</event>
<event>
 7    1  0.2394257E-009  0.3026403E+03  0.7561462E-02  0.1083928E+00
         -4   -1    0    0    0  501 -0.00000000000E+00  0.00000000000E+00  0.15617894282E+04  0.15617894282E+04  0.00000000000E+00 0. -1.
          4   -1    0    0  501    0  0.00000000000E+00 -0.00000000000E+00 -0.81411166312E+02  0.81411166312E+02  0.00000000000E+00 0.  1.
         25    2    1    2    0    0 -0.14263197334E+03 -0.26509085482E+03  0.38939770571E+03  0.50783307711E+03  0.12508724900E+03 0.  0.
          5    1    3    3  502    0 -0.55148000665E+02 -0.12555401715E+03  0.84099091229E+02  0.16091998864E+03  0.41800000000E+01 0. -1.
         -5    1    3    3    0  502 -0.87483972675E+02 -0.13953683767E+03  0.30529861448E+03  0.34691308846E+03  0.41800000000E+01 0. -1.
        -11    1    1    2    0    0  0.41021578793E+02  0.44806689318E+02  0.36254160604E+03  0.36759600847E+03  0.00000000000E+00 0.  1.
         11    1    1    2    0    0  0.10161039455E+03  0.22028416550E+03  0.72843895012E+03  0.76777150892E+03  0.00000000000E+00 0. -1.
</event>
<event>
 7    1  0.2394257E-009  0.1912388E+03  0.7561462E-02  0.1157349E+00
          1   -1    0    0  501    0  0.00000000000E+00  0.00000000000E+00  0.17972211747E+03  0.17972211747E+03  0.00000000000E+00 0. -1.
         -1   -1    0    0    0  501 -0.00000000000E+00 -0.00000000000E+00 -0.26973185417E+03  0.26973185417E+03  0.00000000000E+00 0.  1.
         25    2    1    2    0    0  0.60018646258E+02 -0.16674876675E+03 -0.12054799086E+03  0.24816627079E+03  0.12508913122E+03 0.  0.
          5    1    3    3  502    0  0.66505434708E+01  0.12730372808E+02  0.11614732800E+02  0.18938493559E+02  0.41800000000E+01 0.  1.
         -5    1    3    3    0  502  0.53368102787E+02 -0.17947913956E+03 -0.13216272366E+03  0.22922777723E+03  0.41800000000E+01 0.  1.
        -11    1    1    2    0    0 -0.14298798655E+02  0.11391717634E+02 -0.24211452971E+02  0.30338446377E+02  0.00000000000E+00 0.  1.
         11    1    1    2    0    0 -0.45719847603E+02  0.15535704911E+03  0.54749707127E+02  0.17094925447E+03  0.00000000000E+00 0. -1.
</event>
<event>
 7    1  0.2394257E-009  0.1291589E+03  0.7561462E-02  0.1228709E+00
          2   -1    0    0  501    0  0.00000000000E+00  0.00000000000E+00  0.71485012079E+02  0.71485012079E+02  0.00000000000E+00 0.  1.
         -2   -1    0    0    0  501 -0.00000000000E+00 -0.00000000000E+00 -0.39788139172E+03  0.39788139172E+03  0.00000000000E+00 0. -1.
         25    2    1    2    0    0  0.41344999915E+02  0.98454306803E+02 -0.27963311614E+03  0.32441577559E+03  0.12509299045E+03 0.  0.
          5    1    3    3  502    0 -0.28016042184E+02  0.28152673889E+02 -0.17882946239E+03  0.18323460559E+03  0.41800000000E+01 0. -1.
         -5    1    3    3    0  502  0.69361042099E+02  0.70301632914E+02 -0.10080365375E+03  0.14118116999E+03  0.41800000000E+01 0. -1.
        -11    1    1    2    0    0  0.62406156635E+01 -0.54176286177E+02 -0.57299452277E+02  0.79102733828E+02  0.00000000000E+00 0. -1.
         11    1    1    2    0    0 -0.47585615578E+02 -0.44278020627E+02  0.10536188783E+02  0.65847894383E+02  0.00000000000E+00 0.  1.
</event>
<event>
 7    1  0.2394257E-009  0.1244761E+03  0.7561462E-02  0.1235890E+00
         -4   -1    0    0    0  501 -0.00000000000E+00  0.00000000000E+00  0.32276070065E+02  0.32276070065E+02  0.00000000000E+00 0.  1.
          4   -1    0    0  501    0  0.00000000000E+00 -0.00000000000E+00 -0.52550897854E+03  0.52550897854E+03  0.00000000000E+00 0. -1.
         25    2    1    2    0    0  0.64104818978E+02  0.27497510329E+02 -0.23345576268E+03  0.27388930834E+03  0.12509284232E+03 0.  0.
          5    1    3    3  502    0  0.83095996436E+02 -0.24422135681E+02 -0.12569224585E+03  0.15270035495E+03  0.41800000000E+01 0. -1.
         -5    1    3    3    0  502 -0.18991177458E+02  0.51919646009E+02 -0.10776351683E+03  0.12118895339E+03  0.41800000000E+01 0. -1.
        -11    1    1    2    0    0 -0.78840392860E+02 -0.38475680200E+01 -0.13808122468E+03  0.15905041948E+03  0.00000000000E+00 0.  1.
         11    1    1    2    0    0  0.14735573882E+02 -0.23649942308E+02 -0.12169592111E+03  0.12484532079E+03  0.00000000000E+00 0. -1.
</event>
<event>
 7    1  0.2394257E-009  0.8589764E+02  0.7561462E-02  0.1313102E+00
          1   -1    0    0  501    0  0.00000000000E+00  0.00000000000E+00  0.42081468392E+03  0.42081468392E+03  0.00000000000E+00 0. -1.
         -1   -1    0    0    0  501 -0.00000000000E+00 -0.00000000000E+00 -0.60089644530E+02  0.60089644530E+02  0.00000000000E+00 0.  1.
         25    2    1    2    0    0 -0.20604870912E+02  0.33145741043E+02  0.35954667561E+03  0.38267948148E+03  0.12508626121E+03 0.  0.
          5    1    3    3  502    0 -0.40989997187E+02 -0.38463169933E+02  0.16209672962E+03  0.17161706636E+03  0.41800000000E+01 0.  1.
         -5    1    3    3    0  502  0.20385126276E+02  0.71608910976E+02  0.19744994599E+03  0.21106241512E+03  0.41800000000E+01 0.  1.
        -11    1    1    2    0    0  0.57814799271E+00 -0.10942953544E+02  0.44364564315E+02  0.45697888947E+02  0.00000000000E+00 0. -1.
         11    1    1    2    0    0  0.20026722919E+02 -0.22202787499E+02 -0.43186200533E+02  0.52526958031E+02  0.00000000000E+00 0.  1.
</event>
<event>
 7    1  0.2394257E-009  0.1073941E+03  0.7561462E-02  0.1265473E+00
          2   -1    0    0  501    0  0.00000000000E+00  0.00000000000E+00  0.63084226015E+03  0.63084226015E+03  0.00000000000E+00 0. -1.
         -2   -1    0    0    0  501 -0.00000000000E+00 -0.00000000000E+00 -0.31320558974E+02  0.31320558974E+02  0.00000000000E+00 0.  1.
         25    2    1    2    0    0 -0.69400621267E+02 -0.53427968273E+02  0.28799411476E+03  0.32597153855E+03  0.12508333136E+03 0.  0.
          5    1    3    3  502    0 -0.20716419801E+02 -0.24987878329E+02  0.25203058480E+00  0.32727664630E+02  0.41800000000E+01 0.  1.
         -5    1    3    3    0  502 -0.48684201466E+02 -0.28440089945E+02  0.28774208417E+03  0.29324387392E+03  0.41800000000E+01 0.  1.
        -11    1    1    2    0    0 -0.21868868324E+02  0.60492568876E+01  0.42462712159E+02  0.48144811086E+02  0.00000000000E+00 0.  1.
         11    1    1    2    0    0  0.91269489591E+02  0.47378711386E+02  0.26906487426E+03  0.28804646949E+03  0.00000000000E+00 0. -1.
</event>
<event>
 7    1  0.2394257E-009  0.1182042E+03  0.7561462E-02  0.1246089E+00
         -1   -1    0    0    0  501 -0.00000000000E+00  0.00000000000E+00  0.13235323405E+02  0.13235323405E+02  0.00000000000E+00 0.  1.
          1   -1    0    0  501    0  0.00000000000E+00 -0.00000000000E+00 -0.13326959115E+04  0.13326959115E+04  0.00000000000E+00 0. -1.
         25    2    1    2    0    0 -0.43282908602E+02  0.21256792306E+02 -0.99208345319E+03  0.10011016511E+04  0.12509866666E+03 0.  0.
          5    1    3    3  502    0 -0.33140911913E+02 -0.48050035720E+02 -0.59452592051E+03  0.59739908648E+03  0.41800000000E+01 0. -1.
         -5    1    3    3    0  502 -0.10141996690E+02  0.69306828026E+02 -0.39755753268E+03  0.40370256464E+03  0.41800000000E+01 0. -1.
        -11    1    1    2    0    0  0.22867254032E+02 -0.59843705227E+02 -0.17665361488E+03  0.18791136212E+03  0.00000000000E+00 0. -1.
         11    1    1    2    0    0  0.20415654571E+02  0.38586912922E+02 -0.15072351999E+03  0.15691822162E+03  0.00000000000E+00 0.  1.
</event>
<event>
 7    1  0.2734066E-009  0.9866769E+02  0.7561462E-02  0.1283123E+00
         -2   -1    0    0    0  501 -0.00000000000E+00  0.00000000000E+00  0.42735676655E+02  0.42735676655E+02  0.00000000000E+00 0.  1.
          2   -1    0    0  501    0  0.00000000000E+00 -0.00000000000E+00 -0.54702504283E+03  0.54702504283E+03  0.00000000000E+00 0. -1.
         25    2    1    2    0    0  0.76838673537E+02 -0.36724270786E+02 -0.14539624351E+03  0.20986194078E+03  0.12509641380E+03 0.  0.
          5    1    3    3  502    0  0.76784756220E+02 -0.25409337182E+02 -0.16672734741E+03  0.18535645113E+03  0.41800000000E+01 0. -1.
         -5    1    3    3    0  502  0.53917316892E-01 -0.11314933604E+02  0.21331103893E+02  0.24505489647E+02  0.41800000000E+01 0. -1.
        -11    1    1    2    0    0 -0.25639986879E+02  0.45608395921E+02 -0.28378014753E+03  0.28856317652E+03  0.00000000000E+00 0. -1.
         11    1    1    2    0    0 -0.51198686658E+02 -0.88841251351E+01 -0.75112975128E+02  0.91335602191E+02  0.00000000000E+00 0.  1.
</event>
<event>
 7    1  0.2394257E-009  0.8526848E+02  0.7561462E-02  0.1314732E+00
         -1   -1    0    0    0  501 -0.00000000000E+00  0.00000000000E+00  0.32188710164E+02  0.32188710164E+02  0.00000000000E+00 0.  1.
          1   -1    0    0  501    0  0.00000000000E+00 -0.00000000000E+00 -0.47553463931E+03  0.47553463931E+03  0.00000000000E+00 0. -1.
         25    2    1    2    0    0 -0.20408936122E+02  0.85822908056E+01 -0.35537894335E+03  0.37739903857E+03  0.12508261487E+03 0.  0.
          5    1    3    3  502    0  0.17527842485E+02  0.41134167379E+02 -0.29722937522E+03  0.30060275927E+03  0.41800000000E+01 0.  1.
         -5    1    3    3    0  502 -0.37936778607E+02 -0.32551876574E+02 -0.58149568133E+02  0.76796279295E+02  0.41800000000E+01 0.  1.
        -11    1    1    2    0    0  0.19587928426E+02  0.30569077643E+02 -0.25945011044E+01  0.36398995645E+02  0.00000000000E+00 0.  1.
         11    1    1    2    0    0  0.82100769547E+00 -0.39151368449E+02 -0.85372484689E+02  0.93925315262E+02  0.00000000000E+00 0. -1.
</event>
<event>
 7    1  0.2394257E-009  0.1084272E+03  0.7561462E-02  0.1263511E+00
         -3   -1    0    0    0  501 -0.00000000000E+00  0.00000000000E+00  0.47511923845E+03  0.47511923845E+03  0.00000000000E+00 0.  1.
          3   -1    0    0  501    0  0.00000000000E+00 -0.00000000000E+00 -0.30802789939E+02  0.30802789939E+02  0.00000000000E+00 0. -1.
         25    2    1    2    0    0  0.15267102625E+02 -0.55609274860E+02  0.29630826199E+03  0.32675779306E+03  0.12508634352E+03 0.  0.
          5    1    3    3  502    0 -0.35574835316E+02 -0.73119833786E+02  0.14756390725E+03  0.16853681534E+03  0.41800000000E+01 0. -1.
         -5    1    3    3    0  502  0.50841937942E+02  0.17510558926E+02  0.14874435474E+03  0.15822097773E+03  0.41800000000E+01 0. -1.
        -11    1    1    2    0    0 -0.17093124250E+02  0.67416455439E+02  0.15151289375E+03  0.16671325782E+03  0.00000000000E+00 0.  1.
         11    1    1    2    0    0  0.18260216244E+01 -0.11807180579E+02 -0.35047072211E+01  0.12450977508E+02  0.00000000000E+00 0. -1.
</event>
<event>
 7    1  0.2430883E-009  0.9997318E+02  0.7561462E-02  0.1280352E+00
          2   -1    0    0  501    0  0.00000000000E+00  0.00000000000E+00  0.39681458944E+03  0.39681458944E+03  0.00000000000E+00 0. -1.
         -2   -1    0    0    0  501 -0.00000000000E+00 -0.00000000000E+00 -0.39183285747E+02  0.39183285747E+02  0.00000000000E+00 0.  1.
         25    2    1    2    0    0  0.31136819099E+02 -0.49113342774E+02  0.23325296046E+03  0.27099113873E+03  0.12509049431E+03 0.  0.
          5    1    3    3  502    0  0.34462907079E+02 -0.89360760131E+02  0.18098136691E+03  0.20480421134E+03  0.41800000000E+01 0.  1.
         -5    1    3    3    0  502 -0.33260879803E+01  0.40247417358E+02  0.52271593551E+02  0.66186927392E+02  0.41800000000E+01 0.  1.
        -11    1    1    2    0    0 -0.22634627001E+02  0.12429923480E+02 -0.82716957306E+01  0.27115499027E+02  0.00000000000E+00 0.  1.
         11    1    1    2    0    0 -0.85021920979E+01  0.36683419293E+02  0.13265003897E+03  0.13789123743E+03  0.00000000000E+00 0. -1.
</event>
<event>
 7    1  0.2394257E-009  0.1185037E+03  0.7561462E-02  0.1245586E+00
         -1   -1    0    0    0  501 -0.00000000000E+00  0.00000000000E+00  0.59110101917E+02  0.59110101917E+02  0.00000000000E+00 0.  1.
          1   -1    0    0  501    0  0.00000000000E+00 -0.00000000000E+00 -0.37749676378E+03  0.37749676378E+03  0.00000000000E+00 0. -1.
         25    2    1    2    0    0  0.38926293210E+02  0.58808713547E+02 -0.62693659956E+02  0.15669218678E+03  0.12509286673E+03 0.  0.
          5    1    3    3  502    0 -0.83771540617E+01  0.86491326312E+02 -0.49766054861E+02  0.10022504105E+03  0.41800000000E+01 0. -1.
         -5    1    3    3    0  502  0.47303447272E+02 -0.27682612766E+02 -0.12927605094E+02  0.56467145729E+02  0.41800000000E+01 0. -1.
        -11    1    1    2    0    0  0.13643781677E+02 -0.34549533189E+02 -0.18424909907E+03  0.18795625430E+03  0.00000000000E+00 0.  1.
         11    1    1    2    0    0 -0.52570074887E+02 -0.24259180358E+02 -0.71443902833E+02  0.91958424613E+02  0.00000000000E+00 0. -1.
</event>
<event>
 7    1  0.2394257E-009  0.1463046E+03  0.7561462E-02  0.1205089E+00
          1   -1    0    0  501    0  0.00000000000E+00  0.00000000000E+00  0.89620187381E+02  0.89620187381E+02  0.00000000000E+00 0. -1.
         -1   -1    0    0    0  501 -0.00000000000E+00 -0.00000000000E+00 -0.35557345438E+03  0.35557345438E+03  0.00000000000E+00 0.  1.
         25    2    1    2    0    0  0.10961345876E+03  0.83216517642E+02 -0.16386212858E+03  0.24787152097E+03  0.12509754026E+03 0.  0.
          5    1    3    3  502    0  0.40721961260E+02 -0.66100229603E+01 -0.11902451319E+03  0.12604077782E+03  0.41800000000E+01 0. -1.
         -5    1    3    3    0  502  0.68891497496E+02  0.89826540602E+02 -0.44837615381E+02  0.12183074315E+03  0.41800000000E+01 0. -1.
        -11    1    1    2    0    0 -0.99886010221E+02 -0.78562258461E+02 -0.38443251147E+02  0.13276719117E+03  0.00000000000E+00 0. -1.
         11    1    1    2    0    0 -0.97274485343E+01 -0.46542591806E+01 -0.63647887271E+02  0.64554929615E+02  0.00000000000E+00 0.  1.
</event>
<event>
 7    1  0.2394257E-009  0.1839244E+03  0.7561462E-02  0.1164058E+00
         -1   -1    0    0    0  501 -0.00000000000E+00  0.00000000000E+00  0.73623528309E+02  0.73623528309E+02  0.00000000000E+00 0.  1.
          1   -1    0    0  501    0  0.00000000000E+00 -0.00000000000E+00 -0.63208505580E+03  0.63208505580E+03  0.00000000000E+00 0. -1.
         25    2    1    2    0    0  0.13796611487E+02  0.16136433438E+03 -0.14019372023E+03  0.24806202099E+03  0.12510672311E+03 0.  0.
          5    1    3    3  502    0  0.30612352944E+02  0.50693659760E+01 -0.68340430911E+02  0.75171148197E+02  0.41800000000E+01 0.  1.
         -5    1    3    3    0  502 -0.16815741457E+02  0.15629496840E+03 -0.71853289318E+02  0.17289087279E+03  0.41800000000E+01 0.  1.
        -11    1    1    2    0    0  0.28479446423E+02 -0.10521615594E+03 -0.30962111239E+03  0.32824800316E+03  0.00000000000E+00 0.  1.
         11    1    1    2    0    0 -0.42276057910E+02 -0.56148178437E+02 -0.10864669488E+03  0.12939855997E+03  0.00000000000E+00 0. -1.
</event>
<event>
 7    1  0.2394257E-009  0.1564387E+03  0.7561462E-02  0.1192777E+00
          1   -1    0    0  501    0  0.00000000000E+00  0.00000000000E+00  0.26365517762E+03  0.26365517762E+03  0.00000000000E+00 0. -1.
         -1   -1    0    0    0  501 -0.00000000000E+00 -0.00000000000E+00 -0.10066894483E+03  0.10066894483E+03  0.00000000000E+00 0.  1.
         25    2    1    2    0    0 -0.64283244991E+02  0.10160581674E+03  0.98413167434E+02  0.19946974949E+03  0.12508777660E+03 0.  0.
          5    1    3    3  502    0  0.29774062426E+02  0.41073960240E+02  0.72793245085E+00  0.50907438442E+02  0.41800000000E+01 0.  1.
         -5    1    3    3    0  502 -0.94057307417E+02  0.60531856503E+02  0.97685234983E+02  0.14856231105E+03  0.41800000000E+01 0.  1.
        -11    1    1    2    0    0  0.81839131563E+02 -0.10398642244E+03  0.48509604629E+02  0.14093970785E+03  0.00000000000E+00 0. -1.
         11    1    1    2    0    0 -0.17555886571E+02  0.23806057014E+01  0.16063460724E+02  0.23914665108E+02  0.00000000000E+00 0.  1.
</event>
<event>
 7    1  0.2394257E-009  0.1481120E+03  0.7561462E-02  0.1202812E+00
          1   -1    0    0  501    0  0.00000000000E+00  0.00000000000E+00  0.98222598590E+03  0.98222598590E+03  0.00000000000E+00 0. -1.
         -1   -1    0    0    0  501 -0.00000000000E+00 -0.00000000000E+00 -0.25759126869E+02  0.25759126869E+02  0.00000000000E+00 0.  1.
         25    2    1    2    0    0 -0.13999835924E+02  0.11595401848E+03  0.49389304161E+03  0.52270401247E+03  0.12509123985E+03 0.  0.
          5    1    3    3  502    0 -0.56774898899E+02  0.10603411010E+03  0.28791854874E+03  0.31205958527E+03  0.41800000000E+01 0. -1.
         -5    1    3    3    0  502  0.42775062975E+02  0.99199083753E+01  0.20597449287E+03  0.21064442720E+03  0.41800000000E+01 0. -1.
        -11    1    1    2    0    0  0.38286422090E+02 -0.72164763280E+02  0.17187725964E+03  0.19030343023E+03  0.00000000000E+00 0.  1.
         11    1    1    2    0    0 -0.24286586166E+02 -0.43789255197E+02  0.29069655778E+03  0.29497767008E+03  0.00000000000E+00 0. -1.
</event>
<event>
 7    1  0.2394257E-009  0.1192125E+03  0.7561462E-02  0.1244402E+00
          1   -1    0    0  501    0  0.00000000000E+00  0.00000000000E+00  0.68326806646E+03  0.68326806646E+03  0.00000000000E+00 0. -1.
         -1   -1    0    0    0  501 -0.00000000000E+00 -0.00000000000E+00 -0.38545219903E+02  0.38545219903E+02  0.00000000000E+00 0.  1.
         25    2    1    2    0    0 -0.85053756729E+02  0.52272037873E+02  0.19692223105E+03  0.25375797447E+03  0.12509291366E+03 0.  0.
          5    1    3    3  502    0 -0.67792829843E+02  0.30746141303E+02  0.23598482522E+02  0.78202006115E+02  0.41800000000E+01 0. -1.
         -5    1    3    3    0  502 -0.17260926886E+02  0.21525896570E+02  0.17332374853E+03  0.17555596835E+03  0.41800000000E+01 0. -1.
        -11    1    1    2    0    0  0.17658409721E+00  0.22708446419E+02  0.85641134197E+02  0.88600838525E+02  0.00000000000E+00 0.  1.
         11    1    1    2    0    0  0.84877172631E+02 -0.74980484292E+02  0.36215948131E+03  0.37945447337E+03  0.00000000000E+00 0. -1.
</event>
<event>
 7    1  0.2394257E-009  0.1267379E+03  0.7561462E-02  0.1232378E+00
          1   -1    0    0  501    0  0.00000000000E+00  0.00000000000E+00  0.42354853237E+03  0.42354853237E+03  0.00000000000E+00 0. -1.
         -1   -1    0    0    0  501 -0.00000000000E+00 -0.00000000000E+00 -0.47312189946E+02  0.47312189946E+02  0.00000000000E+00 0.  1.
         25    2    1    2    0    0  0.67115419513E+02  0.94961840883E+01  0.21051769010E+03  0.25409069362E+03  0.12509886367E+03 0.  0.
          5    1    3    3  502    0  0.21744125990E+02  0.65318204355E+02  0.11984253951E+03  0.13827140526E+03  0.41800000000E+01 0. -1.
         -5    1    3    3    0  502  0.45371293523E+02 -0.55822020266E+02  0.90675150583E+02  0.11581928836E+03  0.41800000000E+01 0. -1.
        -11    1    1    2    0    0 -0.29342533700E+02 -0.49429361981E+02  0.19727261356E+02  0.60773439515E+02  0.00000000000E+00 0.  1.
         11    1    1    2    0    0 -0.37772885813E+02  0.39933177893E+02  0.14599139097E+03  0.15599658919E+03  0.00000000000E+00 0. -1.
</event>
<event>
 7    1  0.2394257E-009  0.1273962E+03  0.7561462E-02  0.1231371E+00
          1   -1    0    0  501    0  0.00000000000E+00  0.00000000000E+00  0.41280057231E+02  0.41280057231E+02  0.00000000000E+00 0. -1.
         -1   -1    0    0    0  501 -0.00000000000E+00 -0.00000000000E+00 -0.44527041494E+03  0.44527041494E+03  0.00000000000E+00 0.  1.
         25    2    1    2    0    0 -0.66971973547E+01 -0.78753224225E+02 -0.20111610452E+03  0.24968180778E+03  0.12508555017E+03 0.  0.
          5    1    3    3  502    0  0.56002364852E+02 -0.16173433893E+02 -0.93113717397E+02  0.10993398747E+03  0.41800000000E+01 0. -1.
         -5    1    3    3    0  502 -0.62699562206E+02 -0.62579790332E+02 -0.10800238712E+03  0.13974782032E+03  0.41800000000E+01 0. -1.
        -11    1    1    2    0    0 -0.33353704550E+02  0.36796125170E+02 -0.15133322034E+03  0.15927387737E+03  0.00000000000E+00 0.  1.
         11    1    1    2    0    0  0.40050901904E+02  0.41957099055E+02 -0.51541032843E+02  0.77594787009E+02  0.00000000000E+00 0. -1.
</event>
<event>
 7    1  0.2394257E-009  0.9439090E+02  0.7561462E-02  0.1292554E+00
         -1   -1    0    0    0  501 -0.00000000000E+00  0.00000000000E+00  0.60558271088E+02  0.60558271088E+02  0.00000000000E+00 0.  1.
          1   -1    0    0  501    0  0.00000000000E+00 -0.00000000000E+00 -0.27616794059E+03  0.27616794059E+03  0.00000000000E+00 0. -1.
         25    2    1    2    0    0 -0.68978294371E+02 -0.22109120768E+02 -0.10224725717E+03  0.17705664502E+03  0.12509090946E+03 0.  0.
          5    1    3    3  502    0 -0.22093401049E+02 -0.20007623816E+02 -0.12222668049E+03  0.12587794567E+03  0.41800000000E+01 0. -1.
         -5    1    3    3    0  502 -0.46884893322E+02 -0.21014969517E+01  0.19979423320E+02  0.51178699353E+02  0.41800000000E+01 0. -1.
        -11    1    1    2    0    0  0.82122097898E+02 -0.41225839290E+01 -0.91912524558E+02  0.12332455892E+03  0.00000000000E+00 0. -1.
         11    1    1    2    0    0 -0.13143803526E+02  0.26231704697E+02 -0.21449887771E+02  0.36345007743E+02  0.00000000000E+00 0.  1.
</event>
<event>
 7    1  0.2394257E-009  0.2452714E+03  0.7561462E-02  0.1116330E+00
          1   -1    0    0  501    0  0.00000000000E+00  0.00000000000E+00  0.60843229363E+03  0.60843229363E+03  0.00000000000E+00 0. -1.
         -1   -1    0    0    0  501 -0.00000000000E+00 -0.00000000000E+00 -0.10901342269E+03  0.10901342269E+03  0.00000000000E+00 0.  1.
         25    2    1    2    0    0 -0.19242313459E+03 -0.12997566433E+03  0.21808525901E+03  0.34224094958E+03  0.12508937337E+03 0.  0.
          5    1    3    3  502    0  0.31772203583E+01 -0.41422897402E+02  0.94098821171E+01  0.42801512121E+02  0.41800000000E+01 0. -1.
         -5    1    3    3    0  502 -0.19560035495E+03 -0.88552766927E+02  0.20867537689E+03  0.29943943746E+03  0.41800000000E+01 0. -1.
        -11    1    1    2    0    0  0.83577576622E+02  0.74053207639E+02  0.72429485089E+02  0.13309815621E+03  0.00000000000E+00 0.  1.
         11    1    1    2    0    0  0.10884555797E+03  0.55922456690E+02  0.20890412684E+03  0.24210661053E+03  0.00000000000E+00 0. -1.
</event>
<event>
 7    1  0.2394257E-009  0.9680903E+02  0.7561462E-02  0.1287153E+00
          2   -1    0    0  501    0  0.00000000000E+00  0.00000000000E+00  0.50633244946E+03  0.50633244946E+03  0.00000000000E+00 0. -1.
         -2   -1    0    0    0  501 -0.00000000000E+00 -0.00000000000E+00 -0.34390032636E+02  0.34390032636E+02  0.00000000000E+00 0.  1.
         25    2    1    2    0    0 -0.23955921180E+02  0.68386806134E+02  0.22505477130E+03  0.26747975309E+03  0.12508048134E+03 0.  0.
          5    1    3    3  502    0  0.24408340616E+02  0.25858454773E+02  0.26515964229E+01  0.35901673198E+02  0.41800000000E+01 0.  1.
         -5    1    3    3    0  502 -0.48364261796E+02  0.42528351362E+02  0.22240317488E+03  0.23157807989E+03  0.41800000000E+01 0.  1.
        -11    1    1    2    0    0  0.32583937538E+02 -0.97553829740E+01  0.21602688681E+02  0.40293382096E+02  0.00000000000E+00 0.  1.
         11    1    1    2    0    0 -0.86280163584E+01 -0.58631423160E+02  0.22528495684E+03  0.23294934691E+03  0.00000000000E+00 0. -1.
</event>
<event>
 7    1  0.2394257E-009  0.8366468E+02  0.7561462E-02  0.1318962E+00
         -2   -1    0    0    0  501 -0.00000000000E+00  0.00000000000E+00  0.13947308882E+03  0.13947308882E+03  0.00000000000E+00 0.  1.
          2   -1    0    0  501    0  0.00000000000E+00 -0.00000000000E+00 -0.98242240956E+02  0.98242240956E+02  0.00000000000E+00 0. -1.
         25    2    1    2    0    0  0.16221563897E+02 -0.70626089161E+00  0.65491560706E+02  0.14213174507E+03  0.12509456620E+03 0.  0.
          5    1    3    3  502    0  0.54593637479E+01  0.35884510229E+02  0.89637034436E+02  0.96797588138E+02  0.41800000000E+01 0.  1.
         -5    1    3    3    0  502  0.10762200149E+02 -0.36590771120E+02 -0.24145473729E+02  0.45334156933E+02  0.41800000000E+01 0.  1.
        -11    1    1    2    0    0  0.32770857689E+02  0.21506791901E+02 -0.90787919270E+01  0.40235502661E+02  0.00000000000E+00 0. -1.
         11    1    1    2    0    0 -0.48992421586E+02 -0.20800531009E+02 -0.15181920917E+02  0.55348082043E+02  0.00000000000E+00 0.  1.
</event>
<event>
 7    1  0.2394257E-009  0.1134388E+03  0.7561462E-02  0.1254331E+00
          1   -1    0    0  501    0  0.00000000000E+00  0.00000000000E+00  0.55450112149E+02  0.55450112149E+02  0.00000000000E+00 0. -1.
         -1   -1    0    0    0  501 -0.00000000000E+00 -0.00000000000E+00 -0.28387278021E+03  0.28387278021E+03  0.00000000000E+00 0.  1.
         25    2    1    2    0    0 -0.57010963119E+01  0.51701045517E+02 -0.17654183339E+03  0.22253088759E+03  0.12508987324E+03 0.  0.
          5    1    3    3  502    0  0.24874035371E+02  0.79774456010E+02 -0.15362915621E+03  0.17493447775E+03  0.41800000000E+01 0. -1.
         -5    1    3    3    0  502 -0.30575131683E+02 -0.28073410494E+02 -0.22912677181E+02  0.47596409841E+02  0.41800000000E+01 0. -1.
        -11    1    1    2    0    0  0.39120569848E+02 -0.55452190185E+02 -0.47597886962E+02  0.82891032234E+02  0.00000000000E+00 0.  1.
         11    1    1    2    0    0 -0.33419473536E+02  0.37511446681E+01 -0.42829477080E+01  0.33900972535E+02  0.00000000000E+00 0. -1.
</event>
<event>
 7    1  0.2394257E-009  0.1543960E+03  0.7561462E-02  0.1195173E+00
          1   -1    0    0  501    0  0.00000000000E+00  0.00000000000E+00  0.19724078818E+03  0.19724078818E+03  0.00000000000E+00 0. -1.
         -1   -1    0    0    0  501 -0.00000000000E+00 -0.00000000000E+00 -0.13094292277E+03  0.13094292277E+03  0.00000000000E+00 0.  1.
         25    2    1    2    0    0 -0.92489638242E+02  0.72131647376E+02  0.21878780864E+02  0.17286697904E+03  0.12508798366E+03 0.  0.
          5    1    3    3  502    0 -0.11258366805E+03  0.89444532196E+02  0.12366380859E+02  0.14438076889E+03  0.41800000000E+01 0. -1.
         -5    1    3    3    0  502  0.20094029806E+02 -0.17312884819E+02  0.95124000047E+01  0.28486210146E+02  0.41800000000E+01 0. -1.
        -11    1    1    2    0    0  0.55225940266E+02  0.18472239360E+01 -0.10071180025E+02  0.56167120112E+02  0.00000000000E+00 0.  1.
         11    1    1    2    0    0  0.37263697976E+02 -0.73978871312E+02  0.54490264564E+02  0.99149611798E+02  0.00000000000E+00 0. -1.
</event>
<event>
 7    1  0.2394257E-009  0.1980434E+03  0.7561462E-02  0.1151400E+00
         -1   -1    0    0    0  501 -0.00000000000E+00  0.00000000000E+00  0.98837169154E+02  0.98837169154E+02  0.00000000000E+00 0.  1.
          1   -1    0    0  501    0  0.00000000000E+00 -0.00000000000E+00 -0.71531021344E+03  0.71531021344E+03  0.00000000000E+00 0. -1.
         25    2    1    2    0    0 -0.84929467740E+02  0.16039864540E+03 -0.57299348161E+03  0.61393003569E+03  0.12509124196E+03 0.  0.
          5    1    3    3  502    0 -0.10275590602E+03  0.16510816602E+03 -0.46109033236E+03  0.50044105517E+03  0.41800000000E+01 0.  1.
         -5    1    3    3    0  502  0.17826438280E+02 -0.47095206162E+01 -0.11190314926E+03  0.11348898052E+03  0.41800000000E+01 0.  1.
        -11    1    1    2    0    0  0.35002258919E+02 -0.45656092298E+02 -0.48114025473E+02  0.74997308888E+02  0.00000000000E+00 0. -1.
         11    1    1    2    0    0  0.49927208821E+02 -0.11474255310E+03  0.46344628051E+01  0.12522003801E+03  0.00000000000E+00 0.  1.
</event>
<event>
 7    1  0.2394257E-009  0.1015262E+03  0.7561462E-02  0.1277119E+00
         -2   -1    0    0    0  501 -0.00000000000E+00  0.00000000000E+00  0.31631070440E+02  0.31631070440E+02  0.00000000000E+00 0. -1.
          2   -1    0    0  501    0  0.00000000000E+00 -0.00000000000E+00 -0.41483226985E+03  0.41483226985E+03  0.00000000000E+00 0.  1.
         25    2    1    2    0    0  0.23127642252E+01 -0.28853689660E+02 -0.27889687418E+03  0.30703048967E+03  0.12508545428E+03 0.  0.
          5    1    3    3  502    0  0.39566737794E+02  0.34838630598E+02 -0.93057536900E+02  0.10703473499E+03  0.41800000000E+01 0.  1.
         -5    1    3    3    0  502 -0.37253973569E+02 -0.63692320258E+02 -0.18583933728E+03  0.19999575467E+03  0.41800000000E+01 0.  1.
        -11    1    1    2    0    0  0.17551924688E+01 -0.23593115006E+02 -0.76207215702E+02  0.79795084443E+02  0.00000000000E+00 0.  1.
         11    1    1    2    0    0 -0.40679566940E+01  0.52446804665E+02 -0.28097109533E+02  0.59637766184E+02  0.00000000000E+00 0. -1.
</event>
<event>
 7    1  0.2394257E-009  0.1144577E+03  0.7561462E-02  0.1252531E+00
          2   -1    0    0  501    0  0.00000000000E+00  0.00000000000E+00  0.19449208783E+04  0.19449208783E+04  0.00000000000E+00 0. -1.
         -2   -1    0    0    0  501 -0.00000000000E+00 -0.00000000000E+00 -0.14165198063E+02  0.14165198063E+02  0.00000000000E+00 0.  1.
         25    2    1    2    0    0 -0.20772179551E+02 -0.31836623636E+02  0.17301106732E+04  0.17350436970E+04  0.12509450388E+03 0.  0.
          5    1    3    3  502    0  0.21796945576E+02 -0.69980746873E+02  0.95822437535E+03  0.96103269335E+03  0.41800000000E+01 0. -1.
         -5    1    3    3    0  502 -0.42569125127E+02  0.38144123237E+02  0.77188629786E+03  0.77401100366E+03  0.41800000000E+01 0. -1.
        -11    1    1    2    0    0 -0.36055673567E+02  0.12453419189E+02  0.59765575809E+02  0.70901504199E+02  0.00000000000E+00 0. -1.
         11    1    1    2    0    0  0.56827853118E+02  0.19383204447E+02  0.14087943119E+03  0.15314087514E+03  0.00000000000E+00 0.  1.
</event>
<event>
 7    1  0.2394257E-009  0.1151616E+03  0.7561462E-02  0.1251299E+00
         -2   -1    0    0    0  501 -0.00000000000E+00  0.00000000000E+00  0.44616574572E+03  0.44616574572E+03  0.00000000000E+00 0.  1.
          2   -1    0    0  501    0  0.00000000000E+00 -0.00000000000E+00 -0.39296729666E+02  0.39296729666E+02  0.00000000000E+00 0. -1.
         25    2    1    2    0    0 -0.18736225646E+02  0.33020041808E+02  0.34186640809E+03  0.36600720350E+03  0.12508901918E+03 0.  0.
          5    1    3    3  502    0  0.14370721949E+02  0.75211281429E+02  0.21183819862E+03  0.22529125438E+03  0.41800000000E+01 0.  1.
         -5    1    3    3    0  502 -0.33106947595E+02 -0.42191239621E+02  0.13002820947E+03  0.14071594912E+03  0.41800000000E+01 0.  1.
        -11    1    1    2    0    0 -0.34645416618E+02  0.40100688234E+01  0.27711474311E+02  0.44545609807E+02  0.00000000000E+00 0. -1.
         11    1    1    2    0    0  0.53381642263E+02 -0.37030110632E+02  0.37291133657E+02  0.74909662084E+02  0.00000000000E+00 0.  1.
</event>
<event>
 7    1  0.2394257E-009  0.1037130E+03  0.7561462E-02  0.1272676E+00
         -2   -1    0    0    0  501 -0.00000000000E+00  0.00000000000E+00  0.67132923692E+02  0.67132923692E+02  0.00000000000E+00 0. -1.
          2   -1    0    0  501    0  0.00000000000E+00 -0.00000000000E+00 -0.31526473946E+03  0.31526473946E+03  0.00000000000E+00 0.  1.
         25    2    1    2    0    0 -0.56561829749E+02 -0.78603999993E+02 -0.11913269415E+03  0.19803567843E+03  0.12509077391E+03 0.  0.
          5    1    3    3  502    0  0.59429350004E+01  0.22547855105E+01  0.22259904376E+02  0.23523993644E+02  0.41800000000E+01 0.  1.
         -5    1    3    3    0  502 -0.62504764749E+02 -0.80858785503E+02 -0.14139259853E+03  0.17451168479E+03  0.41800000000E+01 0.  1.
        -11    1    1    2    0    0  0.91729819105E+01  0.21168926099E+02  0.11177424329E+02  0.25635948274E+02  0.00000000000E+00 0. -1.
         11    1    1    2    0    0  0.47388847838E+02  0.57435073894E+02 -0.14017654595E+03  0.15872603645E+03  0.00000000000E+00 0.  1.
</event>
<event>
 7    1  0.2394257E-009  0.1152047E+03  0.7561462E-02  0.1251224E+00
         -2   -1    0    0    0  501 -0.00000000000E+00  0.00000000000E+00  0.11025721193E+02  0.11025721193E+02  0.00000000000E+00 0.  1.
          2   -1    0    0  501    0  0.00000000000E+00 -0.00000000000E+00 -0.15650606407E+04  0.15650606407E+04  0.00000000000E+00 0. -1.
         25    2    1    2    0    0 -0.62156489604E+02  0.19571383144E+02 -0.10774024571E+04  0.10865958590E+04  0.12509211802E+03 0.  0.
          5    1    3    3  502    0  0.15558718268E+02  0.45345743668E+02 -0.62307012029E+03  0.62492572149E+03  0.41800000000E+01 0. -1.
         -5    1    3    3    0  502 -0.77715207872E+02 -0.25774360524E+02 -0.45433233677E+03  0.46167013747E+03  0.41800000000E+01 0. -1.
        -11    1    1    2    0    0  0.68838339791E+02  0.10378410549E+02 -0.41322379364E+03  0.41904693300E+03  0.00000000000E+00 0. -1.
         11    1    1    2    0    0 -0.66818501866E+01 -0.29949793693E+02 -0.63408668790E+02  0.70443569912E+02  0.00000000000E+00 0.  1.
</event>
<event>
 7    1  0.2394257E-009  0.6898374E+02  0.7561462E-02  0.1363583E+00
         -1   -1    0    0    0  501 -0.00000000000E+00  0.00000000000E+00  0.79045633308E+03  0.79045633308E+03  0.00000000000E+00 0.  1.
          1   -1    0    0  501    0  0.00000000000E+00 -0.00000000000E+00 -0.20427106996E+02  0.20427106996E+02  0.00000000000E+00 0. -1.
         25    2    1    2    0    0 -0.32021971177E+01  0.31100722368E+02  0.61014264928E+03  0.62361681052E+03  0.12508543038E+03 0.  0.
          5    1    3    3  502    0 -0.25385104157E+01 -0.32603169865E+01  0.57228729122E+03  0.57231747291E+03  0.41800000000E+01 0.  1.
         -5    1    3    3    0  502 -0.66368670202E+00  0.34361039354E+02  0.37855358059E+02  0.51299337611E+02  0.41800000000E+01 0.  1.
        -11    1    1    2    0    0 -0.40658809074E+02 -0.34710513995E+02  0.89791931883E+02  0.10450143333E+03  0.00000000000E+00 0. -1.
         11    1    1    2    0    0  0.43861006191E+02  0.36097916269E+01  0.70094644923E+02  0.82765196228E+02  0.00000000000E+00 0.  1.
</event>
<event>
 7    1  0.2394257E-009  0.1803303E+03  0.7561462E-02  0.1167484E+00
         -1   -1    0    0    0  501 -0.00000000000E+00  0.00000000000E+00  0.11745777515E+04  0.11745777515E+04  0.00000000000E+00 0.  1.
          1   -1    0    0  501    0  0.00000000000E+00 -0.00000000000E+00 -0.31790446918E+02  0.31790446918E+02  0.00000000000E+00 0. -1.
         25    2    1    2    0    0  0.39598530481E+02 -0.14238413140E+03  0.41384727688E+03  0.45690091853E+03  0.12509035247E+03 0.  0.
          5    1    3    3  502    0 -0.40244426490E+02 -0.37542067972E+02  0.18199508536E+03  0.19018071466E+03  0.41800000000E+01 0. -1.
         -5    1    3    3    0  502  0.79842956971E+02 -0.10484206343E+03  0.23185219152E+03  0.26672020387E+03  0.41800000000E+01 0. -1.
        -11    1    1    2    0    0  0.24645895172E+02  0.10251045333E+02  0.13606732050E+03  0.13866080840E+03  0.00000000000E+00 0.  1.
         11    1    1    2    0    0 -0.64244425653E+02  0.13213308607E+03  0.59287270719E+03  0.61080647147E+03  0.00000000000E+00 0. -1.
</event>
<event>
 7    1  0.2394257E-009  0.9550223E+02  0.7561462E-02  0.1290049E+00
         -2   -1    0    0    0  501 -0.00000000000E+00  0.00000000000E+00  0.50523315253E+02  0.50523315253E+02  0.00000000000E+00 0.  1.
          2   -1    0    0  501    0  0.00000000000E+00 -0.00000000000E+00 -0.34489450639E+03  0.34489450639E+03  0.00000000000E+00 0. -1.
         25    2    1    2    0    0 -0.67248624690E+02  0.33774751501E+02 -0.18408137916E+03  0.23493962178E+03  0.12509020892E+03 0.  0.
          5    1    3    3  502    0 -0.74313430416E+02 -0.24997591308E+00 -0.18553539805E+03  0.19990849096E+03  0.41800000000E+01 0. -1.
         -5    1    3    3    0  502  0.70648057262E+01  0.34024727414E+02  0.14540188910E+01  0.35031130819E+02  0.41800000000E+01 0. -1.
        -11    1    1    2    0    0  0.11310903507E+02  0.61247233462E+01  0.13657113846E+02  0.18760744463E+02  0.00000000000E+00 0.  1.
         11    1    1    2    0    0  0.55937721183E+02 -0.39899474847E+02 -0.12394692582E+03  0.14171745540E+03  0.00000000000E+00 0. -1.
</event>
<event>
 7    1  0.2394257E-009  0.1666657E+03  0.7561462E-02  0.1181370E+00
          2   -1    0    0  501    0  0.00000000000E+00  0.00000000000E+00  0.50253253352E+03  0.50253253352E+03  0.00000000000E+00 0. -1.
         -2   -1    0    0    0  501 -0.00000000000E+00 -0.00000000000E+00 -0.11667609301E+03  0.11667609301E+03  0.00000000000E+00 0.  1.
         25    2    1    2    0    0 -0.15269619186E+03 -0.58431415512E+02  0.18059308904E+02  0.20664376477E+03  0.12508057225E+03 0.  0.
          5    1    3    3  502    0 -0.23331992313E+02  0.56587902098E+01  0.52748715686E+02  0.58105965085E+02  0.41800000000E+01 0. -1.
         -5    1    3    3    0  502 -0.12936419954E+03 -0.64090205722E+02 -0.34689406782E+02  0.14853779969E+03  0.41800000000E+01 0. -1.
        -11    1    1    2    0    0  0.12351543719E+03  0.39212633198E+02  0.18147760226E+03  0.22299734068E+03  0.00000000000E+00 0.  1.
         11    1    1    2    0    0  0.29180754666E+02  0.19218782314E+02  0.18631952934E+03  0.18956752108E+03  0.00000000000E+00 0. -1.
</event>
<event>
 7    1  0.2394257E-009  0.1450480E+03  0.7561462E-02  0.1206693E+00
         -1   -1    0    0    0  501 -0.00000000000E+00  0.00000000000E+00  0.17552076479E+03  0.17552076479E+03  0.00000000000E+00 0.  1.
          1   -1    0    0  501    0  0.00000000000E+00 -0.00000000000E+00 -0.14784121756E+03  0.14784121756E+03  0.00000000000E+00 0. -1.
         25    2    1    2    0    0 -0.99386891116E+02 -0.62375636573E+02  0.32287304786E+02  0.17453109807E+03  0.12510059944E+03 0.  0.
          5    1    3    3  502    0 -0.10408655339E+03 -0.16440826696E+02  0.59182809777E+02  0.12093133900E+03  0.41800000000E+01 0.  1.
         -5    1    3    3    0  502  0.46996622778E+01 -0.45934809877E+02 -0.26895504990E+02  0.53599759072E+02  0.41800000000E+01 0.  1.
        -11    1    1    2    0    0 -0.63590821002E+01 -0.87614528865E+01 -0.17663421120E+02  0.20717080574E+02  0.00000000000E+00 0. -1.
         11    1    1    2    0    0  0.10574597322E+03  0.71137089459E+02  0.13055663561E+02  0.12811380370E+03  0.00000000000E+00 0.  1.
</event>
<event>
 7    1  0.2394257E-009  0.1789085E+03  0.7561462E-02  0.1168864E+00
         -1   -1    0    0    0  501 -0.00000000000E+00  0.00000000000E+00  0.19261102408E+03  0.19261102408E+03  0.00000000000E+00 0.  1.
          1   -1    0    0  501    0  0.00000000000E+00 -0.00000000000E+00 -0.19176128463E+03  0.19176128463E+03  0.00000000000E+00 0. -1.
         25    2    1    2    0    0 -0.13538063541E+03 -0.62499272075E+02  0.54156584941E+02  0.20202572479E+03  0.12508949728E+03 0.  0.
          5    1    3    3  502    0 -0.12048360359E+03 -0.97762585236E+02  0.35433212217E+02  0.15920680492E+03  0.41800000000E+01 0. -1.
         -5    1    3    3    0  502 -0.14897031826E+02  0.35263313161E+02  0.18723372724E+02  0.42818919866E+02  0.41800000000E+01 0. -1.
        -11    1    1    2    0    0  0.27433379560E+02  0.47852586816E+02 -0.48264772996E+02  0.73293578787E+02  0.00000000000E+00 0. -1.
         11    1    1    2    0    0  0.10794725585E+03  0.14646685259E+02 -0.50420724974E+01  0.10905300514E+03  0.00000000000E+00 0.  1.
</event>
<event>
 7    1  0.2394257E-009  0.1428182E+03  0.7561462E-02  0.1209586E+00
          1   -1    0    0  501    0  0.00000000000E+00  0.00000000000E+00  0.88204482134E+03  0.88204482134E+03  0.00000000000E+00 0. -1.
         -1   -1    0    0    0  501 -0.00000000000E+00 -0.00000000000E+00 -0.25972833249E+02  0.25972833249E+02  0.00000000000E+00 0.  1.
         25    2    1    2    0    0 -0.43262084642E+02  0.10169762984E+03  0.47153531097E+03  0.50021043996E+03  0.12510363252E+03 0.  0.
          5    1    3    3  502    0  0.33659194574E+02  0.40249863811E+02  0.27902099754E+03  0.28394221663E+03  0.41800000000E+01 0.  1.
         -5    1    3    3    0  502 -0.76921279215E+02  0.61447766034E+02  0.19251431343E+03  0.21626822333E+03  0.41800000000E+01 0.  1.
        -11    1    1    2    0    0  0.48826529277E+02 -0.20308173152E+02  0.17982131371E+03  0.18743574025E+03  0.00000000000E+00 0.  1.
         11    1    1    2    0    0 -0.55644446356E+01 -0.81389456693E+02  0.20471536340E+03  0.22037147437E+03  0.00000000000E+00 0. -1.
</event>
<event>
 7    1  0.2394257E-009  0.1192794E+03  0.7561462E-02  0.1244290E+00
         -1   -1    0    0    0  501 -0.00000000000E+00  0.00000000000E+00  0.27814529778E+03  0.27814529778E+03  0.00000000000E+00 0.  1.
          1   -1    0    0  501    0  0.00000000000E+00 -0.00000000000E+00 -0.64535559519E+02  0.64535559519E+02  0.00000000000E+00 0. -1.
         25    2    1    2    0    0 -0.69451135269E+02 -0.36598019663E+02  0.12403981856E+03  0.19285943839E+03  0.12508401638E+03 0.  0.
          5    1    3    3  502    0 -0.73730711770E+01 -0.53394245438E+02  0.11591608895E+03  0.12790355625E+03  0.41800000000E+01 0. -1.
         -5    1    3    3    0  502 -0.62078064092E+02  0.16796225775E+02  0.81237296158E+01  0.64955882140E+02  0.41800000000E+01 0. -1.
        -11    1    1    2    0    0  0.66987680705E+01  0.54408516624E+02  0.43022336397E+02  0.69685591079E+02  0.00000000000E+00 0.  1.
         11    1    1    2    0    0  0.62752367199E+02 -0.17810496961E+02  0.46547583303E+02  0.80135827832E+02  0.00000000000E+00 0. -1.
</event>
<event>
 7    1  0.2394257E-009  0.5714214E+02  0.7561462E-02  0.1410232E+00
         -1   -1    0    0    0  501 -0.00000000000E+00  0.00000000000E+00  0.19876410494E+03  0.19876410494E+03  0.00000000000E+00 0.  1.
          1   -1    0    0  501    0  0.00000000000E+00 -0.00000000000E+00 -0.89672719854E+02  0.89672719854E+02  0.00000000000E+00 0. -1.
         25    2    1    2    0    0 -0.26856578974E+02  0.16436579348E+02  0.13516539496E+03  0.18683896996E+03  0.12509068601E+03 0.  0.
          5    1    3    3  502    0 -0.38173089373E+02  0.38938456127E+01  0.15541639675E+03  0.16013767691E+03  0.41800000000E+01 0.  1.
         -5    1    3    3    0  502  0.11316510399E+02  0.12542733735E+02 -0.20251001792E+02  0.26701293054E+02  0.41800000000E+01 0.  1.
        -11    1    1    2    0    0  0.14143287418E+02 -0.33871351214E+02  0.26165755746E+02  0.45077131517E+02  0.00000000000E+00 0.  1.
         11    1    1    2    0    0  0.12713291557E+02  0.17434771866E+02 -0.52239765620E+02  0.56520723317E+02  0.00000000000E+00 0. -1.
</event>
<event>
 7    1  0.2394257E-009  0.1149326E+03  0.7561462E-02  0.1251699E+00
          1   -1    0    0  501    0  0.00000000000E+00  0.00000000000E+00  0.88411557017E+02  0.88411557017E+02  0.00000000000E+00 0. -1.
         -1   -1    0    0    0  501 -0.00000000000E+00 -0.00000000000E+00 -0.18747918398E+03  0.18747918398E+03  0.00000000000E+00 0.  1.
         25    2    1    2    0    0 -0.35446964230E+02 -0.71252819085E+02 -0.72013410262E+02  0.16482410062E+03  0.12509037288E+03 0.  0.
          5    1    3    3  502    0  0.33584559189E+02 -0.23613377154E+02  0.14987629048E+02  0.43904619586E+02  0.41800000000E+01 0.  1.
         -5    1    3    3    0  502 -0.69031523418E+02 -0.47639441932E+02 -0.87001039310E+02  0.12091948104E+03  0.41800000000E+01 0.  1.
        -11    1    1    2    0    0  0.34930934279E+02  0.16026426758E+01  0.32282595617E+01  0.35116382116E+02  0.00000000000E+00 0. -1.
         11    1    1    2    0    0  0.51602995095E+00  0.69650176410E+02 -0.30282476261E+02  0.75950258257E+02  0.00000000000E+00 0.  1.
</event>
<event>
 7    1  0.2394257E-009  0.1009427E+03  0.7561462E-02  0.1278326E+00
          1   -1    0    0  501    0  0.00000000000E+00  0.00000000000E+00  0.15276050351E+03  0.15276050351E+03  0.00000000000E+00 0. -1.
         -1   -1    0    0    0  501 -0.00000000000E+00 -0.00000000000E+00 -0.97573759238E+02  0.97573759238E+02  0.00000000000E+00 0.  1.
         25    2    1    2    0    0  0.14007692849E+02 -0.26817415417E+02  0.81088931563E+02  0.15210921357E+03  0.12508560590E+03 0.  0.
          5    1    3    3  502    0 -0.83285804373E+01  0.37648140594E+02  0.73796979167E+02  0.83367945138E+02  0.41800000000E+01 0.  1.
         -5    1    3    3    0  502  0.22336273286E+02 -0.64465556012E+02  0.72919523953E+01  0.68741268434E+02  0.41800000000E+01 0.  1.
        -11    1    1    2    0    0 -0.29722593296E+02  0.54978579008E+02 -0.16935484327E+02  0.64752508302E+02  0.00000000000E+00 0. -1.
         11    1    1    2    0    0  0.15714900447E+02 -0.28161163590E+02 -0.89667029594E+01  0.33472540877E+02  0.00000000000E+00 0.  1.
</event>
<event>
 7    1  0.2394257E-009  0.1059013E+03  0.7561462E-02  0.1268354E+00
         -3   -1    0    0    0  501 -0.00000000000E+00  0.00000000000E+00  0.19412274017E+03  0.19412274017E+03  0.00000000000E+00 0.  1.
          3   -1    0    0  501    0  0.00000000000E+00 -0.00000000000E+00 -0.82232886586E+02  0.82232886586E+02  0.00000000000E+00 0. -1.
         25    2    1    2    0    0 -0.11447251706E+02  0.53867006449E+02  0.10014698189E+03  0.16943825476E+03  0.12508880940E+03 0.  0.
          5    1    3    3  502    0  0.40403229173E+02  0.25273426623E+02  0.99130214233E+02  0.11007015397E+03  0.41800000000E+01 0.  1.
         -5    1    3    3    0  502 -0.51850480879E+02  0.28593579826E+02  0.10167676555E+01  0.59368100788E+02  0.41800000000E+01 0.  1.
        -11    1    1    2    0    0  0.47222016731E+02 -0.10482643733E+02  0.14849794402E+02  0.50599615390E+02  0.00000000000E+00 0. -1.
         11    1    1    2    0    0 -0.35774765025E+02 -0.43384362715E+02 -0.31069227069E+01  0.56317756610E+02  0.00000000000E+00 0.  1.
</event>
<event>
 7    1  0.2394257E-009  0.1149158E+03  0.7561462E-02  0.1251728E+00
          2   -1    0    0  501    0  0.00000000000E+00  0.00000000000E+00  0.58983604319E+03  0.58983604319E+03  0.00000000000E+00 0. -1.
         -2   -1    0    0    0  501 -0.00000000000E+00 -0.00000000000E+00 -0.30700260514E+02  0.30700260514E+02  0.00000000000E+00 0.  1.
         25    2    1    2    0    0 -0.28039252149E+02  0.70084351279E+02  0.24424901761E+03  0.28460938366E+03  0.12508758016E+03 0.  0.
          5    1    3    3  502    0 -0.53942268858E+02  0.13108647490E+02  0.34064841321E+02  0.65264774748E+02  0.41800000000E+01 0. -1.
         -5    1    3    3    0  502  0.25903016710E+02  0.56975703789E+02  0.21018417629E+03  0.21934460892E+03  0.41800000000E+01 0. -1.
        -11    1    1    2    0    0  0.30164961575E+02  0.96512496785E+01  0.14255530470E+03  0.14603111458E+03  0.00000000000E+00 0. -1.
         11    1    1    2    0    0 -0.21257094258E+01 -0.79735600958E+02  0.17233146036E+03  0.18989580546E+03  0.00000000000E+00 0.  1.
</event>
<event>
 7    1  0.2394257E-009  0.1013372E+03  0.7561462E-02  0.1277509E+00
         -1   -1    0    0    0  501 -0.00000000000E+00  0.00000000000E+00  0.29694177391E+02  0.29694177391E+02  0.00000000000E+00 0.  1.
          1   -1    0    0  501    0  0.00000000000E+00 -0.00000000000E+00 -0.52899788607E+03  0.52899788607E+03  0.00000000000E+00 0. -1.
         25    2    1    2    0    0 -0.42058018330E+02  0.38563898792E+02 -0.31322229617E+03  0.34206941599E+03  0.12508887777E+03 0.  0.
          5    1    3    3  502    0 -0.82269037453E+02  0.32661692703E+02 -0.26181096482E+03  0.27640085816E+03  0.41800000000E+01 0.  1.
         -5    1    3    3    0  502  0.40211019124E+02  0.59022060885E+01 -0.51411331354E+02  0.65668557829E+02  0.41800000000E+01 0.  1.
        -11    1    1    2    0    0  0.31413403308E+02  0.17953843340E+01 -0.16836342480E+03  0.17127833524E+03  0.00000000000E+00 0. -1.
         11    1    1    2    0    0  0.10644615021E+02 -0.40359283126E+02 -0.17717987710E+02  0.45344312233E+02  0.00000000000E+00 0.  1.
</event>
<event>
 7    1  0.2394257E-009  0.2546682E+03  0.7561462E-02  0.1110390E+00
         -2   -1    0    0    0  501 -0.00000000000E+00  0.00000000000E+00  0.66373485991E+02  0.66373485991E+02  0.00000000000E+00 0.  1.
          2   -1    0    0  501    0  0.00000000000E+00 -0.00000000000E+00 -0.10805365261E+04  0.10805365261E+04  0.00000000000E+00 0. -1.
         25    2    1    2    0    0  0.41961526149E+02  0.23084659734E+03 -0.37190169827E+03  0.45717842521E+03  0.12510123151E+03 0.  0.
          5    1    3    3  502    0  0.42104111762E+02  0.19606846537E+02 -0.30612648972E+02  0.55783432446E+02  0.41800000000E+01 0.  1.
         -5    1    3    3    0  502 -0.14258561252E+00  0.21123975080E+03 -0.34128904929E+03  0.40139499276E+03  0.41800000000E+01 0.  1.
        -11    1    1    2    0    0 -0.67689273311E+02 -0.12143509258E+03 -0.34951387655E+03  0.37614926470E+03  0.00000000000E+00 0.  1.
         11    1    1    2    0    0  0.25727747162E+02 -0.10941150476E+03 -0.29274746524E+03  0.31358232213E+03  0.00000000000E+00 0. -1.
</event>
<event>
 7    1  0.2394257E-009  0.1035115E+03  0.7561462E-02  0.1273080E+00
          2   -1    0    0  501    0  0.00000000000E+00  0.00000000000E+00  0.26402646529E+03  0.26402646529E+03  0.00000000000E+00 0.  1.
         -2   -1    0    0    0  501 -0.00000000000E+00 -0.00000000000E+00 -0.46997241309E+02  0.46997241309E+02  0.00000000000E+00 0. -1.
         25    2    1    2    0    0 -0.39363635995E+02  0.10266224740E+02  0.95239092766E+02  0.16239849123E+03  0.12509154229E+03 0.  0.
          5    1    3    3  502    0 -0.22312221762E+02 -0.57315706934E+02  0.47258708326E+02  0.77677431819E+02  0.41800000000E+01 0. -1.
         -5    1    3    3    0  502 -0.17051414233E+02  0.67581931674E+02  0.47980384440E+02  0.84721059408E+02  0.41800000000E+01 0. -1.
        -11    1    1    2    0    0  0.12154879130E+02 -0.36063235344E+02  0.95581720941E+02  0.10287936337E+03  0.00000000000E+00 0.  1.
         11    1    1    2    0    0  0.27208756865E+02  0.25797010604E+02  0.26208410276E+02  0.45745852002E+02  0.00000000000E+00 0. -1.
</event>
<event>
 7    1  0.2394257E-009  0.8256438E+02  0.7561462E-02  0.1321928E+00
         -1   -1    0    0    0  501 -0.00000000000E+00  0.00000000000E+00  0.33944082216E+03  0.33944082216E+03  0.00000000000E+00 0.  1.
          1   -1    0    0  501    0  0.00000000000E+00 -0.00000000000E+00 -0.35463614611E+02  0.35463614611E+02  0.00000000000E+00 0. -1.
         25    2    1    2    0    0  0.17337438986E+02  0.10582227614E+02  0.24470279571E+03  0.27557132424E+03  0.12509007228E+03 0.  0.
          5    1    3    3  502    0  0.68504661364E+02  0.15905117136E+02  0.10324210503E+03  0.12498906365E+03  0.41800000000E+01 0. -1.
         -5    1    3    3    0  502 -0.51167222377E+02 -0.53228895220E+01  0.14146069067E+03  0.15058226059E+03  0.41800000000E+01 0. -1.
        -11    1    1    2    0    0  0.97161946193E+01  0.59179079556E+01  0.65971109784E+02  0.66944853413E+02  0.00000000000E+00 0.  1.
         11    1    1    2    0    0 -0.27053633606E+02 -0.16500135569E+02 -0.66966979479E+01  0.32388259115E+02  0.00000000000E+00 0. -1.
</event>
<event>
 7    1  0.2394257E-009  0.7896020E+02  0.7561462E-02  0.1332028E+00
          2   -1    0    0  501    0  0.00000000000E+00  0.00000000000E+00  0.25893027055E+03  0.25893027055E+03  0.00000000000E+00 0. -1.
         -2   -1    0    0    0  501 -0.00000000000E+00 -0.00000000000E+00 -0.61917974660E+02  0.61917974660E+02  0.00000000000E+00 0.  1.
         25    2    1    2    0    0  0.22844616109E+02  0.14267655039E+02  0.18369465802E+03  0.22386875748E+03  0.12509216892E+03 0.  0.
          5    1    3    3  502    0  0.53188852254E+02  0.21814779626E+02  0.18348030538E+03  0.19232117272E+03  0.41800000000E+01 0.  1.
         -5    1    3    3    0  502 -0.30344236145E+02 -0.75471245869E+01  0.21435263481E+00  0.31547584753E+02  0.41800000000E+01 0.  1.
        -11    1    1    2    0    0  0.15459141265E+02 -0.24605562919E+02 -0.27534874017E+02  0.40032337708E+02  0.00000000000E+00 0.  1.
         11    1    1    2    0    0 -0.38303757374E+02  0.10337907880E+02  0.40852511889E+02  0.56947150024E+02  0.00000000000E+00 0. -1.
</event>
<event>
 7    1  0.2394257E-009  0.8611363E+02  0.7561462E-02  0.1312546E+00
          1   -1    0    0  501    0  0.00000000000E+00  0.00000000000E+00  0.51426034155E+02  0.51426034155E+02  0.00000000000E+00 0. -1.
         -1   -1    0    0    0  501 -0.00000000000E+00 -0.00000000000E+00 -0.24523737882E+03  0.24523737882E+03  0.00000000000E+00 0.  1.
         25    2    1    2    0    0 -0.16497322238E+01 -0.24398131337E+02 -0.85170496038E+02  0.15329425860E+03  0.12508847228E+03 0.  0.
          5    1    3    3  502    0 -0.44799701521E+02 -0.50234082076E+01 -0.94606439825E+02  0.10488135555E+03  0.41800000000E+01 0. -1.
         -5    1    3    3    0  502  0.43149969297E+02 -0.19374723130E+02  0.94359437869E+01  0.48412903051E+02  0.41800000000E+01 0. -1.
        -11    1    1    2    0    0 -0.64773355390E+01  0.51125055480E+02 -0.29359671106E+02  0.59310348683E+02  0.00000000000E+00 0. -1.
         11    1    1    2    0    0  0.81270677627E+01 -0.26726924143E+02 -0.79281177517E+02  0.84058805684E+02  0.00000000000E+00 0.  1.
</event>
<event>
 7    1  0.2394257E-009  0.2609922E+03  0.7561462E-02  0.1106549E+00
         -1   -1    0    0    0  501 -0.00000000000E+00  0.00000000000E+00  0.76601275382E+02  0.76601275382E+02  0.00000000000E+00 0.  1.
          1   -1    0    0  501    0  0.00000000000E+00 -0.00000000000E+00 -0.93759915171E+03  0.93759915171E+03  0.00000000000E+00 0. -1.
         25    2    1    2    0    0 -0.30601213715E+02  0.23623030707E+03 -0.54762816711E+03  0.61015141194E+03  0.12508774450E+03 0.  0.
          5    1    3    3  502    0 -0.78409200465E+02  0.16870185462E+03 -0.37020308270E+03  0.41433816299E+03  0.41800000000E+01 0.  1.
         -5    1    3    3    0  502  0.47807986750E+02  0.67528452444E+02 -0.17742508441E+03  0.19581324895E+03  0.41800000000E+01 0.  1.
        -11    1    1    2    0    0 -0.29633071010E+02 -0.62144296650E+02 -0.10888412844E+03  0.12882463246E+03  0.00000000000E+00 0. -1.
         11    1    1    2    0    0  0.60234284724E+02 -0.17408601042E+03 -0.20448558078E+03  0.27522438269E+03  0.00000000000E+00 0.  1.
</event>
<event>
 7    1  0.2739372E-009  0.9411418E+02  0.7561462E-02  0.1293184E+00
         -2   -1    0    0    0  501 -0.00000000000E+00  0.00000000000E+00  0.26567796910E+02  0.26567796910E+02  0.00000000000E+00 0.  1.
          2   -1    0    0  501    0  0.00000000000E+00 -0.00000000000E+00 -0.69576722372E+03  0.69576722372E+03  0.00000000000E+00 0. -1.
         25    2    1    2    0    0  0.14929822949E+02 -0.77283689006E+02 -0.42996441071E+03  0.45465684729E+03  0.12509111122E+03 0.  0.
          5    1    3    3  502    0 -0.25516011279E+01 -0.76905250667E+02 -0.11066835209E+03  0.13485505108E+03  0.41800000000E+01 0.  1.
         -5    1    3    3    0  502  0.17481424077E+02 -0.37843833915E+00 -0.31929605863E+03  0.31980179621E+03  0.41800000000E+01 0.  1.
        -11    1    1    2    0    0  0.18550558321E+02  0.25808131089E+02 -0.14921797779E+02  0.35111862572E+02  0.00000000000E+00 0.  1.
         11    1    1    2    0    0 -0.33480381270E+02  0.51475557917E+02 -0.22431321832E+03  0.23256631077E+03  0.00000000000E+00 0. -1.
</event>
<event>
 7    1  0.2394257E-009  0.1641810E+03  0.7561462E-02  0.1184056E+00
         -1   -1    0    0    0  501 -0.00000000000E+00  0.00000000000E+00  0.35933894323E+02  0.35933894323E+02  0.00000000000E+00 0.  1.
          1   -1    0    0  501    0  0.00000000000E+00 -0.00000000000E+00 -0.93482419780E+03  0.93482419780E+03  0.00000000000E+00 0. -1.
         25    2    1    2    0    0  0.10133865100E+03  0.10091023134E+03 -0.58207765757E+03  0.61230210388E+03  0.12508824880E+03 0.  0.
          5    1    3    3  502    0  0.10350190331E+03  0.12034563376E+03 -0.56185683482E+03  0.58386324664E+03  0.41800000000E+01 0.  1.
         -5    1    3    3    0  502 -0.21632523137E+01 -0.19435402414E+02 -0.20220822759E+02  0.28438857231E+02  0.41800000000E+01 0.  1.
        -11    1    1    2    0    0 -0.25102471118E-01 -0.19790262866E+02 -0.45665629327E+01  0.20310308502E+02  0.00000000000E+00 0.  1.
         11    1    1    2    0    0 -0.10131354853E+03 -0.81119968477E+02 -0.31224608297E+03  0.33814567975E+03  0.00000000000E+00 0. -1.
</event>
<event>
 7    1  0.2394257E-009  0.9953561E+02  0.7561462E-02  0.1281276E+00
         -2   -1    0    0    0  501 -0.00000000000E+00  0.00000000000E+00  0.21816044056E+02  0.21816044056E+02  0.00000000000E+00 0.  1.
          2   -1    0    0  501    0  0.00000000000E+00 -0.00000000000E+00 -0.87739129381E+03  0.87739129381E+03  0.00000000000E+00 0. -1.
         25    2    1    2    0    0  0.23816158024E+01  0.17387859905E+02 -0.74085772026E+03  0.75154924344E+03  0.12509234139E+03 0.  0.
          5    1    3    3  502    0 -0.68477825375E+01 -0.43701408937E+02 -0.12645286715E+03  0.13403173236E+03  0.41800000000E+01 0. -1.
         -5    1    3    3    0  502  0.92293983399E+01  0.61089268842E+02 -0.61440485311E+03  0.61751751108E+03  0.41800000000E+01 0. -1.
        -11    1    1    2    0    0 -0.92637992222E+01 -0.54342127426E+02 -0.73472677913E+02  0.91853792458E+02  0.00000000000E+00 0.  1.
         11    1    1    2    0    0  0.68821834198E+01  0.36954267521E+02 -0.41244851579E+02  0.55804301970E+02  0.00000000000E+00 0. -1.
</event>
<event>
 7    1  0.2394257E-009  0.1105411E+03  0.7561462E-02  0.1259571E+00
         -2   -1    0    0    0  501 -0.00000000000E+00  0.00000000000E+00  0.13538611144E+03  0.13538611144E+03  0.00000000000E+00 0.  1.
          2   -1    0    0  501    0  0.00000000000E+00 -0.00000000000E+00 -0.11191433194E+03  0.11191433194E+03  0.00000000000E+00 0. -1.
         25    2    1    2    0    0 -0.42710267920E+02  0.33658282481E+02 -0.36311015630E+01  0.13644869131E+03  0.12509202012E+03 0.  0.
          5    1    3    3  502    0 -0.79973092700E+02  0.23429118960E+02  0.26197464338E+02  0.87455123973E+02  0.41800000000E+01 0. -1.
         -5    1    3    3    0  502  0.37262824780E+02  0.10229163521E+02 -0.29828565901E+02  0.48993567339E+02  0.41800000000E+01 0. -1.
        -11    1    1    2    0    0  0.62701234606E+02 -0.37645502330E+01  0.37827093198E+02  0.73324659150E+02  0.00000000000E+00 0.  1.
         11    1    1    2    0    0 -0.19990966686E+02 -0.29893732248E+02 -0.10724212143E+02  0.37527092918E+02  0.00000000000E+00 0. -1.
</event>
<event>
 7    1  0.2394257E-009  0.1321614E+03  0.7561462E-02  0.1224283E+00
         -1   -1    0    0    0  501 -0.00000000000E+00  0.00000000000E+00  0.21135089842E+02  0.21135089842E+02  0.00000000000E+00 0.  1.
          1   -1    0    0  501    0  0.00000000000E+00 -0.00000000000E+00 -0.91840698066E+03  0.91840698066E+03  0.00000000000E+00 0. -1.
         25    2    1    2    0    0  0.77439107257E+02 -0.26186586952E+02 -0.59135479641E+03  0.60994341791E+03  0.12509166698E+03 0.  0.
          5    1    3    3  502    0 -0.25238512936E+02 -0.32125386637E+02 -0.10354091509E+03  0.11138768558E+03  0.41800000000E+01 0.  1.
         -5    1    3    3    0  502  0.10267762019E+03  0.59387996854E+01 -0.48781388132E+03  0.49855573233E+03  0.41800000000E+01 0.  1.
        -11    1    1    2    0    0 -0.75480178844E+02  0.53766756956E+02 -0.20521261206E+03  0.22516735488E+03  0.00000000000E+00 0.  1.
         11    1    1    2    0    0 -0.19589284134E+01 -0.27580170005E+02 -0.10070448234E+03  0.10443129771E+03  0.00000000000E+00 0. -1.
</event>
<event>
 7    1  0.2394257E-009  0.1199214E+03  0.7561462E-02  0.1243227E+00
         -1   -1    0    0    0  501 -0.00000000000E+00  0.00000000000E+00  0.34909873694E+02  0.34909873694E+02  0.00000000000E+00 0.  1.
          1   -1    0    0  501    0  0.00000000000E+00 -0.00000000000E+00 -0.68406578886E+03  0.68406578886E+03  0.00000000000E+00 0. -1.
         25    2    1    2    0    0 -0.10258447755E+03 -0.26928779364E+01 -0.25664270837E+03  0.30338642721E+03  0.12508804030E+03 0.  0.
          5    1    3    3  502    0 -0.87196189254E+02 -0.17967604121E+01 -0.26924058096E+03  0.28304481377E+03  0.41800000000E+01 0. -1.
         -5    1    3    3    0  502 -0.15388288299E+02 -0.89611752433E+00  0.12597872586E+02  0.20341613434E+02  0.41800000000E+01 0. -1.
        -11    1    1    2    0    0  0.79335137937E+02 -0.39316643763E+02 -0.25469195953E+03  0.26964394456E+03  0.00000000000E+00 0.  1.
         11    1    1    2    0    0  0.23249339615E+02  0.42009521700E+02 -0.13782124727E+03  0.14594529079E+03  0.00000000000E+00 0. -1.
</event>
<event>
 7    1  0.2394257E-009  0.1347446E+03  0.7561462E-02  0.1220581E+00
          2   -1    0    0  501    0  0.00000000000E+00  0.00000000000E+00  0.91137783781E+03  0.91137783781E+03  0.00000000000E+00 0.  1.
         -2   -1    0    0    0  501 -0.00000000000E+00 -0.00000000000E+00 -0.21959927148E+02  0.21959927148E+02  0.00000000000E+00 0. -1.
         25    2    1    2    0    0 -0.72959904283E+02 -0.48492625103E+02  0.55513143116E+03  0.57575438578E+03  0.12509006582E+03 0.  0.
          5    1    3    3  502    0  0.34046906907E+02 -0.56176834937E+01  0.88618966556E+02  0.95192141857E+02  0.41800000000E+01 0.  1.
         -5    1    3    3    0  502 -0.10700681119E+03 -0.42874941610E+02  0.46651246460E+03  0.48056224393E+03  0.41800000000E+01 0.  1.
        -11    1    1    2    0    0  0.26868777489E+02 -0.22289968822E+02  0.16182824004E+03  0.16555105915E+03  0.00000000000E+00 0.  1.
         11    1    1    2    0    0  0.46091126793E+02  0.70782593925E+02  0.17245823947E+03  0.19203232002E+03  0.00000000000E+00 0. -1.
</event>
<event>
 7    1  0.2394257E-009  0.9007360E+02  0.7561462E-02  0.1302674E+00
         -2   -1    0    0    0  501 -0.00000000000E+00  0.00000000000E+00  0.13506094401E+03  0.13506094401E+03  0.00000000000E+00 0.  1.
          2   -1    0    0  501    0  0.00000000000E+00 -0.00000000000E+00 -0.11574033082E+03  0.11574033082E+03  0.00000000000E+00 0. -1.
         25    2    1    2    0    0  0.20292386820E+02 -0.44062101116E+02  0.47275000607E+02  0.14225270044E+03  0.12509058871E+03 0.  0.
          5    1    3    3  502    0 -0.12004561691E+02 -0.72209764057E+02 -0.62275723789E+01  0.73584064745E+02  0.41800000000E+01 0.  1.
         -5    1    3    3    0  502  0.32296948511E+02  0.28147662942E+02  0.53502572986E+02  0.68668635696E+02  0.41800000000E+01 0.  1.
        -11    1    1    2    0    0  0.48407648546E+01  0.37493891304E+02  0.27875570921E+02  0.46970973416E+02  0.00000000000E+00 0.  1.
         11    1    1    2    0    0 -0.25133151674E+02  0.65682098114E+01 -0.55829958342E+02  0.61577600973E+02  0.00000000000E+00 0. -1.
</event>
<event>
 7    1  0.2394257E-009  0.1108087E+03  0.7561462E-02  0.1259080E+00
         -2   -1    0    0    0  501 -0.00000000000E+00  0.00000000000E+00  0.18383565121E+03  0.18383565121E+03  0.00000000000E+00 0.  1.
          2   -1    0    0  501    0  0.00000000000E+00 -0.00000000000E+00 -0.10210676220E+03  0.10210676220E+03  0.00000000000E+00 0. -1.
         25    2    1    2    0    0 -0.10609052314E+02  0.45949349305E+02 -0.27131477985E+02  0.13639937419E+03  0.12507908493E+03 0.  0.
          5    1    3    3  502    0  0.50826469708E+02  0.50571482186E+02 -0.17240722650E+02  0.73861490311E+02  0.41800000000E+01 0.  1.
         -5    1    3    3    0  502 -0.61435522022E+02 -0.46221328816E+01 -0.98907553353E+01  0.62537883875E+02  0.41800000000E+01 0.  1.
        -11    1    1    2    0    0 -0.31381988042E+02 -0.10500359674E+02  0.81899069118E+02  0.88332011463E+02  0.00000000000E+00 0.  1.
         11    1    1    2    0    0  0.41991040356E+02 -0.35448989630E+02  0.26961297882E+02  0.61211027760E+02  0.00000000000E+00 0. -1.
</event>
<event>
 7    1  0.2394257E-009  0.9737914E+02  0.7561462E-02  0.1285906E+00
          3   -1    0    0  501    0  0.00000000000E+00  0.00000000000E+00  0.83746887335E+02  0.83746887335E+02  0.00000000000E+00 0. -1.
         -3   -1    0    0    0  501 -0.00000000000E+00 -0.00000000000E+00 -0.22112034951E+03  0.22112034951E+03  0.00000000000E+00 0.  1.
         25    2    1    2    0    0  0.48699070016E+02 -0.50514482576E+02 -0.25160744193E+02  0.14562014575E+03  0.12509536933E+03 0.  0.
          5    1    3    3  502    0  0.57774670536E+02 -0.72966347863E+02 -0.54038155091E+02  0.10770141634E+03  0.41800000000E+01 0.  1.
         -5    1    3    3    0  502 -0.90756005195E+01  0.22451865287E+02  0.28877410898E+02  0.37918729407E+02  0.41800000000E+01 0.  1.
        -11    1    1    2    0    0 -0.46819851946E+02  0.28263149551E+02 -0.12287920358E+03  0.13449982465E+03  0.00000000000E+00 0.  1.
         11    1    1    2    0    0 -0.18792180701E+01  0.22251333026E+02  0.10666485591E+02  0.24747266452E+02  0.00000000000E+00 0. -1.
</event>
<event>
 7    1  0.2394257E-009  0.1345349E+03  0.7561462E-02  0.1220878E+00
         -1   -1    0    0    0  501 -0.00000000000E+00  0.00000000000E+00  0.17159419131E+02  0.17159419131E+02  0.00000000000E+00 0.  1.
          1   -1    0    0  501    0  0.00000000000E+00 -0.00000000000E+00 -0.13504828955E+04  0.13504828955E+04  0.00000000000E+00 0. -1.
         25    2    1    2    0    0  0.17584277284E+02  0.91144694027E+02 -0.96103719846E+03  0.97357935142E+03  0.12509074558E+03 0.  0.
          5    1    3    3  502    0 -0.53262493226E+02  0.52497952517E+02 -0.47545434450E+03  0.48131822561E+03  0.41800000000E+01 0.  1.
         -5    1    3    3    0  502  0.70846770510E+02  0.38646741510E+02 -0.48558285396E+03  0.49226112581E+03  0.41800000000E+01 0.  1.
        -11    1    1    2    0    0 -0.38224661654E+02 -0.29310401657E+02 -0.70950012458E+02  0.85756216519E+02  0.00000000000E+00 0.  1.
         11    1    1    2    0    0  0.20640384370E+02 -0.61834292371E+02 -0.30133626546E+03  0.30830674670E+03  0.00000000000E+00 0. -1.
</event>
<event>
 7    1  0.2394257E-009  0.1123708E+03  0.7561462E-02  0.1256242E+00
         -1   -1    0    0    0  501 -0.00000000000E+00  0.00000000000E+00  0.48128887745E+03  0.48128887745E+03  0.00000000000E+00 0.  1.
          1   -1    0    0  501    0  0.00000000000E+00 -0.00000000000E+00 -0.44513955590E+02  0.44513955590E+02  0.00000000000E+00 0. -1.
         25    2    1    2    0    0 -0.75395793093E+02  0.34708917210E+02  0.32883885615E+03  0.36148539983E+03  0.12508983342E+03 0.  0.
          5    1    3    3  502    0  0.27930215747E+02  0.23679247010E+02  0.39495917533E+02  0.54020399780E+02  0.41800000000E+01 0. -1.
         -5    1    3    3    0  502 -0.10332600884E+03  0.11029670201E+02  0.28934293861E+03  0.30746500005E+03  0.41800000000E+01 0. -1.
        -11    1    1    2    0    0  0.51473835546E+02 -0.29771671464E+02  0.12229374340E+03  0.13598407202E+03  0.00000000000E+00 0.  1.
         11    1    1    2    0    0  0.23921957547E+02 -0.49372457465E+01 -0.14357677684E+02  0.28333361200E+02  0.00000000000E+00 0. -1.
</event>
<event>
 7    1  0.2665196E-009  0.2942300E+03  0.7561462E-02  0.1088161E+00
          2   -1    0    0  501    0  0.00000000000E+00  0.00000000000E+00  0.13621614783E+04  0.13621614783E+04  0.00000000000E+00 0. -1.
         -2   -1    0    0    0  501 -0.00000000000E+00 -0.00000000000E+00 -0.79451999359E+02  0.79451999359E+02  0.00000000000E+00 0.  1.
         25    2    1    2    0    0  0.24613517185E+03  0.12827905766E+03  0.95583452270E+03  0.10031475126E+04  0.12508899986E+03 0.  0.
          5    1    3    3  502    0  0.39031747904E+02  0.76561448969E+02  0.36243487433E+03  0.37250723931E+03  0.41800000000E+01 0.  1.
         -5    1    3    3    0  502  0.20710342394E+03  0.51717608694E+02  0.59339964837E+03  0.63064027333E+03  0.41800000000E+01 0.  1.
        -11    1    1    2    0    0 -0.59906572501E+02 -0.73455902065E+02  0.77502295993E+02  0.12243844519E+03  0.00000000000E+00 0.  1.
         11    1    1    2    0    0 -0.18622859935E+03 -0.54823155598E+02  0.24937266024E+03  0.31602751982E+03  0.00000000000E+00 0. -1.
</event>
<event>
 7    1  0.2394257E-009  0.1111023E+03  0.7561462E-02  0.1258542E+00
         -1   -1    0    0    0  501 -0.00000000000E+00  0.00000000000E+00  0.12830616918E+04  0.12830616918E+04  0.00000000000E+00 0.  1.
          1   -1    0    0  501    0  0.00000000000E+00 -0.00000000000E+00 -0.11225651307E+02  0.11225651307E+02  0.00000000000E+00 0. -1.
         25    2    1    2    0    0 -0.40367803483E+02  0.18206222511E+02  0.85515897503E+03  0.86539313505E+03  0.12508948605E+03 0.  0.
          5    1    3    3  502    0  0.27610713332E+02  0.50068279556E+02  0.39217143740E+03  0.39633961803E+03  0.41800000000E+01 0. -1.
         -5    1    3    3    0  502 -0.67978516815E+02 -0.31862057045E+02  0.46298753763E+03  0.46905351702E+03  0.41800000000E+01 0. -1.
        -11    1    1    2    0    0  0.63417471273E+02 -0.62690895079E+01  0.37033203956E+03  0.37577506127E+03  0.00000000000E+00 0.  1.
         11    1    1    2    0    0 -0.23049667791E+02 -0.11937133003E+02  0.46345025898E+02  0.53119146785E+02  0.00000000000E+00 0. -1.
</event>
<event>
 7    1  0.2394257E-009  0.1002965E+03  0.7561462E-02  0.1279674E+00
         -1   -1    0    0    0  501 -0.00000000000E+00  0.00000000000E+00  0.38742579244E+02  0.38742579244E+02  0.00000000000E+00 0.  1.
          1   -1    0    0  501    0  0.00000000000E+00 -0.00000000000E+00 -0.46746932414E+03  0.46746932414E+03  0.00000000000E+00 0. -1.
         25    2    1    2    0    0  0.67757667505E+02  0.42547257384E+02 -0.18695426379E+03  0.23874952819E+03  0.12509224535E+03 0.  0.
          5    1    3    3  502    0  0.21627504584E+02 -0.78622947360E+01  0.13446284941E+02  0.26978502771E+02  0.41800000000E+01 0. -1.
         -5    1    3    3    0  502  0.46130162921E+02  0.50409552120E+02 -0.20040054873E+03  0.21177102542E+03  0.41800000000E+01 0. -1.
        -11    1    1    2    0    0 -0.40979156299E+02 -0.62927017755E+02 -0.12389953862E+03  0.14487993817E+03  0.00000000000E+00 0.  1.
         11    1    1    2    0    0 -0.26778511206E+02  0.20379760371E+02 -0.11787294250E+03  0.12258243703E+03  0.00000000000E+00 0. -1.
</event>
<event>
 7    1  0.2394257E-009  0.2808411E+03  0.7561462E-02  0.1095230E+00
          1   -1    0    0  501    0  0.00000000000E+00  0.00000000000E+00  0.37760114423E+03  0.37760114423E+03  0.00000000000E+00 0. -1.
         -1   -1    0    0    0  501 -0.00000000000E+00 -0.00000000000E+00 -0.23733252302E+03  0.23733252302E+03  0.00000000000E+00 0.  1.
         25    2    1    2    0    0 -0.22732550602E+03 -0.14197116580E+03  0.15066994403E+03  0.33193404372E+03  0.12508429054E+03 0.  0.
          5    1    3    3  502    0 -0.79510853743E+02  0.11498604474E+02  0.23724493423E+02  0.83872032024E+02  0.41800000000E+01 0.  1.
         -5    1    3    3    0  502 -0.14781465228E+03 -0.15346977027E+03  0.12694545060E+03  0.24806201169E+03  0.41800000000E+01 0.  1.
        -11    1    1    2    0    0  0.18988456787E+03  0.11532777548E+03 -0.43480866172E+02  0.22637851187E+03  0.00000000000E+00 0.  1.
         11    1    1    2    0    0  0.37440938152E+02  0.26643390317E+02  0.33079543363E+02  0.56621111666E+02  0.00000000000E+00 0. -1.
</event>
<event>
 7    1  0.2517285E-009  0.1549566E+03  0.7561462E-02  0.1194511E+00
          1   -1    0    0  501    0  0.00000000000E+00  0.00000000000E+00  0.14011626925E+03  0.14011626925E+03  0.00000000000E+00 0. -1.
         -1   -1    0    0    0  501 -0.00000000000E+00 -0.00000000000E+00 -0.25525704779E+03  0.25525704779E+03  0.00000000000E+00 0.  1.
         25    2    1    2    0    0 -0.23566493343E+02  0.14338580128E+03 -0.51598423834E+01  0.19180296018E+03  0.12508750515E+03 0.  0.
          5    1    3    3  502    0 -0.31013984882E+01  0.26030881772E+02 -0.56185878419E+02  0.62141377617E+02  0.41800000000E+01 0. -1.
         -5    1    3    3    0  502 -0.20465094854E+02  0.11735491951E+03  0.51026036036E+02  0.12966158257E+03  0.41800000000E+01 0. -1.
        -11    1    1    2    0    0 -0.27974249875E+02 -0.42529086667E+02 -0.62884537440E+02  0.80905790385E+02  0.00000000000E+00 0.  1.
         11    1    1    2    0    0  0.51540743218E+02 -0.10085671461E+03 -0.47096398716E+02  0.12266456646E+03  0.00000000000E+00 0. -1.
</event>
<event>
 7    1  0.2394257E-009  0.1030339E+03  0.7561462E-02  0.1274042E+00
         -1   -1    0    0    0  501 -0.00000000000E+00  0.00000000000E+00  0.16479269222E+02  0.16479269222E+02  0.00000000000E+00 0.  1.
          1   -1    0    0  501    0  0.00000000000E+00 -0.00000000000E+00 -0.85317181915E+03  0.85317181915E+03  0.00000000000E+00 0. -1.
         25    2    1    2    0    0 -0.43506891312E+02 -0.12299268506E+02 -0.37360070278E+03  0.39657257515E+03  0.12509276817E+03 0.  0.
          5    1    3    3  502    0 -0.27929693582E+02  0.44049140136E+02 -0.70159505213E+02  0.87522700496E+02  0.41800000000E+01 0. -1.
         -5    1    3    3    0  502 -0.15577197730E+02 -0.56348408641E+02 -0.30344119756E+03  0.30904987465E+03  0.41800000000E+01 0. -1.
        -11    1    1    2    0    0  0.47126412028E+02 -0.27902856680E+02 -0.30731564142E+03  0.31215760696E+03  0.00000000000E+00 0.  1.
         11    1    1    2    0    0 -0.36195207158E+01  0.40202125186E+02 -0.15577620573E+03  0.16092090626E+03  0.00000000000E+00 0. -1.
</event>
<event>
 7    1  0.2394257E-009  0.1103109E+03  0.7561462E-02  0.1259995E+00
         -1   -1    0    0    0  501 -0.00000000000E+00  0.00000000000E+00  0.23289313479E+03  0.23289313479E+03  0.00000000000E+00 0.  1.
          1   -1    0    0  501    0  0.00000000000E+00 -0.00000000000E+00 -0.12518634216E+03  0.12518634216E+03  0.00000000000E+00 0. -1.
         25    2    1    2    0    0 -0.44107277838E+02 -0.76554610275E+02 -0.41323972371E+02  0.15861567607E+03  0.12508078066E+03 0.  0.
          5    1    3    3  502    0 -0.27510572424E+02 -0.62038979154E+02  0.36813097615E+02  0.77319745767E+02  0.41800000000E+01 0. -1.
         -5    1    3    3    0  502 -0.16596705414E+02 -0.14515631121E+02 -0.78137069986E+02  0.81295930301E+02  0.41800000000E+01 0. -1.
        -11    1    1    2    0    0 -0.87201145877E+01  0.76865113503E+02  0.69541110742E+02  0.10402044105E+03  0.00000000000E+00 0.  1.
         11    1    1    2    0    0  0.52827392425E+02 -0.31050322835E+00  0.79489654264E+02  0.95443359841E+02  0.00000000000E+00 0. -1.
</event>
<event>
 7    1  0.2394257E-009  0.8462627E+02  0.7561462E-02  0.1316413E+00
          4   -1    0    0  501    0  0.00000000000E+00  0.00000000000E+00  0.17813061549E+03  0.17813061549E+03  0.00000000000E+00 0. -1.
         -4   -1    0    0    0  501 -0.00000000000E+00 -0.00000000000E+00 -0.77815908320E+02  0.77815908320E+02  0.00000000000E+00 0.  1.
         25    2    1    2    0    0  0.15140219418E+02  0.40324856898E+02  0.33745063585E+02  0.13654188833E+03  0.12509851168E+03 0.  0.
          5    1    3    3  502    0  0.53284211897E+02  0.20625293228E+02  0.62436606757E+02  0.84737313042E+02  0.41800000000E+01 0. -1.
         -5    1    3    3    0  502 -0.38143992480E+02  0.19699563670E+02 -0.28691543172E+02  0.51804575287E+02  0.41800000000E+01 0. -1.
        -11    1    1    2    0    0  0.18487813865E+02 -0.26856080224E+02  0.75375222755E+02  0.82124737515E+02  0.00000000000E+00 0. -1.
         11    1    1    2    0    0 -0.33628033282E+02 -0.13468776674E+02 -0.88055791733E+01  0.37279897962E+02  0.00000000000E+00 0.  1.
</event>
<event>
 7    1  0.2394257E-009  0.7418871E+02  0.7561462E-02  0.1346402E+00
          2   -1    0    0  501    0  0.00000000000E+00  0.00000000000E+00  0.21461805508E+03  0.21461805508E+03  0.00000000000E+00 0.  1.
         -2   -1    0    0    0  501 -0.00000000000E+00 -0.00000000000E+00 -0.65642084345E+02  0.65642084345E+02  0.00000000000E+00 0. -1.
         25    2    1    2    0    0 -0.98289632035E+00 -0.23089139656E+02  0.27861840629E+02  0.13022277890E+03  0.12509042940E+03 0.  0.
          5    1    3    3  502    0  0.22731384495E+02  0.62869688798E+01 -0.43342477668E+02  0.49520547141E+02  0.41800000000E+01 0. -1.
         -5    1    3    3    0  502 -0.23714280815E+02 -0.29376108536E+02  0.71204318298E+02  0.80702231763E+02  0.41800000000E+01 0. -1.
        -11    1    1    2    0    0 -0.61672709900E+00 -0.31661212658E+02  0.60875978546E+02  0.68619949747E+02  0.00000000000E+00 0.  1.
         11    1    1    2    0    0  0.15996234194E+01  0.54750352314E+02  0.60238151557E+02  0.81417410771E+02  0.00000000000E+00 0. -1.
</event>
<event>
 7    1  0.2394257E-009  0.1120082E+03  0.7561462E-02  0.1256896E+00
          1   -1    0    0  501    0  0.00000000000E+00  0.00000000000E+00  0.87744129750E+02  0.87744129750E+02  0.00000000000E+00 0. -1.
         -1   -1    0    0    0  501 -0.00000000000E+00 -0.00000000000E+00 -0.20924746464E+03  0.20924746464E+03  0.00000000000E+00 0.  1.
         25    2    1    2    0    0 -0.35587294708E+02 -0.49912866434E+02 -0.96241441292E+01  0.13963600935E+03  0.12509133135E+03 0.  0.
          5    1    3    3  502    0  0.35243915797E+02 -0.50903414332E+02  0.16178979324E+02  0.64128955732E+02  0.41800000000E+01 0. -1.
         -5    1    3    3    0  502 -0.70831210505E+02  0.99054789738E+00 -0.25803123453E+02  0.75507053622E+02  0.41800000000E+01 0. -1.
        -11    1    1    2    0    0 -0.20197999729E+02  0.15436414341E+02  0.24649679025E+01  0.25540519719E+02  0.00000000000E+00 0. -1.
         11    1    1    2    0    0  0.55785294437E+02  0.34476452093E+02 -0.11434415867E+03  0.13181506532E+03  0.00000000000E+00 0.  1.
</event>
<event>
 7    1  0.2394257E-009  0.9998475E+02  0.7561462E-02  0.1280328E+00
         -3   -1    0    0    0  501 -0.00000000000E+00  0.00000000000E+00  0.34326601627E+02  0.34326601627E+02  0.00000000000E+00 0.  1.
          3   -1    0    0  501    0  0.00000000000E+00 -0.00000000000E+00 -0.38179272734E+03  0.38179272734E+03  0.00000000000E+00 0. -1.
         25    2    1    2    0    0 -0.29935997130E+02 -0.20268150564E+02 -0.18979682065E+03  0.23016931245E+03  0.12509243548E+03 0.  0.
          5    1    3    3  502    0  0.34135051937E+02 -0.48827913977E+02 -0.93828373473E+02  0.11122321261E+03  0.41800000000E+01 0. -1.
         -5    1    3    3    0  502 -0.64071049067E+02  0.28559763413E+02 -0.95968447175E+02  0.11894609984E+03  0.41800000000E+01 0. -1.
        -11    1    1    2    0    0  0.48277159915E+01  0.38590445057E+02 -0.17983609023E+02  0.42847864414E+02  0.00000000000E+00 0.  1.
         11    1    1    2    0    0  0.25108281138E+02 -0.18322294493E+02 -0.13968569604E+03  0.14310215210E+03  0.00000000000E+00 0. -1.
</event>
<event>
 7    1  0.2394257E-009  0.1448853E+03  0.7561462E-02  0.1206903E+00
          1   -1    0    0  501    0  0.00000000000E+00  0.00000000000E+00  0.55120525238E+03  0.55120525238E+03  0.00000000000E+00 0. -1.
         -1   -1    0    0    0  501 -0.00000000000E+00 -0.00000000000E+00 -0.42748037337E+02  0.42748037337E+02  0.00000000000E+00 0.  1.
         25    2    1    2    0    0  0.10629780626E+03  0.55286412869E+01  0.31130908612E+03  0.35198039747E+03  0.12508822331E+03 0.  0.
          5    1    3    3  502    0  0.34293507533E+02 -0.53573103507E+02  0.78053224766E+02  0.10077648721E+03  0.41800000000E+01 0. -1.
         -5    1    3    3    0  502  0.72004298729E+02  0.59101744794E+02  0.23325586135E+03  0.25120391026E+03  0.41800000000E+01 0. -1.
        -11    1    1    2    0    0 -0.14280078057E+02  0.30719790683E+02  0.89968126468E+02  0.96134748916E+02  0.00000000000E+00 0. -1.
         11    1    1    2    0    0 -0.92017728205E+02 -0.36248431970E+02  0.10718000246E+03  0.14583814333E+03  0.00000000000E+00 0.  1.
</event>
<event>
 7    1  0.2394257E-009  0.1002431E+03  0.7561462E-02  0.1279786E+00
          3   -1    0    0  501    0  0.00000000000E+00  0.00000000000E+00  0.13231355060E+03  0.13231355060E+03  0.00000000000E+00 0. -1.
         -3   -1    0    0    0  501 -0.00000000000E+00 -0.00000000000E+00 -0.13034125517E+03  0.13034125517E+03  0.00000000000E+00 0.  1.
         25    2    1    2    0    0 -0.60520055242E+02 -0.26089425794E+02 -0.47111357342E+02  0.14902748907E+03  0.12508547991E+03 0.  0.
          5    1    3    3  502    0  0.17821075856E+02 -0.36735654218E+02 -0.55921649713E+02  0.69367156076E+02  0.41800000000E+01 0. -1.
         -5    1    3    3    0  502 -0.78341131098E+02  0.10646228424E+02  0.88102923709E+01  0.79660332996E+02  0.41800000000E+01 0. -1.
        -11    1    1    2    0    0  0.37436724028E+02  0.38802871040E+02 -0.43041255829E+01  0.54089708854E+02  0.00000000000E+00 0.  1.
         11    1    1    2    0    0  0.23083331214E+02 -0.12713445246E+02  0.53387778355E+02  0.59537607843E+02  0.00000000000E+00 0. -1.
</event>
<event>
 7    1  0.2394257E-009  0.1077246E+03  0.7561462E-02  0.1264842E+00
          2   -1    0    0  501    0  0.00000000000E+00  0.00000000000E+00  0.77476010168E+02  0.77476010168E+02  0.00000000000E+00 0. -1.
         -2   -1    0    0    0  501 -0.00000000000E+00 -0.00000000000E+00 -0.25947102504E+03  0.25947102504E+03  0.00000000000E+00 0.  1.
         25    2    1    2    0    0  0.27307477344E+02 -0.37728498454E+02 -0.19163170321E+03  0.23353621453E+03  0.12508923178E+03 0.  0.
          5    1    3    3  502    0 -0.62546416756E+01 -0.73767110226E+02 -0.15562653589E+03  0.17238850938E+03  0.41800000000E+01 0. -1.
         -5    1    3    3    0  502  0.33562119020E+02  0.36038611772E+02 -0.36005167324E+02  0.61147705153E+02  0.41800000000E+01 0. -1.
        -11    1    1    2    0    0 -0.32856993423E+02 -0.16912422417E+02  0.27047718595E+02  0.45795099410E+02  0.00000000000E+00 0. -1.
         11    1    1    2    0    0  0.55495160788E+01  0.54640920870E+02 -0.17411030253E+02  0.57615721264E+02  0.00000000000E+00 0.  1.
</event>
<event>
 7    1  0.2394257E-009  0.1800972E+03  0.7561462E-02  0.1167709E+00
         -1   -1    0    0    0  501 -0.00000000000E+00  0.00000000000E+00  0.14090249089E+03  0.14090249089E+03  0.00000000000E+00 0.  1.
          1   -1    0    0  501    0  0.00000000000E+00 -0.00000000000E+00 -0.27074162203E+03  0.27074162203E+03  0.00000000000E+00 0. -1.
         25    2    1    2    0    0  0.54077209239E+02  0.15320412523E+03 -0.70238369959E+02  0.21674288701E+03  0.12509277320E+03 0.  0.
          5    1    3    3  502    0  0.43979793094E+02  0.16694842560E+03 -0.33345852282E+02  0.17588467038E+03  0.41800000000E+01 0. -1.
         -5    1    3    3    0  502  0.10097416145E+02 -0.13744300366E+02 -0.36892517677E+02  0.40858216627E+02  0.41800000000E+01 0. -1.
        -11    1    1    2    0    0 -0.14750734756E+00 -0.74680086567E+02  0.12124414262E+02  0.75658036647E+02  0.00000000000E+00 0.  1.
         11    1    1    2    0    0 -0.53929701891E+02 -0.78524038667E+02 -0.71725175437E+02  0.11924318927E+03  0.00000000000E+00 0. -1.
</event>
<event>
 7    1  0.2394257E-009  0.1212585E+03  0.7561462E-02  0.1241035E+00
         -1   -1    0    0    0  501 -0.00000000000E+00  0.00000000000E+00  0.23145356062E+02  0.23145356062E+02  0.00000000000E+00 0.  1.
          1   -1    0    0  501    0  0.00000000000E+00 -0.00000000000E+00 -0.71909468085E+03  0.71909468085E+03  0.00000000000E+00 0. -1.
         25    2    1    2    0    0 -0.69834586723E+02 -0.11728681856E+02 -0.35848581495E+03  0.38622804039E+03  0.12508232561E+03 0.  0.
          5    1    3    3  502    0  0.51205117579E+01 -0.46890269710E+02 -0.59949917666E+02  0.76396217592E+02  0.41800000000E+01 0. -1.
         -5    1    3    3    0  502 -0.74955098481E+02  0.35161587855E+02 -0.29853589728E+03  0.30983182279E+03  0.41800000000E+01 0. -1.
        -11    1    1    2    0    0  0.90572812916E+02  0.61066980736E+01 -0.25076108794E+03  0.26668680025E+03  0.00000000000E+00 0.  1.
         11    1    1    2    0    0 -0.20738226193E+02  0.56219837821E+01 -0.86702421889E+02  0.89325196270E+02  0.00000000000E+00 0. -1.
</event>
<event>
 7    1  0.2394257E-009  0.7421435E+02  0.7561462E-02  0.1346321E+00
         -2   -1    0    0    0  501 -0.00000000000E+00  0.00000000000E+00  0.21266724940E+03  0.21266724940E+03  0.00000000000E+00 0.  1.
          2   -1    0    0  501    0  0.00000000000E+00 -0.00000000000E+00 -0.85542286628E+02  0.85542286628E+02  0.00000000000E+00 0. -1.
         25    2    1    2    0    0 -0.17170687179E+02 -0.35954111862E+02  0.14986352412E+03  0.19923386538E+03  0.12509007393E+03 0.  0.
          5    1    3    3  502    0 -0.24141910121E+02 -0.36595966628E+02 -0.48489582140E+01  0.44306674367E+02  0.41800000000E+01 0. -1.
         -5    1    3    3    0  502  0.69712229420E+01  0.64185476532E+00  0.15471248233E+03  0.15492719101E+03  0.41800000000E+01 0. -1.
        -11    1    1    2    0    0  0.25776746715E+02 -0.24266507359E+02 -0.10476817103E+02  0.36919747389E+02  0.00000000000E+00 0.  1.
         11    1    1    2    0    0 -0.86060595367E+01  0.60220619221E+02 -0.12261744238E+02  0.62055923262E+02  0.00000000000E+00 0. -1.
</event>
<event>
 7    1  0.2394257E-009  0.9830961E+02  0.7561462E-02  0.1283891E+00
         -2   -1    0    0    0  501 -0.00000000000E+00  0.00000000000E+00  0.29919756469E+02  0.29919756469E+02  0.00000000000E+00 0.  1.
          2   -1    0    0  501    0  0.00000000000E+00 -0.00000000000E+00 -0.41067949299E+03  0.41067949299E+03  0.00000000000E+00 0. -1.
         25    2    1    2    0    0  0.12388580191E+02  0.11465658881E+02 -0.17026493106E+03  0.21195168889E+03  0.12509369857E+03 0.  0.
          5    1    3    3  502    0 -0.14654316216E+02 -0.45233927422E+02 -0.12669503648E+03  0.13538818945E+03  0.41800000000E+01 0.  1.
         -5    1    3    3    0  502  0.27042896407E+02  0.56699586303E+02 -0.43569894577E+02  0.76563499440E+02  0.41800000000E+01 0.  1.
        -11    1    1    2    0    0 -0.18425046074E+01  0.36637765788E+02 -0.60263725980E+02  0.70550955870E+02  0.00000000000E+00 0.  1.
         11    1    1    2    0    0 -0.10546075584E+02 -0.48103424669E+02 -0.15023107949E+03  0.15809660471E+03  0.00000000000E+00 0. -1.
</event>
<event>
 7    1  0.2686519E-009  0.1046855E+03  0.7561462E-02  0.1270740E+00
         -1   -1    0    0    0  501 -0.00000000000E+00  0.00000000000E+00  0.76340465678E+02  0.76340465678E+02  0.00000000000E+00 0.  1.
          1   -1    0    0  501    0  0.00000000000E+00 -0.00000000000E+00 -0.19364277452E+03  0.19364277452E+03  0.00000000000E+00 0. -1.
         25    2    1    2    0    0 -0.43167531471E+02  0.19443965246E+02 -0.98403919883E+02  0.16604605315E+03  0.12508579759E+03 0.  0.
          5    1    3    3  502    0 -0.69911819619E+02 -0.29833106462E+02 -0.68285059158E+02  0.10226435580E+03  0.41800000000E+01 0.  1.
         -5    1    3    3    0  502  0.26744288148E+02  0.49277071708E+02 -0.30118860725E+02  0.63781697344E+02  0.41800000000E+01 0.  1.
        -11    1    1    2    0    0 -0.10327710820E+02 -0.21110674427E+02  0.25295568903E+02  0.34528075412E+02  0.00000000000E+00 0.  1.
         11    1    1    2    0    0  0.53495242291E+02  0.16667091805E+01 -0.44193957864E+02  0.69409111642E+02  0.00000000000E+00 0. -1.
</event>
<event>
 7    1  0.2394257E-009  0.1014792E+03  0.7561462E-02  0.1277216E+00
          1   -1    0    0  501    0  0.00000000000E+00  0.00000000000E+00  0.20807277380E+03  0.20807277380E+03  0.00000000000E+00 0. -1.
         -1   -1    0    0    0  501 -0.00000000000E+00 -0.00000000000E+00 -0.87735813323E+02  0.87735813323E+02  0.00000000000E+00 0.  1.
         25    2    1    2    0    0 -0.42956593002E+02 -0.60507667288E+02  0.10105580264E+03  0.17710503332E+03  0.12508985129E+03 0.  0.
          5    1    3    3  502    0 -0.39141783626E+02 -0.60538645414E+01  0.11407809374E+03  0.12083051093E+03  0.41800000000E+01 0.  1.
         -5    1    3    3    0  502 -0.38148093767E+01 -0.54453802747E+02 -0.13022291095E+02  0.56274522384E+02  0.41800000000E+01 0.  1.
        -11    1    1    2    0    0  0.60601373427E+02  0.19369393264E+02 -0.11129829069E+02  0.64587715177E+02  0.00000000000E+00 0. -1.
         11    1    1    2    0    0 -0.17644780425E+02  0.41138274024E+02  0.30410986896E+02  0.54115838624E+02  0.00000000000E+00 0.  1.
</event>
<event>
 7    1  0.2394257E-009  0.5815449E+02  0.7561462E-02  0.1405744E+00
          1   -1    0    0  501    0  0.00000000000E+00  0.00000000000E+00  0.38107193096E+02  0.38107193096E+02  0.00000000000E+00 0. -1.
         -1   -1    0    0    0  501 -0.00000000000E+00 -0.00000000000E+00 -0.35528453690E+03  0.35528453690E+03  0.00000000000E+00 0.  1.
         25    2    1    2    0    0 -0.60052541358E+01  0.13163837267E+02 -0.23535145291E+03  0.26692143202E+03  0.12508954709E+03 0.  0.
          5    1    3    3  502    0 -0.37120921392E+02  0.22066680675E+02 -0.22975051178E+03  0.23381118721E+03  0.41800000000E+01 0. -1.
         -5    1    3    3    0  502  0.31115667256E+02 -0.89028434079E+01 -0.56009411333E+01  0.33110244806E+02  0.41800000000E+01 0. -1.
        -11    1    1    2    0    0  0.21946958937E+02 -0.95980733445E+01 -0.99535385268E+02  0.10237717001E+03  0.00000000000E+00 0.  1.
         11    1    1    2    0    0 -0.15941704801E+02 -0.35657639228E+01  0.17709494378E+02  0.24093127971E+02  0.00000000000E+00 0. -1.
</event>
<event>
 7    1  0.2394257E-009  0.8187321E+02  0.7561462E-02  0.1323818E+00
         -2   -1    0    0    0  501 -0.00000000000E+00  0.00000000000E+00  0.67718781513E+02  0.67718781513E+02  0.00000000000E+00 0.  1.
          2   -1    0    0  501    0  0.00000000000E+00 -0.00000000000E+00 -0.23304322581E+03  0.23304322581E+03  0.00000000000E+00 0. -1.
         25    2    1    2    0    0 -0.38044396798E+02  0.12189569946E+02 -0.14488512003E+03  0.19553883648E+03  0.12509107411E+03 0.  0.
          5    1    3    3  502    0  0.23442152719E+02  0.44491350116E+02 -0.23592395061E+02  0.55705370154E+02  0.41800000000E+01 0. -1.
         -5    1    3    3    0  502 -0.61486549517E+02 -0.32301780170E+02 -0.12129272497E+03  0.13983346632E+03  0.41800000000E+01 0. -1.
        -11    1    1    2    0    0  0.10448050299E+02  0.45833968636E+01  0.37333074335E+02  0.39037516842E+02  0.00000000000E+00 0.  1.
         11    1    1    2    0    0  0.27596346500E+02 -0.16772966809E+02 -0.57772398601E+02  0.66185654003E+02  0.00000000000E+00 0. -1.
</event>
<event>
 7    1  0.2480412E-009  0.8056624E+02  0.7561462E-02  0.1327452E+00
         -1   -1    0    0    0  501 -0.00000000000E+00  0.00000000000E+00  0.63978806513E+02  0.63978806513E+02  0.00000000000E+00 0.  1.
          1   -1    0    0  501    0  0.00000000000E+00 -0.00000000000E+00 -0.21968027954E+03  0.21968027954E+03  0.00000000000E+00 0. -1.
         25    2    1    2    0    0  0.55990884976E+01 -0.46282325010E+02 -0.99983364391E+02  0.16679364547E+03  0.12510013435E+03 0.  0.
          5    1    3    3  502    0  0.29542406054E+02  0.68789858250E+01 -0.10379332497E+03  0.10821552989E+03  0.41800000000E+01 0. -1.
         -5    1    3    3    0  502 -0.23943317556E+02 -0.53161310835E+02  0.38099605751E+01  0.58578115580E+02  0.41800000000E+01 0. -1.
        -11    1    1    2    0    0  0.24530684856E+02  0.15681253960E+02 -0.66494856186E+02  0.72589407798E+02  0.00000000000E+00 0. -1.
         11    1    1    2    0    0 -0.30129773353E+02  0.30601071051E+02  0.10776747548E+02  0.44276032789E+02  0.00000000000E+00 0.  1.
</event>
<event>
 7    1  0.2394257E-009  0.9344413E+02  0.7561462E-02  0.1294719E+00
         -4   -1    0    0    0  501 -0.00000000000E+00  0.00000000000E+00  0.84051749422E+03  0.84051749422E+03  0.00000000000E+00 0.  1.
          4   -1    0    0  501    0  0.00000000000E+00 -0.00000000000E+00 -0.21605898497E+02  0.21605898497E+02  0.00000000000E+00 0. -1.
         25    2    1    2    0    0  0.43670315175E+02  0.31244246857E+02  0.70307956431E+03  0.71613650171E+03  0.12508923192E+03 0.  0.
          5    1    3    3  502    0 -0.49355367653E+01  0.46934076350E+02  0.97593137142E+02  0.10848529791E+03  0.41800000000E+01 0. -1.
         -5    1    3    3    0  502  0.48605851940E+02 -0.15689829493E+02  0.60548642717E+03  0.60765120380E+03  0.41800000000E+01 0. -1.
        -11    1    1    2    0    0 -0.23767511842E+02  0.21400908175E+02  0.50260553208E+02  0.59573624186E+02  0.00000000000E+00 0. -1.
         11    1    1    2    0    0 -0.19902803333E+02 -0.52645155032E+02  0.65571478205E+02  0.86413266821E+02  0.00000000000E+00 0.  1.
</event>
<event>
 7    1  0.2394257E-009  0.7407651E+02  0.7561462E-02  0.1346755E+00
          1   -1    0    0  501    0  0.00000000000E+00  0.00000000000E+00  0.79425901579E+03  0.79425901579E+03  0.00000000000E+00 0. -1.
         -1   -1    0    0    0  501 -0.00000000000E+00 -0.00000000000E+00 -0.24986910675E+02  0.24986910675E+02  0.00000000000E+00 0.  1.
         25    2    1    2    0    0 -0.29857309269E+02 -0.46909321951E+02  0.62729267700E+03  0.64205592264E+03  0.12509101395E+03 0.  0.
          5    1    3    3  502    0 -0.11225088627E+02 -0.21853492811E-01 -0.72585393215E+00  0.12000098174E+02  0.41800000000E+01 0.  1.
         -5    1    3    3    0  502 -0.18632220642E+02 -0.46887468458E+02  0.62801853094E+03  0.63005582447E+03  0.41800000000E+01 0.  1.
        -11    1    1    2    0    0 -0.10990586532E+01  0.53818827968E+02  0.13411024142E+03  0.14451031461E+03  0.00000000000E+00 0. -1.
         11    1    1    2    0    0  0.30956367922E+02 -0.69095060172E+01  0.78691866907E+01  0.32679689220E+02  0.00000000000E+00 0.  1.
</event>
<event>
 7    1  0.2394257E-009  0.1939727E+03  0.7561462E-02  0.1154926E+00
          1   -1    0    0  501    0  0.00000000000E+00  0.00000000000E+00  0.64404950720E+03  0.64404950720E+03  0.00000000000E+00 0. -1.
         -1   -1    0    0    0  501 -0.00000000000E+00 -0.00000000000E+00 -0.68305212123E+02  0.68305212123E+02  0.00000000000E+00 0.  1.
         25    2    1    2    0    0 -0.13750807344E+02  0.17377785666E+03  0.37261239699E+03  0.42997251119E+03  0.12509409987E+03 0.  0.
          5    1    3    3  502    0  0.15450647622E+02 -0.15281761236E+02  0.26845406042E+02  0.34790845980E+02  0.41800000000E+01 0. -1.
         -5    1    3    3    0  502 -0.29201454966E+02  0.18905961789E+03  0.34576699095E+03  0.39518166521E+03  0.41800000000E+01 0. -1.
        -11    1    1    2    0    0  0.10250334751E+02 -0.84102068176E+02  0.34743100569E+02  0.91571339791E+02  0.00000000000E+00 0.  1.
         11    1    1    2    0    0  0.35004725929E+01 -0.89675788479E+02  0.16838879752E+03  0.19081086834E+03  0.00000000000E+00 0. -1.
</event>
<event>
 7    1  0.2394257E-009  0.1304853E+03  0.7561462E-02  0.1226737E+00
          2   -1    0    0  501    0  0.00000000000E+00  0.00000000000E+00  0.23993914994E+03  0.23993914994E+03  0.00000000000E+00 0. -1.
         -2   -1    0    0    0  501 -0.00000000000E+00 -0.00000000000E+00 -0.86140999798E+02  0.86140999798E+02  0.00000000000E+00 0.  1.
         25    2    1    2    0    0  0.42230318896E+02  0.88741262806E+02  0.81845952483E+02  0.17890558698E+03  0.12510011013E+03 0.  0.
          5    1    3    3  502    0  0.71008817786E+02  0.57448842341E+02  0.57195167653E+01  0.91612264254E+02  0.41800000000E+01 0.  1.
         -5    1    3    3    0  502 -0.28778498890E+02  0.31292420465E+02  0.76126435718E+02  0.87293322723E+02  0.41800000000E+01 0.  1.
        -11    1    1    2    0    0  0.97464555342E+01  0.10785437885E+02  0.16356643101E+02  0.21882843494E+02  0.00000000000E+00 0.  1.
         11    1    1    2    0    0 -0.51976774430E+02 -0.99526700690E+02  0.55595554560E+02  0.12529171927E+03  0.00000000000E+00 0. -1.
</event>
<event>
 7    1  0.2394257E-009  0.2022551E+03  0.7561462E-02  0.1147850E+00
          1   -1    0    0  501    0  0.00000000000E+00  0.00000000000E+00  0.44323765038E+03  0.44323765038E+03  0.00000000000E+00 0. -1.
         -1   -1    0    0    0  501 -0.00000000000E+00 -0.00000000000E+00 -0.14088390738E+03  0.14088390738E+03  0.00000000000E+00 0.  1.
         25    2    1    2    0    0  0.15496383517E+03 -0.11846925853E+03  0.29271878675E+03  0.37333706041E+03  0.12509003611E+03 0.  0.
          5    1    3    3  502    0  0.13923281383E+03 -0.12916227505E+03  0.29778236055E+03  0.35321449063E+03  0.41800000000E+01 0.  1.
         -5    1    3    3    0  502  0.15731021341E+02  0.10693016521E+02 -0.50635737983E+01  0.20122569775E+02  0.41800000000E+01 0.  1.
        -11    1    1    2    0    0 -0.42183961454E+02  0.33400065163E+02  0.39057389726E+02  0.66487071292E+02  0.00000000000E+00 0.  1.
         11    1    1    2    0    0 -0.11277987371E+03  0.85069193368E+02 -0.29422433479E+02  0.14429742606E+03  0.00000000000E+00 0. -1.
</event>
<event>
 7    1  0.2394257E-009  0.8028999E+02  0.7561462E-02  0.1328230E+00
          2   -1    0    0  501    0  0.00000000000E+00  0.00000000000E+00  0.76233040704E+03  0.76233040704E+03  0.00000000000E+00 0. -1.
         -2   -1    0    0    0  501 -0.00000000000E+00 -0.00000000000E+00 -0.20231165048E+02  0.20231165048E+02  0.00000000000E+00 0.  1.
         25    2    1    2    0    0  0.15108989449E+02  0.52816515521E+02  0.33702820626E+03  0.36366652615E+03  0.12508982595E+03 0.  0.
          5    1    3    3  502    0 -0.61296064937E+01  0.39395916816E+02  0.18551141051E+02  0.44172701659E+02  0.41800000000E+01 0. -1.
         -5    1    3    3    0  502  0.21238595942E+02  0.13420598705E+02  0.31847706520E+03  0.31949382449E+03  0.41800000000E+01 0. -1.
        -11    1    1    2    0    0  0.31368237578E+02 -0.13513981541E+02  0.65077300752E+02  0.73495912124E+02  0.00000000000E+00 0.  1.
         11    1    1    2    0    0 -0.46477227026E+02 -0.39302533980E+02  0.33999373499E+03  0.34539913381E+03  0.00000000000E+00 0. -1.
</event>
<event>
 7    1  0.2394257E-009  0.1151238E+03  0.7561462E-02  0.1251365E+00
          4   -1    0    0  501    0  0.00000000000E+00  0.00000000000E+00  0.64410739405E+02  0.64410739405E+02  0.00000000000E+00 0. -1.
         -4   -1    0    0    0  501 -0.00000000000E+00 -0.00000000000E+00 -0.23554046597E+03  0.23554046597E+03  0.00000000000E+00 0.  1.
         25    2    1    2    0    0  0.46261759575E+02 -0.10391593416E+02 -0.12735940034E+03  0.18470326807E+03  0.12508694884E+03 0.  0.
          5    1    3    3  502    0 -0.22553125564E+01 -0.59704395343E+02 -0.35468598644E+02  0.69607436009E+02  0.41800000000E+01 0. -1.
         -5    1    3    3    0  502  0.48517072132E+02  0.49312801927E+02 -0.91890801692E+02  0.11509583206E+03  0.41800000000E+01 0. -1.
        -11    1    1    2    0    0  0.17821559370E+02 -0.22753783670E+02  0.33199820397E+01  0.29092351752E+02  0.00000000000E+00 0. -1.
         11    1    1    2    0    0 -0.64083318946E+02  0.33145377087E+02 -0.47090308271E+02  0.86155585555E+02  0.00000000000E+00 0.  1.
</event>
<event>
 7    1  0.2394257E-009  0.1346316E+03  0.7561462E-02  0.1220741E+00
         -2   -1    0    0    0  501 -0.00000000000E+00  0.00000000000E+00  0.73376957922E+02  0.73376957922E+02  0.00000000000E+00 0.  1.
          2   -1    0    0  501    0  0.00000000000E+00 -0.00000000000E+00 -0.43786827108E+03  0.43786827108E+03  0.00000000000E+00 0. -1.
         25    2    1    2    0    0 -0.10848404803E+03 -0.54404000897E+02 -0.30538220347E+03  0.35161679893E+03  0.12508996403E+03 0.  0.
          5    1    3    3  502    0 -0.20462967540E+02 -0.25147930793E+02 -0.22918291129E+03  0.23150255007E+03  0.41800000000E+01 0.  1.
         -5    1    3    3    0  502 -0.88021080491E+02 -0.29256070104E+02 -0.76199292181E+02  0.12011424885E+03  0.41800000000E+01 0.  1.
        -11    1    1    2    0    0  0.11982111107E+03  0.56023195620E+02 -0.64279694556E+02  0.14706317091E+03  0.00000000000E+00 0. -1.
         11    1    1    2    0    0 -0.11337063041E+02 -0.16191947234E+01  0.51705848693E+01  0.12565259163E+02  0.00000000000E+00 0.  1.
</event>
<event>
 7    1  0.2394257E-009  0.8316066E+02  0.7561462E-02  0.1320314E+00
         -2   -1    0    0    0  501 -0.00000000000E+00  0.00000000000E+00  0.18618710802E+03  0.18618710802E+03  0.00000000000E+00 0.  1.
          2   -1    0    0  501    0  0.00000000000E+00 -0.00000000000E+00 -0.70147774743E+02  0.70147774743E+02  0.00000000000E+00 0. -1.
         25    2    1    2    0    0  0.17012131293E+02 -0.57749838786E+01  0.29533431228E+02  0.12978072874E+03  0.12509216978E+03 0.  0.
          5    1    3    3  502    0 -0.49294035766E+02 -0.26401533612E+02  0.20145801816E+02  0.59584131025E+02  0.41800000000E+01 0. -1.
         -5    1    3    3    0  502  0.66306167060E+02  0.20626549734E+02  0.93876294121E+01  0.70196597710E+02  0.41800000000E+01 0. -1.
        -11    1    1    2    0    0 -0.27467524943E+02 -0.21634310858E+01  0.10234107046E+03  0.10598509359E+03  0.00000000000E+00 0.  1.
         11    1    1    2    0    0  0.10455393650E+02  0.79384149644E+01 -0.15835168413E+02  0.20569060435E+02  0.00000000000E+00 0. -1.
</event>
<event>
 7    1  0.2394257E-009  0.1093038E+03  0.7561462E-02  0.1261865E+00
          1   -1    0    0  501    0  0.00000000000E+00  0.00000000000E+00  0.32753391548E+02  0.32753391548E+02  0.00000000000E+00 0. -1.
         -1   -1    0    0    0  501 -0.00000000000E+00 -0.00000000000E+00 -0.71531556647E+03  0.71531556647E+03  0.00000000000E+00 0.  1.
         25    2    1    2    0    0 -0.28615188137E+02  0.41775018288E+02 -0.13713020841E+03  0.19239557189E+03  0.12508949147E+03 0.  0.
          5    1    3    3  502    0  0.36379915738E+02  0.32820734516E+01 -0.11469843687E+01  0.36783940088E+02  0.41800000000E+01 0.  1.
         -5    1    3    3    0  502 -0.64995103875E+02  0.38492944836E+02 -0.13598322404E+03  0.15561163180E+03  0.41800000000E+01 0.  1.
        -11    1    1    2    0    0  0.13828977702E+02 -0.71586716048E+02 -0.37706781599E+03  0.38405212718E+03  0.00000000000E+00 0.  1.
         11    1    1    2    0    0  0.14786210435E+02  0.29811697760E+02 -0.16836415052E+03  0.17162125895E+03  0.00000000000E+00 0. -1.
</event>
<event>
 7    1  0.2394257E-009  0.1406041E+03  0.7561462E-02  0.1212518E+00
          2   -1    0    0  501    0  0.00000000000E+00  0.00000000000E+00  0.25172699150E+03  0.25172699150E+03  0.00000000000E+00 0.  1.
         -2   -1    0    0    0  501 -0.00000000000E+00 -0.00000000000E+00 -0.87819357944E+02  0.87819357944E+02  0.00000000000E+00 0. -1.
         25    2    1    2    0    0 -0.10239571893E+03  0.64183894924E+01  0.66099750324E+02  0.17476516346E+03  0.12509039287E+03 0.  0.
          5    1    3    3  502    0 -0.10907051027E+03  0.42245076246E+02  0.25008105582E+02  0.11968249839E+03  0.41800000000E+01 0.  1.
         -5    1    3    3    0  502  0.66747913378E+01 -0.35826686754E+02  0.41091644742E+02  0.55082665066E+02  0.41800000000E+01 0.  1.
        -11    1    1    2    0    0  0.27953636073E+02 -0.37536188017E+02  0.58829698701E+02  0.75175159659E+02  0.00000000000E+00 0.  1.
         11    1    1    2    0    0  0.74442082856E+02  0.31117798524E+02  0.38978184535E+02  0.89606026330E+02  0.00000000000E+00 0. -1.
</event>
<event>
 7    1  0.2394257E-009  0.1072221E+03  0.7561462E-02  0.1265802E+00
         -2   -1    0    0    0  501 -0.00000000000E+00  0.00000000000E+00  0.16911566880E+03  0.16911566880E+03  0.00000000000E+00 0. -1.
          2   -1    0    0  501    0  0.00000000000E+00 -0.00000000000E+00 -0.12987626369E+03  0.12987626369E+03  0.00000000000E+00 0.  1.
         25    2    1    2    0    0  0.92165902074E+02 -0.10455793324E+02  0.57679265288E+02  0.16606579006E+03  0.12508825630E+03 0.  0.
          5    1    3    3  502    0  0.82006079799E+02 -0.37675346200E+02  0.86393945965E+02  0.12500326050E+03  0.41800000000E+01 0.  1.
         -5    1    3    3    0  502  0.10159822275E+02  0.27219552876E+02 -0.28714680677E+02  0.41062529559E+02  0.41800000000E+01 0.  1.
        -11    1    1    2    0    0 -0.16201898775E+02 -0.55309444859E+01 -0.47147856908E+02  0.50159877211E+02  0.00000000000E+00 0.  1.
         11    1    1    2    0    0 -0.75964003299E+02  0.15986737810E+02  0.28707996733E+02  0.82766265226E+02  0.00000000000E+00 0. -1.
</event>
<event>
 7    1  0.2394257E-009  0.9135496E+02  0.7561462E-02  0.1299603E+00
          2   -1    0    0  501    0  0.00000000000E+00  0.00000000000E+00  0.23367386322E+02  0.23367386322E+02  0.00000000000E+00 0. -1.
         -2   -1    0    0    0  501 -0.00000000000E+00 -0.00000000000E+00 -0.66761578912E+03  0.66761578912E+03  0.00000000000E+00 0.  1.
         25    2    1    2    0    0  0.24474947618E+02  0.48584988166E+02 -0.44327778271E+03  0.46379247861E+03  0.12509494968E+03 0.  0.
          5    1    3    3  502    0  0.40086885637E+01 -0.11777617031E+02 -0.35277531958E+03  0.35301937674E+03  0.41800000000E+01 0.  1.
         -5    1    3    3    0  502  0.20466259054E+02  0.60362605198E+02 -0.90502463127E+02  0.11077310187E+03  0.41800000000E+01 0.  1.
        -11    1    1    2    0    0  0.18837317779E+01 -0.71051495643E+02 -0.14220456469E+03  0.15897799123E+03  0.00000000000E+00 0. -1.
         11    1    1    2    0    0 -0.26358679396E+02  0.22466507477E+02 -0.58766055398E+02  0.68212705596E+02  0.00000000000E+00 0.  1.
</event>
<event>
 7    1  0.2394257E-009  0.2292601E+03  0.7561462E-02  0.1127162E+00
         -1   -1    0    0    0  501 -0.00000000000E+00  0.00000000000E+00  0.64515933444E+03  0.64515933444E+03  0.00000000000E+00 0.  1.
          1   -1    0    0  501    0  0.00000000000E+00 -0.00000000000E+00 -0.18300790621E+03  0.18300790621E+03  0.00000000000E+00 0. -1.
         25    2    1    2    0    0  0.12926032846E+03  0.11522984231E+02  0.14572648593E+03  0.23178411359E+03  0.12508658974E+03 0.  0.
          5    1    3    3  502    0  0.14840307168E+03 -0.12323952529E+02  0.11462325424E+03  0.18796625841E+03  0.41800000000E+01 0.  1.
         -5    1    3    3    0  502 -0.19142743218E+02  0.23846936760E+02  0.31103231692E+02  0.43817855178E+02  0.41800000000E+01 0.  1.
        -11    1    1    2    0    0 -0.20187219265E+03  0.12345242187E+02 -0.61038037708E+02  0.21125915179E+03  0.00000000000E+00 0. -1.
         11    1    1    2    0    0  0.72611864190E+02 -0.23868226418E+02  0.37746298000E+03  0.38512397527E+03  0.00000000000E+00 0.  1.
</event>
<event>
 7    1  0.2394257E-009  0.1430927E+03  0.7561462E-02  0.1209227E+00
         -3   -1    0    0    0  501 -0.00000000000E+00  0.00000000000E+00  0.70485958964E+03  0.70485958964E+03  0.00000000000E+00 0.  1.
          3   -1    0    0  501    0  0.00000000000E+00 -0.00000000000E+00 -0.29600791087E+02  0.29600791087E+02  0.00000000000E+00 0. -1.
         25    2    1    2    0    0  0.92847444046E+02 -0.21886058388E+02  0.40097543153E+03  0.43073082642E+03  0.12509236876E+03 0.  0.
          5    1    3    3  502    0  0.52601772221E+02 -0.74271695447E+02  0.22945128246E+03  0.24687769159E+03  0.41800000000E+01 0. -1.
         -5    1    3    3    0  502  0.40245671825E+02  0.52385637058E+02  0.17152414907E+03  0.18385313483E+03  0.41800000000E+01 0. -1.
        -11    1    1    2    0    0 -0.30255909863E+02 -0.33618134205E+02  0.74737636972E+02  0.87357388979E+02  0.00000000000E+00 0. -1.
         11    1    1    2    0    0 -0.62591534184E+02  0.55504192594E+02  0.19954573005E+03  0.21637216532E+03  0.00000000000E+00 0.  1.
</event>
<event>
 7    1  0.2394257E-009  0.1045795E+03  0.7561462E-02  0.1270950E+00
         -1   -1    0    0    0  501 -0.00000000000E+00  0.00000000000E+00  0.43531229246E+03  0.43531229246E+03  0.00000000000E+00 0.  1.
          1   -1    0    0  501    0  0.00000000000E+00 -0.00000000000E+00 -0.42443675564E+02  0.42443675564E+02  0.00000000000E+00 0. -1.
         25    2    1    2    0    0 -0.41623382052E+02  0.34837915370E+02  0.10666786739E+03  0.17311622772E+03  0.12508000674E+03 0.  0.
          5    1    3    3  502    0  0.14713247846E+02 -0.39626012250E+02  0.39641993447E+02  0.58100435054E+02  0.41800000000E+01 0.  1.
         -5    1    3    3    0  502 -0.56336629899E+02  0.74463927620E+02  0.67025873939E+02  0.11501579266E+03  0.41800000000E+01 0.  1.
        -11    1    1    2    0    0  0.30612915015E+01  0.12092891914E+02  0.42668869794E+00  0.12481650681E+02  0.00000000000E+00 0. -1.
         11    1    1    2    0    0  0.38562090551E+02 -0.46930807283E+02  0.28577406082E+03  0.29215808963E+03  0.00000000000E+00 0.  1.
</event>
<event>
 7    1  0.2394257E-009  0.8696516E+02  0.7561462E-02  0.1310372E+00
         -2   -1    0    0    0  501 -0.00000000000E+00  0.00000000000E+00  0.22948516913E+02  0.22948516913E+02  0.00000000000E+00 0. -1.
          2   -1    0    0  501    0  0.00000000000E+00 -0.00000000000E+00 -0.80205785034E+03  0.80205785034E+03  0.00000000000E+00 0.  1.
         25    2    1    2    0    0 -0.11560281617E+02  0.30901568761E+01 -0.66827737242E+03  0.67998907331E+03  0.12508918479E+03 0.  0.
          5    1    3    3  502    0 -0.29280029116E+02  0.58890108956E+02 -0.30903529142E+03  0.31598362107E+03  0.41800000000E+01 0. -1.
         -5    1    3    3    0  502  0.17719747499E+02 -0.55799952080E+02 -0.35924208099E+03  0.36400545224E+03  0.41800000000E+01 0. -1.
        -11    1    1    2    0    0  0.10309218380E+02  0.21957014784E+02 -0.11675565142E+03  0.11924878457E+03  0.00000000000E+00 0.  1.
         11    1    1    2    0    0  0.12510632375E+01 -0.25047171660E+02  0.59236904130E+01  0.25768509377E+02  0.00000000000E+00 0. -1.
</event>
<event>
 7    1  0.2394257E-009  0.2345381E+03  0.7561462E-02  0.1123486E+00
         -2   -1    0    0    0  501 -0.00000000000E+00  0.00000000000E+00  0.32125505896E+03  0.32125505896E+03  0.00000000000E+00 0.  1.
          2   -1    0    0  501    0  0.00000000000E+00 -0.00000000000E+00 -0.47673758881E+03  0.47673758881E+03  0.00000000000E+00 0. -1.
         25    2    1    2    0    0 -0.53035119930E+02  0.21218047608E+03 -0.39035742840E+03  0.46460911709E+03  0.12509768743E+03 0.  0.
          5    1    3    3  502    0 -0.75925421325E+02  0.11438683714E+03 -0.14637250661E+03  0.20072718104E+03  0.41800000000E+01 0. -1.
         -5    1    3    3    0  502  0.22890301394E+02  0.97793638932E+02 -0.24398492179E+03  0.26388193605E+03  0.41800000000E+01 0. -1.
        -11    1    1    2    0    0  0.58014324467E+02 -0.79468215400E+02  0.13578064372E+03  0.16768196776E+03  0.00000000000E+00 0.  1.
         11    1    1    2    0    0 -0.49792045364E+01 -0.13271226068E+03  0.99094254844E+02  0.16570156292E+03  0.00000000000E+00 0. -1.
</event>
<event>
 7    1  0.2394257E-009  0.9236089E+02  0.7561462E-02  0.1297233E+00
          2   -1    0    0  501    0  0.00000000000E+00  0.00000000000E+00  0.59744226172E+02  0.59744226172E+02  0.00000000000E+00 0. -1.
         -2   -1    0    0    0  501 -0.00000000000E+00 -0.00000000000E+00 -0.26457234714E+03  0.26457234714E+03  0.00000000000E+00 0.  1.
         25    2    1    2    0    0  0.24608503055E+02 -0.46960490294E+02 -0.15859580645E+03  0.20883288602E+03  0.12509068066E+03 0.  0.
          5    1    3    3  502    0  0.54755235047E+02 -0.57404038643E+02 -0.46148304147E+02  0.91872181825E+02  0.41800000000E+01 0.  1.
         -5    1    3    3    0  502 -0.30146731992E+02  0.10443548349E+02 -0.11244750230E+03  0.11696070419E+03  0.41800000000E+01 0.  1.
        -11    1    1    2    0    0 -0.29861537872E+02  0.43568861371E+01 -0.62638612763E+02  0.69529056587E+02  0.00000000000E+00 0.  1.
         11    1    1    2    0    0  0.52530348167E+01  0.42603604157E+02  0.16406298240E+02  0.45954630712E+02  0.00000000000E+00 0. -1.
</event>
<event>
 7    1  0.2394257E-009  0.1125148E+03  0.7561462E-02  0.1255983E+00
          1   -1    0    0  501    0  0.00000000000E+00  0.00000000000E+00  0.86848124367E+03  0.86848124367E+03  0.00000000000E+00 0. -1.
         -1   -1    0    0    0  501 -0.00000000000E+00 -0.00000000000E+00 -0.21215291623E+02  0.21215291623E+02  0.00000000000E+00 0.  1.
         25    2    1    2    0    0 -0.38045002698E+02  0.53225882472E+02  0.61901597529E+03  0.63490853169E+03  0.12509056381E+03 0.  0.
          5    1    3    3  502    0  0.33411829776E+02  0.49327991389E+02  0.16954473822E+03  0.17975675721E+03  0.41800000000E+01 0. -1.
         -5    1    3    3    0  502 -0.71456832474E+02  0.38978910834E+01  0.44947123707E+03  0.45515177448E+03  0.41800000000E+01 0. -1.
        -11    1    1    2    0    0  0.94296237693E+01 -0.62754795505E+02  0.73403901902E+02  0.97032030680E+02  0.00000000000E+00 0.  1.
         11    1    1    2    0    0  0.28615378929E+02  0.95289130330E+01  0.15484607486E+03  0.15775597293E+03  0.00000000000E+00 0. -1.
</event>
<event>
 7    1  0.2394257E-009  0.1511421E+03  0.7561462E-02  0.1199077E+00
         -3   -1    0    0    0  501 -0.00000000000E+00  0.00000000000E+00  0.52587994562E+02  0.52587994562E+02  0.00000000000E+00 0.  1.
          3   -1    0    0  501    0  0.00000000000E+00 -0.00000000000E+00 -0.60502702075E+03  0.60502702075E+03  0.00000000000E+00 0. -1.
         25    2    1    2    0    0 -0.92796419227E+02 -0.90655106798E+02 -0.19883735537E+03  0.26835328722E+03  0.12509064337E+03 0.  0.
          5    1    3    3  502    0 -0.12927635953E+02  0.17181450171E+02 -0.98070021683E+02  0.10048645458E+03  0.41800000000E+01 0.  1.
         -5    1    3    3    0  502 -0.79868783274E+02 -0.10783655697E+03 -0.10076733369E+03  0.16786683264E+03  0.41800000000E+01 0.  1.
        -11    1    1    2    0    0  0.81777437813E+01  0.52786288714E+02 -0.22167326868E+03  0.22801821378E+03  0.00000000000E+00 0. -1.
         11    1    1    2    0    0  0.84618675446E+02  0.37868818083E+02 -0.13192840213E+03  0.16124351431E+03  0.00000000000E+00 0.  1.
</event>
<event>
 7    1  0.2394257E-009  0.1521933E+03  0.7561462E-02  0.1197803E+00
         -1   -1    0    0    0  501 -0.00000000000E+00  0.00000000000E+00  0.19915503016E+02  0.19915503016E+02  0.00000000000E+00 0.  1.
          1   -1    0    0  501    0  0.00000000000E+00 -0.00000000000E+00 -0.11972032766E+04  0.11972032766E+04  0.00000000000E+00 0. -1.
         25    2    1    2    0    0 -0.37181722578E+02  0.99725507160E+02 -0.54645214441E+03  0.57060122881E+03  0.12509260135E+03 0.  0.
          5    1    3    3  502    0 -0.82820245608E+02  0.70181608748E+02 -0.39347137328E+03  0.40819339201E+03  0.41800000000E+01 0.  1.
         -5    1    3    3    0  502  0.45638523031E+02  0.29543898412E+02 -0.15298077113E+03  0.16240783680E+03  0.41800000000E+01 0.  1.
        -11    1    1    2    0    0  0.66531955440E+02 -0.49041598215E+02 -0.34790097368E+03  0.35758448923E+03  0.00000000000E+00 0.  1.
         11    1    1    2    0    0 -0.29350232862E+02 -0.50683908945E+02 -0.28293465553E+03  0.28893306161E+03  0.00000000000E+00 0. -1.
</event>
<event>
 7    1  0.2394257E-009  0.1887359E+03  0.7561462E-02  0.1159606E+00
          4   -1    0    0  501    0  0.00000000000E+00  0.00000000000E+00  0.37735740078E+03  0.37735740078E+03  0.00000000000E+00 0. -1.
         -4   -1    0    0    0  501 -0.00000000000E+00 -0.00000000000E+00 -0.10766386812E+03  0.10766386812E+03  0.00000000000E+00 0.  1.
         25    2    1    2    0    0  0.10508682267E+03  0.12208521992E+03  0.20451345265E+03  0.28882739008E+03  0.12508983863E+03 0.  0.
          5    1    3    3  502    0 -0.27272140975E+02  0.31097434511E+02  0.58174555163E+02  0.71502247342E+02  0.41800000000E+01 0. -1.
         -5    1    3    3    0  502  0.13235896365E+03  0.90987785414E+02  0.14633889748E+03  0.21732514274E+03  0.41800000000E+01 0. -1.
        -11    1    1    2    0    0 -0.80927451624E+01 -0.58934489044E+02 -0.68334775684E+01  0.59878735281E+02  0.00000000000E+00 0.  1.
         11    1    1    2    0    0 -0.96994077508E+02 -0.63150730881E+02  0.72013557575E+02  0.13631514354E+03  0.00000000000E+00 0. -1.
</event>
<event>
 7    1  0.2394257E-009  0.9997210E+02  0.7561462E-02  0.1280355E+00
          3   -1    0    0  501    0  0.00000000000E+00  0.00000000000E+00  0.29733673171E+03  0.29733673171E+03  0.00000000000E+00 0. -1.
         -3   -1    0    0    0  501 -0.00000000000E+00 -0.00000000000E+00 -0.53024083694E+02  0.53024083694E+02  0.00000000000E+00 0.  1.
         25    2    1    2    0    0 -0.26689395265E+02  0.27620855333E+02  0.67855571424E+02  0.14740225987E+03  0.12509121540E+03 0.  0.
          5    1    3    3  502    0 -0.17639858797E+02 -0.42951190027E+02 -0.32400809081E+01  0.46732642418E+02  0.41800000000E+01 0.  1.
         -5    1    3    3    0  502 -0.90495364678E+01  0.70572045360E+02  0.71095652332E+02  0.10066961745E+03  0.41800000000E+01 0.  1.
        -11    1    1    2    0    0 -0.40850255674E+01  0.22700869160E+02  0.79037936694E+01  0.24382100994E+02  0.00000000000E+00 0.  1.
         11    1    1    2    0    0  0.30774420833E+02 -0.50321724493E+02  0.16855328292E+03  0.17857645454E+03  0.00000000000E+00 0. -1.
</event>
<event>
 7    1  0.2394257E-009  0.1626731E+03  0.7561462E-02  0.1185711E+00
         -2   -1    0    0    0  501 -0.00000000000E+00  0.00000000000E+00  0.45827699455E+02  0.45827699455E+02  0.00000000000E+00 0.  1.
          2   -1    0    0  501    0  0.00000000000E+00 -0.00000000000E+00 -0.83779588596E+03  0.83779588596E+03  0.00000000000E+00 0. -1.
         25    2    1    2    0    0  0.12851477040E+03 -0.97507374730E+02 -0.47444095671E+03  0.51649351755E+03  0.12509035907E+03 0.  0.
          5    1    3    3  502    0  0.70641924335E+02 -0.70090030454E+02 -0.42206568105E+03  0.43365862769E+03  0.41800000000E+01 0.  1.
         -5    1    3    3    0  502  0.57872846067E+02 -0.27417344276E+02 -0.52375275653E+02  0.82834889864E+02  0.41800000000E+01 0.  1.
        -11    1    1    2    0    0 -0.81772457086E+02  0.67413755518E+02 -0.28174540147E+03  0.30101797359E+03  0.00000000000E+00 0. -1.
         11    1    1    2    0    0 -0.46742313316E+02  0.30093619212E+02 -0.35781828322E+02  0.66112094276E+02  0.00000000000E+00 0.  1.
</event>
<event>
 7    1  0.2394257E-009  0.1477879E+03  0.7561462E-02  0.1203218E+00
         -1   -1    0    0    0  501 -0.00000000000E+00  0.00000000000E+00  0.31321083204E+03  0.31321083204E+03  0.00000000000E+00 0.  1.
          1   -1    0    0  501    0  0.00000000000E+00 -0.00000000000E+00 -0.79839346192E+02  0.79839346192E+02  0.00000000000E+00 0. -1.
         25    2    1    2    0    0  0.29986330771E+02  0.10730019073E+03  0.16130440262E+03  0.23254663855E+03  0.12508524226E+03 0.  0.
          5    1    3    3  502    0  0.61059301409E+02  0.10804390548E+03  0.15808149827E+03  0.20101979081E+03  0.41800000000E+01 0. -1.
         -5    1    3    3    0  502 -0.31072970638E+02 -0.74371475406E+00  0.32229043499E+01  0.31526847739E+02  0.41800000000E+01 0. -1.
        -11    1    1    2    0    0 -0.39875426923E+02 -0.85320024460E+01  0.37486947410E+02  0.55390576492E+02  0.00000000000E+00 0. -1.
         11    1    1    2    0    0  0.98890961512E+01 -0.98768188279E+02  0.34580135814E+02  0.10511296319E+03  0.00000000000E+00 0.  1.
</event>
<event>
 7    1  0.2394257E-009  0.1213104E+03  0.7561462E-02  0.1240951E+00
         -1   -1    0    0    0  501 -0.00000000000E+00  0.00000000000E+00  0.71283174777E+02  0.71283174777E+02  0.00000000000E+00 0.  1.
          1   -1    0    0  501    0  0.00000000000E+00 -0.00000000000E+00 -0.27387938748E+03  0.27387938748E+03  0.00000000000E+00 0. -1.
         25    2    1    2    0    0 -0.45596534689E+02 -0.52865368998E+02 -0.44635711703E+02  0.15004260413E+03  0.12508655036E+03 0.  0.
          5    1    3    3  502    0 -0.88325600536E+02 -0.46069753428E+02 -0.28828732462E+02  0.10379018309E+03  0.41800000000E+01 0. -1.
         -5    1    3    3    0  502  0.42729065847E+02 -0.67956155705E+01 -0.15806979241E+02  0.46252421038E+02  0.41800000000E+01 0. -1.
        -11    1    1    2    0    0 -0.17510671187E+02  0.24853088447E+02 -0.10274955644E+02  0.32091655056E+02  0.00000000000E+00 0.  1.
         11    1    1    2    0    0  0.63107205877E+02  0.28012280552E+02 -0.14768554536E+03  0.16302830307E+03  0.00000000000E+00 0. -1.
</event>
<event>
 7    1  0.2394257E-009  0.1023809E+03  0.7561462E-02  0.1275367E+00
         -2   -1    0    0    0  501 -0.00000000000E+00  0.00000000000E+00  0.18438488110E+03  0.18438488110E+03  0.00000000000E+00 0. -1.
          2   -1    0    0  501    0  0.00000000000E+00 -0.00000000000E+00 -0.65370681809E+02  0.65370681809E+02  0.00000000000E+00 0.  1.
         25    2    1    2    0    0  0.11385048410E+02 -0.16867923790E+00  0.10525401104E+03  0.16388302497E+03  0.12509832635E+03 0.  0.
          5    1    3    3  502    0 -0.56719057855E+02  0.55145796552E+01  0.48760444191E+02  0.75116678777E+02  0.41800000000E+01 0.  1.
         -5    1    3    3    0  502  0.68104106265E+02 -0.56832588931E+01  0.56493566845E+02  0.88766346194E+02  0.41800000000E+01 0.  1.
        -11    1    1    2    0    0 -0.39601776642E+02 -0.20100921863E+02  0.22872440897E+02  0.49954942954E+02  0.00000000000E+00 0. -1.
         11    1    1    2    0    0  0.28216728233E+02  0.20269601101E+02 -0.91122526443E+01  0.35917594981E+02  0.00000000000E+00 0.  1.
</event>
<event>
 7    1  0.2394257E-009  0.1726285E+03  0.7561462E-02  0.1175134E+00
         -3   -1    0    0    0  501 -0.00000000000E+00  0.00000000000E+00  0.76020262243E+02  0.76020262243E+02  0.00000000000E+00 0.  1.
          3   -1    0    0  501    0  0.00000000000E+00 -0.00000000000E+00 -0.54774100765E+03  0.54774100765E+03  0.00000000000E+00 0. -1.
         25    2    1    2    0    0 -0.88635871327E+02 -0.10450977077E+03 -0.86158012383E+02  0.20457253893E+03  0.12509240870E+03 0.  0.
          5    1    3    3  502    0  0.28790010041E+01 -0.87916483843E+02 -0.64023889054E+02  0.10887666209E+03  0.41800000000E+01 0. -1.
         -5    1    3    3    0  502 -0.91514872331E+02 -0.16593286929E+02 -0.22134123328E+02  0.95695876841E+02  0.41800000000E+01 0. -1.
        -11    1    1    2    0    0  0.97913161804E+02  0.52183659280E+02 -0.24655181458E+03  0.27036626791E+03  0.00000000000E+00 0. -1.
         11    1    1    2    0    0 -0.92772904776E+01  0.52326111492E+02 -0.13901091844E+03  0.14882246305E+03  0.00000000000E+00 0.  1.
</event>
<event>
 7    1  0.2394257E-009  0.1281618E+03  0.7561462E-02  0.1230209E+00
         -2   -1    0    0    0  501 -0.00000000000E+00  0.00000000000E+00  0.48111670694E+02  0.48111670694E+02  0.00000000000E+00 0.  1.
          2   -1    0    0  501    0  0.00000000000E+00 -0.00000000000E+00 -0.51078464183E+03  0.51078464183E+03  0.00000000000E+00 0. -1.
         25    2    1    2    0    0 -0.84133272222E+02  0.63975847471E+02 -0.31719239500E+03  0.35697313184E+03  0.12508990707E+03 0.  0.
          5    1    3    3  502    0 -0.87687827563E+02  0.49252694055E+02 -0.32442047837E+03  0.33967793888E+03  0.41800000000E+01 0.  1.
         -5    1    3    3    0  502  0.35545553408E+01  0.14723153416E+02  0.72280833699E+01  0.17295192956E+02  0.41800000000E+01 0.  1.
        -11    1    1    2    0    0  0.61594231273E+02  0.10194109361E+02 -0.68274782968E+02  0.92516026617E+02  0.00000000000E+00 0.  1.
         11    1    1    2    0    0  0.22539040949E+02 -0.74169956831E+02 -0.77205793163E+02  0.10940715407E+03  0.00000000000E+00 0. -1.
</event>
<event>
 7    1  0.2394257E-009  0.1006726E+03  0.7561462E-02  0.1278888E+00
         -1   -1    0    0    0  501 -0.00000000000E+00  0.00000000000E+00  0.38676468191E+02  0.38676468191E+02  0.00000000000E+00 0.  1.
          1   -1    0    0  501    0  0.00000000000E+00 -0.00000000000E+00 -0.45587809632E+03  0.45587809632E+03  0.00000000000E+00 0. -1.
         25    2    1    2    0    0 -0.62717776603E+02 -0.39567514187E+02 -0.20180392840E+03  0.24873794229E+03  0.12508649302E+03 0.  0.
          5    1    3    3  502    0  0.11675063094E+02  0.25258302342E+01  0.12616883582E+02  0.17870228537E+02  0.41800000000E+01 0. -1.
         -5    1    3    3    0  502 -0.74392839698E+02 -0.42093344421E+02 -0.21442081198E+03  0.23086771376E+03  0.41800000000E+01 0. -1.
        -11    1    1    2    0    0  0.78921234089E+02  0.34516884879E+02 -0.11334620627E+03  0.14236340473E+03  0.00000000000E+00 0.  1.
         11    1    1    2    0    0 -0.16203457485E+02  0.50506293079E+01 -0.10205149346E+03  0.10345321748E+03  0.00000000000E+00 0. -1.
</event>
<event>
 7    1  0.2659857E-009  0.1363588E+03  0.7561462E-02  0.1218314E+00
          1   -1    0    0  501    0  0.00000000000E+00  0.00000000000E+00  0.54029242868E+03  0.54029242868E+03  0.00000000000E+00 0. -1.
         -1   -1    0    0    0  501 -0.00000000000E+00 -0.00000000000E+00 -0.50864577292E+02  0.50864577292E+02  0.00000000000E+00 0.  1.
         25    2    1    2    0    0  0.21627711799E+02 -0.93643871952E+02  0.40320500037E+03  0.43296539463E+03  0.12509127849E+03 0.  0.
          5    1    3    3  502    0 -0.37006543980E+01  0.26059324783E+02  0.14218678514E+03  0.14466284084E+03  0.41800000000E+01 0. -1.
         -5    1    3    3    0  502  0.25328366197E+02 -0.11970319673E+03  0.26101821523E+03  0.28830255379E+03  0.41800000000E+01 0. -1.
        -11    1    1    2    0    0  0.19140379950E+02  0.77442310631E+02  0.81541432056E+02  0.11407309395E+03  0.00000000000E+00 0. -1.
         11    1    1    2    0    0 -0.40768091749E+02  0.16201561321E+02  0.46814189696E+01  0.44118517400E+02  0.00000000000E+00 0.  1.
</event>
<event>
 7    1  0.2394257E-009  0.9889485E+02  0.7561462E-02  0.1282637E+00
         -1   -1    0    0    0  501 -0.00000000000E+00  0.00000000000E+00  0.17994484527E+03  0.17994484527E+03  0.00000000000E+00 0.  1.
          1   -1    0    0  501    0  0.00000000000E+00 -0.00000000000E+00 -0.80787074374E+02  0.80787074374E+02  0.00000000000E+00 0. -1.
         25    2    1    2    0    0 -0.16549359398E+02 -0.45309580511E+02  0.29720094758E+02  0.13732418245E+03  0.12509119741E+03 0.  0.
          5    1    3    3  502    0 -0.44260437926E+02  0.23035083667E+02  0.38190440994E+02  0.62972880102E+02  0.41800000000E+01 0. -1.
         -5    1    3    3    0  502  0.27711078528E+02 -0.68344664178E+02 -0.84703462361E+01  0.74351302343E+02  0.41800000000E+01 0. -1.
        -11    1    1    2    0    0  0.31996757768E+02  0.48475501745E+02  0.64081577333E+01  0.58435701952E+02  0.00000000000E+00 0. -1.
         11    1    1    2    0    0 -0.15447398370E+02 -0.31659212339E+01  0.63029518406E+02  0.64972035247E+02  0.00000000000E+00 0.  1.
</event>
<event>
 7    1  0.2394257E-009  0.1027965E+03  0.7561462E-02  0.1274523E+00
         -1   -1    0    0    0  501 -0.00000000000E+00  0.00000000000E+00  0.15541517699E+03  0.15541517699E+03  0.00000000000E+00 0.  1.
          1   -1    0    0  501    0  0.00000000000E+00 -0.00000000000E+00 -0.10391937449E+03  0.10391937449E+03  0.00000000000E+00 0. -1.
         25    2    1    2    0    0  0.27273272390E+01  0.34635771102E+02  0.84604945658E+02  0.15496246914E+03  0.12509314553E+03 0.  0.
          5    1    3    3  502    0  0.87569515230E+00  0.77352511348E+02  0.24832574355E+02  0.81352977837E+02  0.41800000000E+01 0.  1.
         -5    1    3    3    0  502  0.18516320867E+01 -0.42716740246E+02  0.59772371302E+02  0.73609491302E+02  0.41800000000E+01 0.  1.
        -11    1    1    2    0    0 -0.26763614479E+02  0.14516739089E+02  0.12722246519E+02  0.32998217077E+02  0.00000000000E+00 0.  1.
         11    1    1    2    0    0  0.24036287240E+02 -0.49152510191E+02 -0.45831389674E+02  0.71373865258E+02  0.00000000000E+00 0. -1.
</event>
<event>
 7    1  0.2394257E-009  0.1589632E+03  0.7561462E-02  0.1189872E+00
          2   -1    0    0  501    0  0.00000000000E+00  0.00000000000E+00  0.53279164872E+02  0.53279164872E+02  0.00000000000E+00 0. -1.
         -2   -1    0    0    0  501 -0.00000000000E+00 -0.00000000000E+00 -0.56480805149E+03  0.56480805149E+03  0.00000000000E+00 0.  1.
         25    2    1    2    0    0  0.25431479290E+02 -0.12471144493E+03 -0.19061887261E+03  0.26112018315E+03  0.12509392798E+03 0.  0.
          5    1    3    3  502    0  0.70293746154E+02 -0.50737749784E+02 -0.64554726470E+02  0.10816799486E+03  0.41800000000E+01 0.  1.
         -5    1    3    3    0  502 -0.44862266864E+02 -0.73973695150E+02 -0.12606414614E+03  0.15295218829E+03  0.41800000000E+01 0.  1.
        -11    1    1    2    0    0 -0.43383620938E+00  0.11883938661E+03 -0.19416262468E+03  0.22764470749E+03  0.00000000000E+00 0. -1.
         11    1    1    2    0    0 -0.24997643080E+02  0.58720583191E+01 -0.12674738933E+03  0.12932232572E+03  0.00000000000E+00 0.  1.
</event>
<event>
 7    1  0.2394257E-009  0.1509186E+03  0.7561462E-02  0.1199349E+00
          1   -1    0    0  501    0  0.00000000000E+00  0.00000000000E+00  0.10109573176E+04  0.10109573176E+04  0.00000000000E+00 0. -1.
         -1   -1    0    0    0  501 -0.00000000000E+00 -0.00000000000E+00 -0.40757437656E+02  0.40757437656E+02  0.00000000000E+00 0.  1.
         25    2    1    2    0    0 -0.11780451602E+03  0.67589510065E+02  0.78227422461E+03  0.80377018861E+03  0.12508919911E+03 0.  0.
          5    1    3    3  502    0 -0.57215020000E+02  0.84560208800E+02  0.29005179804E+03  0.30752480448E+03  0.41800000000E+01 0.  1.
         -5    1    3    3    0  502 -0.60589496016E+02 -0.16970698735E+02  0.49222242658E+03  0.49624538413E+03  0.41800000000E+01 0.  1.
        -11    1    1    2    0    0  0.15952125999E+02 -0.15298525072E+02  0.10312921197E+03  0.10547108397E+03  0.00000000000E+00 0. -1.
         11    1    1    2    0    0  0.10185239002E+03 -0.52290984993E+02  0.84796443402E+02  0.14247348272E+03  0.00000000000E+00 0.  1.
</event>
<event>
 7    1  0.2394257E-009  0.7667071E+02  0.7561462E-02  0.1338774E+00
         -1   -1    0    0    0  501 -0.00000000000E+00  0.00000000000E+00  0.32168027752E+02  0.32168027752E+02  0.00000000000E+00 0.  1.
          1   -1    0    0  501    0  0.00000000000E+00 -0.00000000000E+00 -0.77550819782E+03  0.77550819782E+03  0.00000000000E+00 0. -1.
         25    2    1    2    0    0  0.48923281650E+02 -0.37774973476E+02 -0.64903003112E+03  0.66385721696E+03  0.12508392026E+03 0.  0.
          5    1    3    3  502    0  0.12819287728E+02  0.12987293796E+02 -0.89690904964E+01  0.20758634886E+02  0.41800000000E+01 0.  1.
         -5    1    3    3    0  502  0.36103993922E+02 -0.50762267273E+02 -0.64006094062E+03  0.64309858207E+03  0.41800000000E+01 0.  1.
        -11    1    1    2    0    0 -0.12203656446E+01  0.21869483198E+02  0.12887360508E+02  0.25413532783E+02  0.00000000000E+00 0.  1.
         11    1    1    2    0    0 -0.47702916005E+02  0.15905490279E+02 -0.10719749946E+03  0.11840547584E+03  0.00000000000E+00 0. -1.
</event>
<event>
 7    1  0.2394257E-009  0.1339395E+03  0.7561462E-02  0.1221725E+00
          2   -1    0    0  501    0  0.00000000000E+00  0.00000000000E+00  0.50457854063E+03  0.50457854063E+03  0.00000000000E+00 0. -1.
         -2   -1    0    0    0  501 -0.00000000000E+00 -0.00000000000E+00 -0.66730912703E+02  0.66730912703E+02  0.00000000000E+00 0.  1.
         25    2    1    2    0    0  0.70255525723E+02 -0.70371367790E+02  0.61428951762E+02  0.17119410954E+03  0.12508372687E+03 0.  0.
          5    1    3    3  502    0  0.82689365959E+02 -0.26493316482E+02  0.83339444147E+02  0.12042575477E+03  0.41800000000E+01 0. -1.
         -5    1    3    3    0  502 -0.12433840237E+02 -0.43878051308E+02 -0.21910492385E+02  0.50768354771E+02  0.41800000000E+01 0. -1.
        -11    1    1    2    0    0 -0.84785662743E+01  0.72833773948E+02  0.18701237322E+03  0.20087377243E+03  0.00000000000E+00 0.  1.
         11    1    1    2    0    0 -0.61776959448E+02 -0.24624061577E+01  0.18940630294E+03  0.19924157136E+03  0.00000000000E+00 0. -1.
</event>
<event>
 7    1  0.2394257E-009  0.1342063E+03  0.7561462E-02  0.1221345E+00
          2   -1    0    0  501    0  0.00000000000E+00  0.00000000000E+00  0.74258246238E+02  0.74258246238E+02  0.00000000000E+00 0.  1.
         -2   -1    0    0    0  501 -0.00000000000E+00 -0.00000000000E+00 -0.27481292797E+03  0.27481292797E+03  0.00000000000E+00 0. -1.
         25    2    1    2    0    0  0.30747090812E+02  0.84263556413E+02 -0.81879271832E+02  0.17434713470E+03  0.12508787987E+03 0.  0.
          5    1    3    3  502    0 -0.16165250181E+02  0.96631525444E+02 -0.78358695291E+02  0.12552499572E+03  0.41800000000E+01 0. -1.
         -5    1    3    3    0  502  0.46912340994E+02 -0.12367969032E+02 -0.35205765418E+01  0.48822138981E+02  0.41800000000E+01 0. -1.
        -11    1    1    2    0    0 -0.38988004942E+02 -0.98092094708E+02 -0.11840360176E+03  0.15862388371E+03  0.00000000000E+00 0. -1.
         11    1    1    2    0    0  0.82409141293E+01  0.13828538295E+02 -0.27180814174E+00  0.16100155798E+02  0.00000000000E+00 0.  1.
</event>
<event>
 7    1  0.2394257E-009  0.2627224E+03  0.7561462E-02  0.1105518E+00
         -2   -1    0    0    0  501 -0.00000000000E+00  0.00000000000E+00  0.64291830793E+02  0.64291830793E+02  0.00000000000E+00 0.  1.
          2   -1    0    0  501    0  0.00000000000E+00 -0.00000000000E+00 -0.11373489670E+04  0.11373489670E+04  0.00000000000E+00 0. -1.
         25    2    1    2    0    0  0.24213292701E+03 -0.49054972923E+02 -0.53656655717E+03  0.60380930206E+03  0.12508900142E+03 0.  0.
          5    1    3    3  502    0  0.24897223033E+03 -0.24394216443E+02 -0.49827110168E+03  0.55756059083E+03  0.41800000000E+01 0. -1.
         -5    1    3    3    0  502 -0.68393033204E+01 -0.24660756480E+02 -0.38295455482E+02  0.46248711233E+02  0.41800000000E+01 0. -1.
        -11    1    1    2    0    0 -0.10575685679E+03  0.38440183689E+02 -0.14771006414E+03  0.18568905064E+03  0.00000000000E+00 0. -1.
         11    1    1    2    0    0 -0.13637607022E+03  0.10614789234E+02 -0.38878051495E+03  0.41214244514E+03  0.00000000000E+00 0.  1.
</event>
<event>
 7    1  0.2854740E-009  0.7626618E+02  0.7561462E-02  0.1339994E+00
         -2   -1    0    0    0  501 -0.00000000000E+00  0.00000000000E+00  0.86282835639E+02  0.86282835639E+02  0.00000000000E+00 0.  1.
          2   -1    0    0  501    0  0.00000000000E+00 -0.00000000000E+00 -0.17036324097E+03  0.17036324097E+03  0.00000000000E+00 0. -1.
         25    2    1    2    0    0  0.37891433575E+00  0.14194201292E+02  0.84378956924E+01  0.12617624983E+03  0.12509048330E+03 0.  0.
          5    1    3    3  502    0  0.32803108529E+02 -0.17251468743E+02 -0.43445557596E+02  0.57259461906E+02  0.41800000000E+01 0. -1.
         -5    1    3    3    0  502 -0.32424194193E+02  0.31445670035E+02  0.51883453288E+02  0.68916787927E+02  0.41800000000E+01 0. -1.
        -11    1    1    2    0    0 -0.19416131078E+01  0.27791193228E+02 -0.82779162459E+02  0.87341341986E+02  0.00000000000E+00 0. -1.
         11    1    1    2    0    0  0.15626987721E+01 -0.41985394520E+02 -0.97391385682E+01  0.43128484793E+02  0.00000000000E+00 0.  1.
</event>
<event>
 7    1  0.2394257E-009  0.1240348E+03  0.7561462E-02  0.1236586E+00
         -2   -1    0    0    0  501 -0.00000000000E+00  0.00000000000E+00  0.34535723077E+02  0.34535723077E+02  0.00000000000E+00 0.  1.
          2   -1    0    0  501    0  0.00000000000E+00 -0.00000000000E+00 -0.82602976516E+03  0.82602976516E+03  0.00000000000E+00 0. -1.
         25    2    1    2    0    0  0.49552024271E+02 -0.45030914216E+02 -0.70034969096E+03  0.71457702950E+03  0.12508978820E+03 0.  0.
          5    1    3    3  502    0 -0.12447003060E+02  0.35496815950E+02 -0.25257399301E+03  0.25539390394E+03  0.41800000000E+01 0.  1.
         -5    1    3    3    0  502  0.61999027331E+02 -0.80527730165E+02 -0.44777569796E+03  0.45918312556E+03  0.41800000000E+01 0.  1.
        -11    1    1    2    0    0 -0.58548470754E+02 -0.39735307895E+01 -0.26545396813E+02  0.64407844759E+02  0.00000000000E+00 0.  1.
         11    1    1    2    0    0  0.89964464834E+01  0.49004445005E+02 -0.64598954312E+02  0.81580613983E+02  0.00000000000E+00 0. -1.
</event>
<event>
 7    1  0.2394257E-009  0.1187160E+03  0.7561462E-02  0.1245230E+00
         -4   -1    0    0    0  501 -0.00000000000E+00  0.00000000000E+00  0.42576426666E+03  0.42576426666E+03  0.00000000000E+00 0.  1.
          4   -1    0    0  501    0  0.00000000000E+00 -0.00000000000E+00 -0.51802849905E+02  0.51802849905E+02  0.00000000000E+00 0. -1.
         25    2    1    2    0    0 -0.93545426945E+02  0.36187732028E+02  0.21854476998E+03  0.27105631532E+03  0.12509760484E+03 0.  0.
          5    1    3    3  502    0 -0.11872226384E+02  0.20622471087E+02 -0.11247153772E+02  0.26649708085E+02  0.41800000000E+01 0. -1.
         -5    1    3    3    0  502 -0.81673200561E+02  0.15565260942E+02  0.22979192375E+03  0.24440660723E+03  0.41800000000E+01 0. -1.
        -11    1    1    2    0    0  0.78864934786E+02  0.11888609182E+02  0.64298857934E+02  0.10244686476E+03  0.00000000000E+00 0. -1.
         11    1    1    2    0    0  0.14680492159E+02 -0.48076341210E+02  0.91117788844E+02  0.10406393649E+03  0.00000000000E+00 0.  1.
</event>
<event>
 7    1  0.2394257E-009  0.1140385E+03  0.7561462E-02  0.1253269E+00
          2   -1    0    0  501    0  0.00000000000E+00  0.00000000000E+00  0.36063623018E+03  0.36063623018E+03  0.00000000000E+00 0. -1.
         -2   -1    0    0    0  501 -0.00000000000E+00 -0.00000000000E+00 -0.50506548072E+02  0.50506548072E+02  0.00000000000E+00 0.  1.
         25    2    1    2    0    0 -0.26577221639E+02 -0.65557342824E+02  0.11308831252E+03  0.18286675779E+03  0.12508865164E+03 0.  0.
          5    1    3    3  502    0  0.31131428783E+02 -0.36517785343E+02  0.10760797890E+03  0.11789683638E+03  0.41800000000E+01 0. -1.
         -5    1    3    3    0  502 -0.57708650422E+02 -0.29039557481E+02  0.54803336174E+01  0.64969921415E+02  0.41800000000E+01 0. -1.
        -11    1    1    2    0    0  0.52265977591E+02  0.89770065723E+01  0.86276675755E+02  0.10127183142E+03  0.00000000000E+00 0. -1.
         11    1    1    2    0    0 -0.25688755952E+02  0.56580336251E+02  0.11076469383E+03  0.12700418904E+03  0.00000000000E+00 0.  1.
</event>
<event>
 7    1  0.2394257E-009  0.1134912E+03  0.7561462E-02  0.1254238E+00
         -1   -1    0    0    0  501 -0.00000000000E+00  0.00000000000E+00  0.54753864521E+02  0.54753864521E+02  0.00000000000E+00 0.  1.
          1   -1    0    0  501    0  0.00000000000E+00 -0.00000000000E+00 -0.27002597887E+03  0.27002597887E+03  0.00000000000E+00 0. -1.
         25    2    1    2    0    0  0.49737256004E+02  0.22492794987E+02 -0.11840916407E+03  0.18069725708E+03  0.12510414909E+03 0.  0.
          5    1    3    3  502    0  0.46270522991E+02 -0.40938004295E+02 -0.93900789420E+02  0.11247982996E+03  0.41800000000E+01 0. -1.
         -5    1    3    3    0  502  0.34667330139E+01  0.63430799281E+02 -0.24508374651E+02  0.68217427123E+02  0.41800000000E+01 0. -1.
        -11    1    1    2    0    0  0.88260720982E+01  0.24671948387E+02 -0.47146422881E+02  0.53938759500E+02  0.00000000000E+00 0. -1.
         11    1    1    2    0    0 -0.58563328103E+02 -0.47164743373E+02 -0.49716527400E+02  0.90143826814E+02  0.00000000000E+00 0.  1.
</event>
<event>
 7    1  0.2394257E-009  0.8838207E+02  0.7561462E-02  0.1306818E+00
          1   -1    0    0  501    0  0.00000000000E+00  0.00000000000E+00  0.73004007069E+02  0.73004007069E+02  0.00000000000E+00 0. -1.
         -1   -1    0    0    0  501 -0.00000000000E+00 -0.00000000000E+00 -0.24006032385E+03  0.24006032385E+03  0.00000000000E+00 0.  1.
         25    2    1    2    0    0 -0.46237130030E+02 -0.90077409673E+01 -0.16142511576E+03  0.20958170048E+03  0.12508960623E+03 0.  0.
          5    1    3    3  502    0 -0.32067918112E+02 -0.34673999623E+02 -0.20286852857E+01  0.47457618839E+02  0.41800000000E+01 0.  1.
         -5    1    3    3    0  502 -0.14169211918E+02  0.25666258656E+02 -0.15939643047E+03  0.16212408164E+03  0.41800000000E+01 0.  1.
        -11    1    1    2    0    0  0.45691648907E+02  0.44770000566E+02 -0.16570452807E+02  0.66080705480E+02  0.00000000000E+00 0.  1.
         11    1    1    2    0    0  0.54548112359E+00 -0.35762259599E+02  0.10939251783E+02  0.37401924962E+02  0.00000000000E+00 0. -1.
</event>
<event>
 7    1  0.2394257E-009  0.1150286E+03  0.7561462E-02  0.1251531E+00
          1   -1    0    0  501    0  0.00000000000E+00  0.00000000000E+00  0.11260805324E+03  0.11260805324E+03  0.00000000000E+00 0. -1.
         -1   -1    0    0    0  501 -0.00000000000E+00 -0.00000000000E+00 -0.17245328901E+03  0.17245328901E+03  0.00000000000E+00 0.  1.
         25    2    1    2    0    0  0.44694677030E+02  0.68664532102E+02 -0.64976564760E+02  0.16304263038E+03  0.12509401756E+03 0.  0.
          5    1    3    3  502    0  0.47999075794E+02 -0.11555266576E+02  0.12808770680E+02  0.51175897345E+02  0.41800000000E+01 0.  1.
         -5    1    3    3    0  502 -0.33043987645E+01  0.80219798677E+02 -0.77785335440E+02  0.11186673304E+03  0.41800000000E+01 0.  1.
        -11    1    1    2    0    0  0.11175083387E+02 -0.30420581750E+02  0.35278469397E+02  0.47904745963E+02  0.00000000000E+00 0. -1.
         11    1    1    2    0    0 -0.55869760417E+02 -0.38243950351E+02 -0.30147140401E+02  0.74113965903E+02  0.00000000000E+00 0.  1.
</event>
<event>
 7    1  0.2394257E-009  0.1497171E+03  0.7561462E-02  0.1200821E+00
         -1   -1    0    0    0  501 -0.00000000000E+00  0.00000000000E+00  0.24024234729E+02  0.24024234729E+02  0.00000000000E+00 0.  1.
          1   -1    0    0  501    0  0.00000000000E+00 -0.00000000000E+00 -0.15011396495E+04  0.15011396495E+04  0.00000000000E+00 0. -1.
         25    2    1    2    0    0 -0.31437319873E+02 -0.14136735148E+03 -0.10084572427E+04  0.10264539256E+04  0.12509443622E+03 0.  0.
          5    1    3    3  502    0 -0.21660483796E+02 -0.84567232085E+02 -0.23308793035E+03  0.24893422620E+03  0.41800000000E+01 0. -1.
         -5    1    3    3    0  502 -0.97768360767E+01 -0.56800119397E+02 -0.77536931230E+03  0.77751969940E+03  0.41800000000E+01 0. -1.
        -11    1    1    2    0    0 -0.14634379922E+02  0.47199211134E+02 -0.26590447963E+03  0.27045724782E+03  0.00000000000E+00 0.  1.
         11    1    1    2    0    0  0.46071699794E+02  0.94168140349E+02 -0.20275369251E+03  0.22825271083E+03  0.00000000000E+00 0. -1.
</event>
<event>
 7    1  0.2394257E-009  0.1157174E+03  0.7561462E-02  0.1250334E+00
          2   -1    0    0  501    0  0.00000000000E+00  0.00000000000E+00  0.43653664679E+03  0.43653664679E+03  0.00000000000E+00 0. -1.
         -2   -1    0    0    0  501 -0.00000000000E+00 -0.00000000000E+00 -0.47155009067E+02  0.47155009067E+02  0.00000000000E+00 0.  1.
         25    2    1    2    0    0  0.64516096269E+02  0.61909472145E+02  0.22265896306E+03  0.27059117270E+03  0.12508980571E+03 0.  0.
          5    1    3    3  502    0 -0.70475860566E+01 -0.26456098633E+02  0.10077193803E+02  0.29472289682E+02  0.41800000000E+01 0.  1.
         -5    1    3    3    0  502  0.71563682325E+02  0.88365570779E+02  0.21258176926E+03  0.24111888302E+03  0.41800000000E+01 0.  1.
        -11    1    1    2    0    0 -0.10155008975E+02 -0.15201847713E+02 -0.11093125483E+02  0.21384055138E+02  0.00000000000E+00 0.  1.
         11    1    1    2    0    0 -0.54361087294E+02 -0.46707624432E+02  0.17781580014E+03  0.19171642802E+03  0.00000000000E+00 0. -1.
</event>
<event>
 7    1  0.2394257E-009  0.1295039E+03  0.7561462E-02  0.1228194E+00
         -2   -1    0    0    0  501 -0.00000000000E+00  0.00000000000E+00  0.86950208178E+02  0.86950208178E+02  0.00000000000E+00 0.  1.
          2   -1    0    0  501    0  0.00000000000E+00 -0.00000000000E+00 -0.24703961351E+03  0.24703961351E+03  0.00000000000E+00 0. -1.
         25    2    1    2    0    0  0.71272898388E+02 -0.62819585353E+02 -0.12114674898E+03  0.19836206561E+03  0.12507936655E+03 0.  0.
          5    1    3    3  502    0  0.17453470039E+02 -0.74311650497E+02 -0.12105184876E+03  0.14317076344E+03  0.41800000000E+01 0. -1.
         -5    1    3    3    0  502  0.53819428349E+02  0.11492065144E+02 -0.94900221208E-01  0.55191302169E+02  0.41800000000E+01 0. -1.
        -11    1    1    2    0    0 -0.47343053473E+02 -0.11979101900E+02 -0.20958229477E+01  0.48880017065E+02  0.00000000000E+00 0. -1.
         11    1    1    2    0    0 -0.23929844915E+02  0.74798687253E+02 -0.36846833409E+02  0.86747739018E+02  0.00000000000E+00 0.  1.
</event>
<event>
 7    1  0.2394257E-009  0.1123952E+03  0.7561462E-02  0.1256198E+00
          2   -1    0    0  501    0  0.00000000000E+00  0.00000000000E+00  0.26797654805E+02  0.26797654805E+02  0.00000000000E+00 0. -1.
         -2   -1    0    0    0  501 -0.00000000000E+00 -0.00000000000E+00 -0.72674698534E+03  0.72674698534E+03  0.00000000000E+00 0.  1.
         25    2    1    2    0    0  0.30213186451E+02  0.19013697160E+02 -0.43306863165E+03  0.45218338149E+03  0.12508802288E+03 0.  0.
          5    1    3    3  502    0  0.62063922778E+02  0.33241324864E+02 -0.13749675434E+03  0.15453072848E+03  0.41800000000E+01 0.  1.
         -5    1    3    3    0  502 -0.31850736327E+02 -0.14227627704E+02 -0.29557187730E+03  0.29765265302E+03  0.41800000000E+01 0.  1.
        -11    1    1    2    0    0 -0.38725685525E+02  0.42228359540E+02 -0.50684746166E+02  0.76497428471E+02  0.00000000000E+00 0. -1.
         11    1    1    2    0    0  0.85124990739E+01 -0.61242056700E+02 -0.21619595273E+03  0.22486383018E+03  0.00000000000E+00 0.  1.
</event>
<event>
 7    1  0.2394257E-009  0.9741387E+02  0.7561462E-02  0.1285830E+00
         -2   -1    0    0    0  501 -0.00000000000E+00  0.00000000000E+00  0.10963627857E+03  0.10963627857E+03  0.00000000000E+00 0.  1.
          2   -1    0    0  501    0  0.00000000000E+00 -0.00000000000E+00 -0.18581887660E+03  0.18581887660E+03  0.00000000000E+00 0. -1.
         25    2    1    2    0    0  0.79226708249E+01  0.57126937189E+02  0.33213420652E+02  0.14169524922E+03  0.12509259240E+03 0.  0.
          5    1    3    3  502    0  0.33033484614E+02  0.53916169523E+02  0.71541959208E+02  0.95571380492E+02  0.41800000000E+01 0. -1.
         -5    1    3    3    0  502 -0.25110813789E+02  0.32107676661E+01 -0.38328538556E+02  0.46123868723E+02  0.41800000000E+01 0. -1.
        -11    1    1    2    0    0  0.40488372777E+02 -0.22941591456E+02 -0.32894914094E+02  0.56988598175E+02  0.00000000000E+00 0. -1.
         11    1    1    2    0    0 -0.48411043602E+02 -0.34185345733E+02 -0.76501104591E+02  0.96771307779E+02  0.00000000000E+00 0.  1.
</event>
<event>
 7    1  0.2394257E-009  0.7803030E+02  0.7561462E-02  0.1334736E+00
          1   -1    0    0  501    0  0.00000000000E+00  0.00000000000E+00  0.83026990942E+02  0.83026990942E+02  0.00000000000E+00 0. -1.
         -1   -1    0    0    0  501 -0.00000000000E+00 -0.00000000000E+00 -0.16287607075E+03  0.16287607075E+03  0.00000000000E+00 0.  1.
         25    2    1    2    0    0  0.81055611576E+01 -0.29921401304E+02 -0.14968199163E+02  0.12974294236E+03  0.12509274051E+03 0.  0.
          5    1    3    3  502    0 -0.28756009160E+02  0.25608739102E+02 -0.42505944895E+02  0.57506028664E+02  0.41800000000E+01 0. -1.
         -5    1    3    3    0  502  0.36861570318E+02 -0.55530140406E+02  0.27537745732E+02  0.72236913692E+02  0.41800000000E+01 0. -1.
        -11    1    1    2    0    0  0.37208220199E+01  0.36717969060E+02  0.11433354293E+02  0.38636451167E+02  0.00000000000E+00 0. -1.
         11    1    1    2    0    0 -0.11826383178E+02 -0.67965677558E+01 -0.76314234933E+02  0.77523668164E+02  0.00000000000E+00 0.  1.
</event>
<event>
 7    1  0.2394257E-009  0.1264740E+03  0.7561462E-02  0.1232783E+00
         -1   -1    0    0    0  501 -0.00000000000E+00  0.00000000000E+00  0.63600913154E+02  0.63600913154E+02  0.00000000000E+00 0.  1.
          1   -1    0    0  501    0  0.00000000000E+00 -0.00000000000E+00 -0.37350775339E+03  0.37350775339E+03  0.00000000000E+00 0. -1.
         25    2    1    2    0    0 -0.70798906622E+02 -0.81618189631E+02 -0.16881769833E+03  0.23626250237E+03  0.12508613312E+03 0.  0.
          5    1    3    3  502    0 -0.80691646700E+02 -0.66040525159E+02 -0.49582208679E+02  0.11553510561E+03  0.41800000000E+01 0.  1.
         -5    1    3    3    0  502  0.98927400780E+01 -0.15577664472E+02 -0.11923548965E+03  0.12072739677E+03  0.41800000000E+01 0.  1.
        -11    1    1    2    0    0  0.37348328985E+02 -0.41821321331E+01 -0.85206862708E+02  0.93126781109E+02  0.00000000000E+00 0.  1.
         11    1    1    2    0    0  0.33450577636E+02  0.85800321764E+02 -0.55882279190E+02  0.10771938306E+03  0.00000000000E+00 0. -1.
</event>
<event>
 7    1  0.3004094E-009  0.1126374E+03  0.7561462E-02  0.1255762E+00
         -2   -1    0    0    0  501 -0.00000000000E+00  0.00000000000E+00  0.29692656525E+02  0.29692656525E+02  0.00000000000E+00 0.  1.
          2   -1    0    0  501    0  0.00000000000E+00 -0.00000000000E+00 -0.73978861161E+03  0.73978861161E+03  0.00000000000E+00 0. -1.
         25    2    1    2    0    0  0.94840181845E+02 -0.24616059558E+02 -0.44975814013E+03  0.47700191741E+03  0.12509130312E+03 0.  0.
          5    1    3    3  502    0  0.32882932841E+02 -0.26378670628E+02 -0.38478053627E+03  0.38710548307E+03  0.41800000000E+01 0. -1.
         -5    1    3    3    0  502  0.61957249003E+02  0.17626110700E+01 -0.64977603863E+02  0.89896434332E+02  0.41800000000E+01 0. -1.
        -11    1    1    2    0    0 -0.13380415753E+02  0.36122141768E+02 -0.33032406453E+02  0.50744305372E+02  0.00000000000E+00 0.  1.
         11    1    1    2    0    0 -0.81459766091E+02 -0.11506082210E+02 -0.22730540851E+03  0.24173504536E+03  0.00000000000E+00 0. -1.
</event>
<event>
 7    1  0.2394257E-009  0.1220163E+03  0.7561462E-02  0.1239807E+00
          1   -1    0    0  501    0  0.00000000000E+00  0.00000000000E+00  0.11506544095E+03  0.11506544095E+03  0.00000000000E+00 0.  1.
         -1   -1    0    0    0  501 -0.00000000000E+00 -0.00000000000E+00 -0.15326907318E+03  0.15326907318E+03  0.00000000000E+00 0. -1.
         25    2    1    2    0    0  0.49406177773E+02  0.34964983371E+02  0.26384075118E+02  0.14144320086E+03  0.12508612708E+03 0.  0.
          5    1    3    3  502    0  0.53136804558E+02 -0.37989536600E+02  0.17379919054E+02  0.67721923157E+02  0.41800000000E+01 0.  1.
         -5    1    3    3    0  502 -0.37306267857E+01  0.72954519971E+02  0.90041560636E+01  0.73721277708E+02  0.41800000000E+01 0.  1.
        -11    1    1    2    0    0  0.16651893402E+02  0.15134659333E+02 -0.12104347486E+01  0.22534609366E+02  0.00000000000E+00 0.  1.
         11    1    1    2    0    0 -0.66058071174E+02 -0.50099642704E+02 -0.63377272603E+02  0.10435670390E+03  0.00000000000E+00 0. -1.
</event>
<event>
 7    1  0.2394257E-009  0.1047806E+03  0.7561462E-02  0.1270553E+00
         -1   -1    0    0    0  501 -0.00000000000E+00  0.00000000000E+00  0.10082270719E+03  0.10082270719E+03  0.00000000000E+00 0.  1.
          1   -1    0    0  501    0  0.00000000000E+00 -0.00000000000E+00 -0.20921242166E+03  0.20921242166E+03  0.00000000000E+00 0. -1.
         25    2    1    2    0    0  0.46490641764E+02 -0.61746625525E+02  0.22242963010E+01  0.14706078635E+03  0.12509157387E+03 0.  0.
          5    1    3    3  502    0 -0.32818932710E+00  0.13623690448E+02 -0.44477158515E+02  0.46705488749E+02  0.41800000000E+01 0.  1.
         -5    1    3    3    0  502  0.46818831091E+02 -0.75370315973E+02  0.46701454816E+02  0.10035529760E+03  0.41800000000E+01 0.  1.
        -11    1    1    2    0    0 -0.30873012139E+02 -0.10465507539E+02 -0.34085040967E+01  0.32776327231E+02  0.00000000000E+00 0.  1.
         11    1    1    2    0    0 -0.15617629625E+02  0.72212133064E+02 -0.10720550668E+03  0.13019801527E+03  0.00000000000E+00 0. -1.
</event>
<event>
 7    1  0.2394257E-009  0.8677948E+02  0.7561462E-02  0.1310844E+00
          2   -1    0    0  501    0  0.00000000000E+00  0.00000000000E+00  0.15058669315E+03  0.15058669315E+03  0.00000000000E+00 0. -1.
         -2   -1    0    0    0  501 -0.00000000000E+00 -0.00000000000E+00 -0.90306629553E+02  0.90306629553E+02  0.00000000000E+00 0.  1.
         25    2    1    2    0    0  0.39753823135E+02  0.14911934135E+02  0.51994256985E+02  0.14196924406E+03  0.12509648782E+03 0.  0.
          5    1    3    3  502    0 -0.10208659270E+02 -0.28458315632E+02  0.67330934228E+02  0.73925770586E+02  0.41800000000E+01 0. -1.
         -5    1    3    3    0  502  0.49962482405E+02  0.43370249767E+02 -0.15336677243E+02  0.68043473469E+02  0.41800000000E+01 0. -1.
        -11    1    1    2    0    0 -0.70680796597E+01 -0.36757529257E+02  0.35118273636E+02  0.51326083528E+02  0.00000000000E+00 0. -1.
         11    1    1    2    0    0 -0.32685743475E+02  0.21845595122E+02 -0.26832467024E+02  0.47597995119E+02  0.00000000000E+00 0.  1.
</event>
<event>
 7    1  0.2394257E-009  0.1021178E+03  0.7561462E-02  0.1275904E+00
         -2   -1    0    0    0  501 -0.00000000000E+00  0.00000000000E+00  0.34765993316E+03  0.34765993316E+03  0.00000000000E+00 0.  1.
          2   -1    0    0  501    0  0.00000000000E+00 -0.00000000000E+00 -0.18649167991E+03  0.18649167991E+03  0.00000000000E+00 0. -1.
         25    2    1    2    0    0 -0.47049266910E+02 -0.69558291037E+02  0.30657650766E+03  0.34159762878E+03  0.12509114904E+03 0.  0.
          5    1    3    3  502    0 -0.62373747056E+01  0.10493775942E+02 -0.74788051905E+01  0.14914057255E+02  0.41800000000E+01 0.  1.
         -5    1    3    3    0  502 -0.40811892204E+02 -0.80052066979E+02  0.31405531285E+03  0.32668357152E+03  0.41800000000E+01 0.  1.
        -11    1    1    2    0    0 -0.83112608762E+01  0.35325949099E+02 -0.11522859374E+03  0.12080823048E+03  0.00000000000E+00 0. -1.
         11    1    1    2    0    0  0.55360527786E+02  0.34232341938E+02 -0.30179660685E+02  0.71745753814E+02  0.00000000000E+00 0.  1.
</event>
<event>
 7    1  0.2394257E-009  0.2266603E+03  0.7561462E-02  0.1129013E+00
          4   -1    0    0  501    0  0.00000000000E+00  0.00000000000E+00  0.21807158970E+03  0.21807158970E+03  0.00000000000E+00 0. -1.
         -4   -1    0    0    0  501 -0.00000000000E+00 -0.00000000000E+00 -0.30721935516E+03  0.30721935516E+03  0.00000000000E+00 0.  1.
         25    2    1    2    0    0  0.14082293264E+03  0.17439254224E+03 -0.11525433607E+03  0.28138043154E+03  0.12509008003E+03 0.  0.
          5    1    3    3  502    0  0.40755935098E+02  0.79774562286E+02 -0.11210777547E+03  0.14356410677E+03  0.41800000000E+01 0. -1.
         -5    1    3    3    0  502  0.10006699754E+03  0.94617979958E+02 -0.31465606055E+01  0.13781632476E+03  0.41800000000E+01 0. -1.
        -11    1    1    2    0    0 -0.52381933957E+02 -0.86821477918E+02 -0.32309630624E+02  0.10642249886E+03  0.00000000000E+00 0.  1.
         11    1    1    2    0    0 -0.88440998678E+02 -0.87571064327E+02  0.58416201230E+02  0.13748801446E+03  0.00000000000E+00 0. -1.
</event>
<event>
 7    1  0.2394257E-009  0.1140830E+03  0.7561462E-02  0.1253190E+00
          1   -1    0    0  501    0  0.00000000000E+00  0.00000000000E+00  0.27035450716E+02  0.27035450716E+02  0.00000000000E+00 0. -1.
         -1   -1    0    0    0  501 -0.00000000000E+00 -0.00000000000E+00 -0.50090075260E+03  0.50090075260E+03  0.00000000000E+00 0.  1.
         25    2    1    2    0    0 -0.33891314989E+02 -0.16299362799E+02 -0.23156489431E+03  0.26586692643E+03  0.12509449162E+03 0.  0.
          5    1    3    3  502    0 -0.63082525360E+01  0.54014079828E+02 -0.86407739512E+02  0.10218162612E+03  0.41800000000E+01 0. -1.
         -5    1    3    3    0  502 -0.27583062453E+02 -0.70313442627E+02 -0.14515715479E+03  0.16368530031E+03  0.41800000000E+01 0. -1.
        -11    1    1    2    0    0  0.58414174346E+02 -0.12926507761E+02 -0.17162860909E+03  0.18175722771E+03  0.00000000000E+00 0.  1.
         11    1    1    2    0    0 -0.24522859357E+02  0.29225870561E+02 -0.70671798495E+02  0.80312049181E+02  0.00000000000E+00 0. -1.
</event>
<event>
 7    1  0.2394257E-009  0.1532252E+03  0.7561462E-02  0.1196565E+00
         -3   -1    0    0    0  501 -0.00000000000E+00  0.00000000000E+00  0.21496366286E+03  0.21496366286E+03  0.00000000000E+00 0.  1.
          3   -1    0    0  501    0  0.00000000000E+00 -0.00000000000E+00 -0.23888606718E+03  0.23888606718E+03  0.00000000000E+00 0. -1.
         25    2    1    2    0    0 -0.13600768055E+03 -0.24649526087E+02  0.13094927113E+03  0.22781828983E+03  0.12509105990E+03 0.  0.
          5    1    3    3  502    0 -0.45902987279E+02 -0.23209572470E+02 -0.17170888435E+02  0.54388236826E+02  0.41800000000E+01 0. -1.
         -5    1    3    3    0  502 -0.90104693271E+02 -0.14399536168E+01  0.14812015957E+03  0.17343005301E+03  0.41800000000E+01 0. -1.
        -11    1    1    2    0    0  0.65365408779E+02 -0.33209645829E+02 -0.68075843628E+02  0.10004917654E+03  0.00000000000E+00 0.  1.
         11    1    1    2    0    0  0.70642271772E+02  0.57859171917E+02 -0.86795831821E+02  0.12598226366E+03  0.00000000000E+00 0. -1.
</event>
<event>
 7    1  0.2394257E-009  0.2503449E+03  0.7561462E-02  0.1113087E+00
          2   -1    0    0  501    0  0.00000000000E+00  0.00000000000E+00  0.29281223432E+03  0.29281223432E+03  0.00000000000E+00 0. -1.
         -2   -1    0    0    0  501 -0.00000000000E+00 -0.00000000000E+00 -0.26135245921E+03  0.26135245921E+03  0.00000000000E+00 0.  1.
         25    2    1    2    0    0 -0.21988477576E+03 -0.10997486065E+03  0.77245539420E+02  0.28645497062E+03  0.12508314133E+03 0.  0.
          5    1    3    3  502    0 -0.17059497475E+03 -0.90443221914E+02  0.56097319269E+00  0.19313313774E+03  0.41800000000E+01 0. -1.
         -5    1    3    3    0  502 -0.49289801010E+02 -0.19531638732E+02  0.76684566228E+02  0.93321832883E+02  0.41800000000E+01 0. -1.
        -11    1    1    2    0    0  0.15050231116E+03  0.10749263126E+03 -0.73869523289E+00  0.18494906626E+03  0.00000000000E+00 0.  1.
         11    1    1    2    0    0  0.69382464605E+02  0.24822293862E+01 -0.45047069081E+02  0.82760656656E+02  0.00000000000E+00 0. -1.
</event>
<event>
 7    1  0.2394257E-009  0.9187949E+02  0.7561462E-02  0.1298363E+00
          2   -1    0    0  501    0  0.00000000000E+00  0.00000000000E+00  0.43603663594E+03  0.43603663594E+03  0.00000000000E+00 0. -1.
         -2   -1    0    0    0  501 -0.00000000000E+00 -0.00000000000E+00 -0.29392497415E+02  0.29392497415E+02  0.00000000000E+00 0.  1.
         25    2    1    2    0    0  0.31173005269E+02 -0.17371212471E+02  0.25198475832E+03  0.28357912929E+03  0.12508912368E+03 0.  0.
          5    1    3    3  502    0 -0.12775792614E+02  0.48319429453E+02  0.82977032556E+02  0.96956941326E+02  0.41800000000E+01 0.  1.
         -5    1    3    3    0  502  0.43948797883E+02 -0.65690641924E+02  0.16900772577E+03  0.18662218797E+03  0.41800000000E+01 0.  1.
        -11    1    1    2    0    0 -0.26986822496E+00 -0.11893680698E+02 -0.75896703883E+01  0.14111540171E+02  0.00000000000E+00 0.  1.
         11    1    1    2    0    0 -0.30903137045E+02  0.29264893169E+02  0.16224905059E+03  0.16773846389E+03  0.00000000000E+00 0. -1.
</event>
<event>
 7    1  0.2394257E-009  0.6392795E+02  0.7561462E-02  0.1382050E+00
          2   -1    0    0  501    0  0.00000000000E+00  0.00000000000E+00  0.13348737381E+03  0.13348737381E+03  0.00000000000E+00 0. -1.
         -2   -1    0    0    0  501 -0.00000000000E+00 -0.00000000000E+00 -0.10163970017E+03  0.10163970017E+03  0.00000000000E+00 0.  1.
         25    2    1    2    0    0  0.40806097823E+02 -0.98518685046E+01  0.16547544951E+02  0.13297899035E+03  0.12508954272E+03 0.  0.
          5    1    3    3  502    0  0.46454879193E+02 -0.18446467517E+02 -0.46839236949E+02  0.68627359578E+02  0.41800000000E+01 0.  1.
         -5    1    3    3    0  502 -0.56487813703E+01  0.85945990122E+01  0.63386781900E+02  0.64351630770E+02  0.41800000000E+01 0.  1.
        -11    1    1    2    0    0 -0.22523774795E+02 -0.20960846460E+02 -0.30951594802E+02  0.43642625221E+02  0.00000000000E+00 0.  1.
         11    1    1    2    0    0 -0.18282323028E+02  0.30812714964E+02  0.46251723491E+02  0.58505458418E+02  0.00000000000E+00 0. -1.
</event>
<event>
 7    1  0.2394257E-009  0.9876713E+02  0.7561462E-02  0.1282910E+00
         -2   -1    0    0    0  501 -0.00000000000E+00  0.00000000000E+00  0.41273313272E+02  0.41273313272E+02  0.00000000000E+00 0.  1.
          2   -1    0    0  501    0  0.00000000000E+00 -0.00000000000E+00 -0.34609183922E+03  0.34609183922E+03  0.00000000000E+00 0. -1.
         25    2    1    2    0    0  0.58853158410E+02 -0.19548893268E+02 -0.13426508286E+03  0.19370238915E+03  0.12509056560E+03 0.  0.
          5    1    3    3  502    0 -0.14739816296E+02 -0.38508685773E+02 -0.24812635981E+01  0.41518792534E+02  0.41800000000E+01 0.  1.
         -5    1    3    3    0  502  0.73592974706E+02  0.18959792506E+02 -0.13178381926E+03  0.15218359661E+03  0.41800000000E+01 0.  1.
        -11    1    1    2    0    0 -0.48428840914E+02 -0.92916268333E+01 -0.14683489339E+03  0.15489406986E+03  0.00000000000E+00 0. -1.
         11    1    1    2    0    0 -0.10424317496E+02  0.28840520101E+02 -0.23718549700E+02  0.38768693489E+02  0.00000000000E+00 0.  1.
</event>
<event>
 7    1  0.2394257E-009  0.1169228E+03  0.7561462E-02  0.1248261E+00
         -2   -1    0    0    0  501 -0.00000000000E+00  0.00000000000E+00  0.29220693107E+02  0.29220693107E+02  0.00000000000E+00 0.  1.
          2   -1    0    0  501    0  0.00000000000E+00 -0.00000000000E+00 -0.62395263382E+03  0.62395263382E+03  0.00000000000E+00 0. -1.
         25    2    1    2    0    0 -0.11521740244E+02 -0.64845775831E+02 -0.21052646322E+03  0.25358988394E+03  0.12509481356E+03 0.  0.
          5    1    3    3  502    0 -0.39985425327E+02  0.16184456673E+02 -0.12505073728E+03  0.13234776225E+03  0.41800000000E+01 0. -1.
         -5    1    3    3    0  502  0.28463685083E+02 -0.81030232503E+02 -0.85475725937E+02  0.12124212169E+03  0.41800000000E+01 0. -1.
        -11    1    1    2    0    0  0.46144484564E+02  0.28068032262E+02 -0.25903239160E+03  0.26460330268E+03  0.00000000000E+00 0. -1.
         11    1    1    2    0    0 -0.34622744320E+02  0.36777743569E+02 -0.12517308589E+03  0.13498014031E+03  0.00000000000E+00 0.  1.
</event>
<event>
 7    1  0.2394257E-009  0.1350783E+03  0.7561462E-02  0.1220109E+00
          2   -1    0    0  501    0  0.00000000000E+00  0.00000000000E+00  0.41243377246E+03  0.41243377246E+03  0.00000000000E+00 0. -1.
         -2   -1    0    0    0  501 -0.00000000000E+00 -0.00000000000E+00 -0.46685491342E+02  0.46685491342E+02  0.00000000000E+00 0.  1.
         25    2    1    2    0    0  0.34299054680E+02 -0.74072321079E+02  0.25028862610E+03  0.29147015108E+03  0.12508924298E+03 0.  0.
          5    1    3    3  502    0  0.34254874857E+02  0.29440435872E+02  0.86408327959E+02  0.97591020368E+02  0.41800000000E+01 0. -1.
         -5    1    3    3    0  502  0.44179823326E-01 -0.10351275695E+03  0.16388029815E+03  0.19387913071E+03  0.41800000000E+01 0. -1.
        -11    1    1    2    0    0 -0.58377228488E+02  0.19495729582E+02  0.65028399419E+02  0.89535897878E+02  0.00000000000E+00 0.  1.
         11    1    1    2    0    0  0.24078173808E+02  0.54576591497E+02  0.50431255599E+02  0.78113214853E+02  0.00000000000E+00 0. -1.
</event>
<event>
 7    1  0.2894313E-009  0.1346684E+03  0.7561462E-02  0.1220689E+00
          1   -1    0    0  501    0  0.00000000000E+00  0.00000000000E+00  0.59560219448E+02  0.59560219448E+02  0.00000000000E+00 0. -1.
         -1   -1    0    0    0  501 -0.00000000000E+00 -0.00000000000E+00 -0.43726406826E+03  0.43726406826E+03  0.00000000000E+00 0.  1.
         25    2    1    2    0    0 -0.32642224306E+01  0.11831453770E+03 -0.18206605756E+03  0.25061096146E+03  0.12509524256E+03 0.  0.
          5    1    3    3  502    0 -0.46277573658E+02  0.79532339385E+02 -0.46607418020E+02  0.10323144214E+03  0.41800000000E+01 0.  1.
         -5    1    3    3    0  502  0.43013351227E+02  0.38782198313E+02 -0.13545863954E+03  0.14737951932E+03  0.41800000000E+01 0.  1.
        -11    1    1    2    0    0 -0.45269860462E+01 -0.75919462683E+02 -0.18751244584E+03  0.20234914322E+03  0.00000000000E+00 0.  1.
         11    1    1    2    0    0  0.77912084769E+01 -0.42395075015E+02 -0.81253454198E+01  0.43864183034E+02  0.00000000000E+00 0. -1.
</event>
<event>
 7    1  0.2394257E-009  0.1162405E+03  0.7561462E-02  0.1249431E+00
          2   -1    0    0  501    0  0.00000000000E+00  0.00000000000E+00  0.15407853852E+03  0.15407853852E+03  0.00000000000E+00 0. -1.
         -2   -1    0    0    0  501 -0.00000000000E+00 -0.00000000000E+00 -0.16640070808E+03  0.16640070808E+03  0.00000000000E+00 0.  1.
         25    2    1    2    0    0  0.39836258600E+02  0.34865877950E+02  0.98987464170E+02  0.16807787870E+03  0.12509635606E+03 0.  0.
          5    1    3    3  502    0  0.40948830760E+02  0.79485807002E+02  0.53847101285E+02  0.10445948005E+03  0.41800000000E+01 0. -1.
         -5    1    3    3    0  502 -0.11125721599E+01 -0.44619929051E+02  0.45140362885E+02  0.63618398650E+02  0.41800000000E+01 0. -1.
        -11    1    1    2    0    0 -0.48524275023E+02  0.12399481165E+02 -0.31273192629E+02  0.59045448401E+02  0.00000000000E+00 0. -1.
         11    1    1    2    0    0  0.86880164225E+01 -0.47265359115E+02 -0.80036441095E+02  0.93355919495E+02  0.00000000000E+00 0.  1.
</event>
<event>
 7    1  0.2477115E-009  0.1196069E+03  0.7561462E-02  0.1243747E+00
         -2   -1    0    0    0  501 -0.00000000000E+00  0.00000000000E+00  0.21153949242E+02  0.21153949242E+02  0.00000000000E+00 0.  1.
          2   -1    0    0  501    0  0.00000000000E+00 -0.00000000000E+00 -0.11427098139E+04  0.11427098139E+04  0.00000000000E+00 0. -1.
         25    2    1    2    0    0 -0.86395159542E+02  0.52108285976E+02 -0.78365462616E+03  0.79996428301E+03  0.12509549922E+03 0.  0.
          5    1    3    3  502    0 -0.38201350419E+02  0.54266660439E+02 -0.70117402773E+03  0.70432002894E+03  0.41800000000E+01 0. -1.
         -5    1    3    3    0  502 -0.48193809122E+02 -0.21583744633E+01 -0.82480598435E+02  0.95644254069E+02  0.41800000000E+01 0. -1.
        -11    1    1    2    0    0  0.62330899789E+02  0.47927379841E+01 -0.24102482763E+03  0.24900015852E+03  0.00000000000E+00 0. -1.
         11    1    1    2    0    0  0.24064259753E+02 -0.56901023960E+02 -0.96876410833E+02  0.11489932159E+03  0.00000000000E+00 0.  1.
</event>
<event>
 7    1  0.2394257E-009  0.8355041E+02  0.7561462E-02  0.1319267E+00
          2   -1    0    0  501    0  0.00000000000E+00  0.00000000000E+00  0.73433254090E+02  0.73433254090E+02  0.00000000000E+00 0. -1.
         -2   -1    0    0    0  501 -0.00000000000E+00 -0.00000000000E+00 -0.20996632470E+03  0.20996632470E+03  0.00000000000E+00 0.  1.
         25    2    1    2    0    0 -0.39926249787E+02  0.10429520734E+02 -0.58880233590E+02  0.14428424212E+03  0.12509268680E+03 0.  0.
          5    1    3    3  502    0 -0.30515651410E+02  0.21484375569E+02  0.33713337477E+02  0.50466274861E+02  0.41800000000E+01 0. -1.
         -5    1    3    3    0  502 -0.94105983770E+01 -0.11054854835E+02 -0.92593571066E+02  0.93817967256E+02  0.41800000000E+01 0. -1.
        -11    1    1    2    0    0 -0.12332753565E+02 -0.48333394363E+02 -0.24933277427E+02  0.55766317293E+02  0.00000000000E+00 0.  1.
         11    1    1    2    0    0  0.52259003352E+02  0.37903873630E+02 -0.52719559591E+02  0.83349019376E+02  0.00000000000E+00 0. -1.
</event>
<event>
 7    1  0.2394257E-009  0.1023881E+03  0.7561462E-02  0.1275353E+00
         -1   -1    0    0    0  501 -0.00000000000E+00  0.00000000000E+00  0.21644643153E+03  0.21644643153E+03  0.00000000000E+00 0.  1.
          1   -1    0    0  501    0  0.00000000000E+00 -0.00000000000E+00 -0.81216373788E+02  0.81216373788E+02  0.00000000000E+00 0. -1.
         25    2    1    2    0    0 -0.56101950541E+02  0.49647813431E+02  0.63075591481E+02  0.15885577975E+03  0.12507715333E+03 0.  0.
          5    1    3    3  502    0 -0.62320811086E+02  0.48335765295E+02 -0.15016532057E+02  0.80394019280E+02  0.41800000000E+01 0. -1.
         -5    1    3    3    0  502  0.62188605447E+01  0.13120481359E+01  0.78092123539E+02  0.78461760467E+02  0.41800000000E+01 0. -1.
        -11    1    1    2    0    0  0.78137284602E+02 -0.54951540089E+02  0.62606700754E+02  0.11421342295E+03  0.00000000000E+00 0.  1.
         11    1    1    2    0    0 -0.22035334061E+02  0.53037266581E+01  0.95477655085E+01  0.24593602620E+02  0.00000000000E+00 0. -1.
</event>
<event>
 7    1  0.2394257E-009  0.9887272E+02  0.7561462E-02  0.1282684E+00
          1   -1    0    0  501    0  0.00000000000E+00  0.00000000000E+00  0.43156166146E+03  0.43156166146E+03  0.00000000000E+00 0. -1.
         -1   -1    0    0    0  501 -0.00000000000E+00 -0.00000000000E+00 -0.31557626382E+02  0.31557626382E+02  0.00000000000E+00 0.  1.
         25    2    1    2    0    0  0.44552317852E+02  0.20640811261E+02  0.28092207584E+03  0.31140941845E+03  0.12509061153E+03 0.  0.
          5    1    3    3  502    0  0.60348771636E+02  0.60716996424E+02  0.22446793873E+03  0.24027454258E+03  0.41800000000E+01 0. -1.
         -5    1    3    3    0  502 -0.15796453785E+02 -0.40076185162E+02  0.56454137103E+02  0.71134875872E+02  0.41800000000E+01 0. -1.
        -11    1    1    2    0    0 -0.46841818520E+02  0.11407725641E+01  0.21237321557E+02  0.51443961271E+02  0.00000000000E+00 0.  1.
         11    1    1    2    0    0  0.22895006685E+01 -0.21781583826E+02  0.97844637689E+02  0.10026590812E+03  0.00000000000E+00 0. -1.
</event>
<event>
 7    1  0.2394257E-009  0.1187224E+03  0.7561462E-02  0.1245220E+00
          1   -1    0    0  501    0  0.00000000000E+00  0.00000000000E+00  0.31259131989E+03  0.31259131989E+03  0.00000000000E+00 0. -1.
         -1   -1    0    0    0  501 -0.00000000000E+00 -0.00000000000E+00 -0.49472903276E+02  0.49472903276E+02  0.00000000000E+00 0.  1.
         25    2    1    2    0    0 -0.46879274636E+02  0.35520668076E+02  0.12566397192E+03  0.18681216747E+03  0.12509183757E+03 0.  0.
          5    1    3    3  502    0 -0.85817326318E+02  0.30459109521E+02  0.56729340081E+02  0.10736880960E+03  0.41800000000E+01 0.  1.
         -5    1    3    3    0  502  0.38938051682E+02  0.50615585551E+01  0.68934631835E+02  0.79443357873E+02  0.41800000000E+01 0.  1.
        -11    1    1    2    0    0  0.42640863670E+02  0.22780112077E+02  0.78767984971E+02  0.92420626579E+02  0.00000000000E+00 0.  1.
         11    1    1    2    0    0  0.42384109653E+01 -0.58300780153E+02  0.58686459728E+02  0.82831429116E+02  0.00000000000E+00 0. -1.
</event>
<event>
 7    1  0.2394257E-009  0.8354642E+02  0.7561462E-02  0.1319278E+00
          2   -1    0    0  501    0  0.00000000000E+00  0.00000000000E+00  0.33084471265E+03  0.33084471265E+03  0.00000000000E+00 0.  1.
         -2   -1    0    0    0  501 -0.00000000000E+00 -0.00000000000E+00 -0.37371354341E+02  0.37371354341E+02  0.00000000000E+00 0. -1.
         25    2    1    2    0    0 -0.14100931443E+02  0.10776053144E+02  0.17461320507E+03  0.21552745135E+03  0.12508937330E+03 0.  0.
          5    1    3    3  502    0 -0.23769403292E+02 -0.25560553582E+02 -0.17057875040E+01  0.35195291493E+02  0.41800000000E+01 0.  1.
         -5    1    3    3    0  502  0.96684718488E+01  0.36336606726E+02  0.17631899258E+03  0.18033215986E+03  0.41800000000E+01 0.  1.
        -11    1    1    2    0    0  0.12054054047E+02 -0.51722625537E+02  0.81159102049E+02  0.96991391664E+02  0.00000000000E+00 0.  1.
         11    1    1    2    0    0  0.20468773959E+01  0.40946572393E+02  0.37701051186E+02  0.55697223973E+02  0.00000000000E+00 0. -1.
</event>
<event>
 7    1  0.2394257E-009  0.9227272E+02  0.7561462E-02  0.1297439E+00
          2   -1    0    0  501    0  0.00000000000E+00  0.00000000000E+00  0.13140386380E+04  0.13140386380E+04  0.00000000000E+00 0. -1.
         -2   -1    0    0    0  501 -0.00000000000E+00 -0.00000000000E+00 -0.11069475480E+02  0.11069475480E+02  0.00000000000E+00 0.  1.
         25    2    1    2    0    0 -0.10689257284E+02 -0.11312212408E+02  0.10102098324E+04  0.10180438648E+04  0.12508868434E+03 0.  0.
          5    1    3    3  502    0 -0.21798995557E+02 -0.48371647545E+02  0.89215092332E+03  0.89373696068E+03  0.41800000000E+01 0.  1.
         -5    1    3    3    0  502  0.11109738272E+02  0.37059435137E+02  0.11805890903E+03  0.12430690414E+03  0.41800000000E+01 0.  1.
        -11    1    1    2    0    0 -0.37559031307E+02 -0.11164793308E+02  0.13469928893E+03  0.14028268561E+03  0.00000000000E+00 0. -1.
         11    1    1    2    0    0  0.48248288591E+02  0.22477005716E+02  0.15806004122E+03  0.16678156304E+03  0.00000000000E+00 0.  1.
</event>
<event>
 7    1  0.2394257E-009  0.1044106E+03  0.7561462E-02  0.1271285E+00
          1   -1    0    0  501    0  0.00000000000E+00  0.00000000000E+00  0.40375899411E+03  0.40375899411E+03  0.00000000000E+00 0. -1.
         -1   -1    0    0    0  501 -0.00000000000E+00 -0.00000000000E+00 -0.56991271658E+02  0.56991271658E+02  0.00000000000E+00 0.  1.
         25    2    1    2    0    0  0.83141767617E+02 -0.31607683585E+02  0.27383967959E+03  0.31392142917E+03  0.12508754690E+03 0.  0.
          5    1    3    3  502    0  0.31904788666E+02  0.10851628862E+02  0.19916396100E+01  0.34016355141E+02  0.41800000000E+01 0. -1.
         -5    1    3    3    0  502  0.51236978951E+02 -0.42459312447E+02  0.27184803998E+03  0.27990507403E+03  0.41800000000E+01 0. -1.
        -11    1    1    2    0    0  0.23973149496E+01  0.21978905817E+02  0.54479378232E+02  0.58794745279E+02  0.00000000000E+00 0. -1.
         11    1    1    2    0    0 -0.85539082566E+02  0.96287777677E+01  0.18448664628E+02  0.88034091318E+02  0.00000000000E+00 0.  1.
</event>
<event>
 7    1  0.2394257E-009  0.1872446E+03  0.7561462E-02  0.1160970E+00
          1   -1    0    0  501    0  0.00000000000E+00  0.00000000000E+00  0.18957784332E+03  0.18957784332E+03  0.00000000000E+00 0. -1.
         -1   -1    0    0    0  501 -0.00000000000E+00 -0.00000000000E+00 -0.22892188552E+03  0.22892188552E+03  0.00000000000E+00 0.  1.
         25    2    1    2    0    0  0.15269861324E+03  0.60515114660E+02  0.45552994055E+02  0.21142626107E+03  0.12508814098E+03 0.  0.
          5    1    3    3  502    0 -0.10463038612E+02 -0.14724687755E+01  0.34684464209E+02  0.36498325972E+02  0.41800000000E+01 0. -1.
         -5    1    3    3    0  502  0.16316165185E+03  0.61987583435E+02  0.10868529846E+02  0.17492793510E+03  0.41800000000E+01 0. -1.
        -11    1    1    2    0    0 -0.39180207248E+02 -0.63913875061E+02 -0.27766057619E+02  0.79943892957E+02  0.00000000000E+00 0. -1.
         11    1    1    2    0    0 -0.11351840600E+03  0.33987604016E+01 -0.57130978633E+02  0.12712957481E+03  0.00000000000E+00 0.  1.
</event>
<event>
 7    1  0.2394257E-009  0.1561053E+03  0.7561462E-02  0.1193165E+00
         -1   -1    0    0    0  501 -0.00000000000E+00  0.00000000000E+00  0.30803293899E+03  0.30803293899E+03  0.00000000000E+00 0.  1.
          1   -1    0    0  501    0  0.00000000000E+00 -0.00000000000E+00 -0.13415448395E+03  0.13415448395E+03  0.00000000000E+00 0. -1.
         25    2    1    2    0    0 -0.11738122372E+03 -0.37542059839E+02  0.22047234750E+03  0.28185722686E+03  0.12509069662E+03 0.  0.
          5    1    3    3  502    0 -0.23003813610E+02 -0.70833244253E+02  0.80608008893E+02  0.10982553178E+03  0.41800000000E+01 0.  1.
         -5    1    3    3    0  502 -0.94377410109E+02  0.33291184414E+02  0.13986433860E+03  0.17203169508E+03  0.41800000000E+01 0.  1.
        -11    1    1    2    0    0  0.26556371107E+02  0.38324054216E+02 -0.51372240732E+02  0.69376372749E+02  0.00000000000E+00 0. -1.
         11    1    1    2    0    0  0.90824852613E+02 -0.78199437676E+00  0.47783482758E+01  0.90953823337E+02  0.00000000000E+00 0.  1.
</event>
<event>
 7    1  0.2394257E-009  0.1929434E+03  0.7561462E-02  0.1155833E+00
          2   -1    0    0  501    0  0.00000000000E+00  0.00000000000E+00  0.48271436588E+03  0.48271436588E+03  0.00000000000E+00 0. -1.
         -2   -1    0    0    0  501 -0.00000000000E+00 -0.00000000000E+00 -0.14490553214E+03  0.14490553214E+03  0.00000000000E+00 0.  1.
         25    2    1    2    0    0 -0.16546582339E+03 -0.48448564681E+02  0.37368126228E+03  0.43012776355E+03  0.12508399205E+03 0.  0.
          5    1    3    3  502    0 -0.16244231208E+03 -0.69117146774E+02  0.25890327142E+03  0.31338963142E+03  0.41800000000E+01 0.  1.
         -5    1    3    3    0  502 -0.30235113132E+01  0.20668582093E+02  0.11477799086E+03  0.11673813213E+03  0.41800000000E+01 0.  1.
        -11    1    1    2    0    0  0.16771508744E+02  0.34861005133E+02 -0.28400864566E+02  0.47991481457E+02  0.00000000000E+00 0. -1.
         11    1    1    2    0    0  0.14869431465E+03  0.13587559549E+02 -0.74715639733E+01  0.14950065301E+03  0.00000000000E+00 0.  1.
</event>
<event>
 7    1  0.2394257E-009  0.2741865E+03  0.7561462E-02  0.1098907E+00
          2   -1    0    0  501    0  0.00000000000E+00  0.00000000000E+00  0.18905843011E+03  0.18905843011E+03  0.00000000000E+00 0. -1.
         -2   -1    0    0    0  501 -0.00000000000E+00 -0.00000000000E+00 -0.43451550781E+03  0.43451550781E+03  0.00000000000E+00 0.  1.
         25    2    1    2    0    0 -0.19366373692E+03 -0.18158599745E+03 -0.12271118737E+03  0.31809861595E+03  0.12509826736E+03 0.  0.
          5    1    3    3  502    0 -0.13846738885E+03 -0.87964930173E+02 -0.12962185814E+03  0.20911801745E+03  0.41800000000E+01 0. -1.
         -5    1    3    3    0  502 -0.55196348067E+02 -0.93621067280E+02  0.69106707711E+01  0.10898059850E+03  0.41800000000E+01 0. -1.
        -11    1    1    2    0    0  0.90911891348E+02  0.37041932255E+02 -0.18923458340E+02  0.99975867134E+02  0.00000000000E+00 0. -1.
         11    1    1    2    0    0  0.10275184557E+03  0.14454406520E+03 -0.10382243199E+03  0.20549945483E+03  0.00000000000E+00 0.  1.
</event>
<event>
 7    1  0.2394257E-009  0.1059560E+03  0.7561462E-02  0.1268247E+00
         -4   -1    0    0    0  501 -0.00000000000E+00  0.00000000000E+00  0.40144671615E+02  0.40144671615E+02  0.00000000000E+00 0.  1.
          4   -1    0    0  501    0  0.00000000000E+00 -0.00000000000E+00 -0.44225340728E+03  0.44225340728E+03  0.00000000000E+00 0. -1.
         25    2    1    2    0    0 -0.64752748425E+02  0.15591910466E+02 -0.29095021782E+03  0.32362902496E+03  0.12509072887E+03 0.  0.
          5    1    3    3  502    0  0.28361679791E+02  0.36072136269E+02 -0.86656914469E+02  0.98145183891E+02  0.41800000000E+01 0. -1.
         -5    1    3    3    0  502 -0.93114428216E+02 -0.20480225803E+02 -0.20429330335E+03  0.22548384107E+03  0.41800000000E+01 0. -1.
        -11    1    1    2    0    0  0.58648781253E+02 -0.58933898015E+01 -0.12653590989E+03  0.13959136104E+03  0.00000000000E+00 0. -1.
         11    1    1    2    0    0  0.61039671721E+01 -0.96985206640E+01  0.15377392047E+02  0.19177692887E+02  0.00000000000E+00 0.  1.
</event>
<event>
 7    1  0.2394257E-009  0.1067163E+03  0.7561462E-02  0.1266775E+00
         -2   -1    0    0    0  501 -0.00000000000E+00  0.00000000000E+00  0.10620661866E+03  0.10620661866E+03  0.00000000000E+00 0.  1.
          2   -1    0    0  501    0  0.00000000000E+00 -0.00000000000E+00 -0.15962439465E+03  0.15962439465E+03  0.00000000000E+00 0. -1.
         25    2    1    2    0    0 -0.68558923110E+02  0.17201421672E+02 -0.21797353361E+02  0.14532093442E+03  0.12508730760E+03 0.  0.
          5    1    3    3  502    0 -0.50239899795E+02  0.70203598387E+02 -0.47518290737E+01  0.86560066066E+02  0.41800000000E+01 0.  1.
         -5    1    3    3    0  502 -0.18319023315E+02 -0.53002176715E+02 -0.17045524288E+02  0.58760868356E+02  0.41800000000E+01 0.  1.
        -11    1    1    2    0    0  0.53413671474E+02 -0.14872131376E+02  0.25746655774E+02  0.61131750143E+02  0.00000000000E+00 0.  1.
         11    1    1    2    0    0  0.15145251635E+02 -0.23292902955E+01 -0.57367078403E+02  0.59378328748E+02  0.00000000000E+00 0. -1.
</event>
<event>
 7    1  0.2394257E-009  0.1148157E+03  0.7561462E-02  0.1251903E+00
         -1   -1    0    0    0  501 -0.00000000000E+00  0.00000000000E+00  0.44767410245E+02  0.44767410245E+02  0.00000000000E+00 0.  1.
          1   -1    0    0  501    0  0.00000000000E+00 -0.00000000000E+00 -0.94379939070E+03  0.94379939070E+03  0.00000000000E+00 0. -1.
         25    2    1    2    0    0 -0.47581355720E+01  0.66675654093E+02 -0.85359266721E+03  0.86529529423E+03  0.12508885643E+03 0.  0.
          5    1    3    3  502    0 -0.39657951287E+02  0.69784340411E+02 -0.30003299910E+03  0.31061210571E+03  0.41800000000E+01 0. -1.
         -5    1    3    3    0  502  0.34899815715E+02 -0.31086863182E+01 -0.55355966811E+03  0.55468318852E+03  0.41800000000E+01 0. -1.
        -11    1    1    2    0    0 -0.40826307547E+02 -0.51937104102E+02 -0.32625710237E+02  0.73679624992E+02  0.00000000000E+00 0. -1.
         11    1    1    2    0    0  0.45584443119E+02 -0.14738549991E+02 -0.12813603005E+02  0.49591881717E+02  0.00000000000E+00 0.  1.
</event>
<event>
 7    1  0.2394257E-009  0.1603077E+03  0.7561462E-02  0.1188350E+00
         -1   -1    0    0    0  501 -0.00000000000E+00  0.00000000000E+00  0.31774753145E+02  0.31774753145E+02  0.00000000000E+00 0.  1.
          1   -1    0    0  501    0  0.00000000000E+00 -0.00000000000E+00 -0.91558401559E+03  0.91558401559E+03  0.00000000000E+00 0. -1.
         25    2    1    2    0    0  0.10774999209E+03  0.53306393067E+02 -0.32441310852E+03  0.36788939237E+03  0.12508839955E+03 0.  0.
          5    1    3    3  502    0  0.10871030803E+03  0.85366030062E+02 -0.23328512519E+03  0.27119128340E+03  0.41800000000E+01 0. -1.
         -5    1    3    3    0  502 -0.96031594648E+00 -0.32059636996E+02 -0.91127983337E+02  0.96698108968E+02  0.41800000000E+01 0. -1.
        -11    1    1    2    0    0 -0.85763435117E+02  0.67519472478E+01 -0.35642802530E+03  0.36666318716E+03  0.00000000000E+00 0. -1.
         11    1    1    2    0    0 -0.21986556971E+02 -0.60058340315E+02 -0.20296812862E+03  0.21280618921E+03  0.00000000000E+00 0.  1.
</event>
<event>
 7    1  0.2394257E-009  0.1097088E+03  0.7561462E-02  0.1261110E+00
         -2   -1    0    0    0  501 -0.00000000000E+00  0.00000000000E+00  0.64641091398E+02  0.64641091398E+02  0.00000000000E+00 0.  1.
          2   -1    0    0  501    0  0.00000000000E+00 -0.00000000000E+00 -0.31705963659E+03  0.31705963659E+03  0.00000000000E+00 0. -1.
         25    2    1    2    0    0 -0.54116001183E+02  0.31578145073E+02 -0.22611789834E+03  0.26589531257E+03  0.12508114352E+03 0.  0.
          5    1    3    3  502    0  0.62462155540E+01  0.68293858997E+02 -0.10115811591E+03  0.12228451742E+03  0.41800000000E+01 0. -1.
         -5    1    3    3    0  502 -0.60362216737E+02 -0.36715713924E+02 -0.12495978243E+03  0.14361079514E+03  0.41800000000E+01 0. -1.
        -11    1    1    2    0    0 -0.22672432872E+01  0.97618241617E+01 -0.42810477626E+02  0.43967835945E+02  0.00000000000E+00 0. -1.
         11    1    1    2    0    0  0.56383244470E+02 -0.41339969235E+02  0.16509830772E+02  0.71837579479E+02  0.00000000000E+00 0.  1.
</event>
<event>
 7    1  0.2394257E-009  0.1596611E+03  0.7561462E-02  0.1189080E+00
         -2   -1    0    0    0  501 -0.00000000000E+00  0.00000000000E+00  0.18195488755E+02  0.18195488755E+02  0.00000000000E+00 0. -1.
          2   -1    0    0  501    0  0.00000000000E+00 -0.00000000000E+00 -0.17887243465E+04  0.17887243465E+04  0.00000000000E+00 0.  1.
         25    2    1    2    0    0 -0.14356904325E+03 -0.97397457620E+00 -0.91587393531E+03  0.93545988936E+03  0.12508845040E+03 0.  0.
          5    1    3    3  502    0 -0.13669005271E+03  0.81817703937E+01 -0.91261532094E+03  0.92284089002E+03  0.41800000000E+01 0.  1.
         -5    1    3    3    0  502 -0.68789905428E+01 -0.91557449699E+01 -0.32586143686E+01  0.12618999344E+02  0.41800000000E+01 0.  1.
        -11    1    1    2    0    0  0.15104506859E+02 -0.33820015443E+02 -0.20325379357E+03  0.20660117176E+03  0.00000000000E+00 0.  1.
         11    1    1    2    0    0  0.12846453639E+03  0.34793990019E+02 -0.65140112882E+03  0.66485877409E+03  0.00000000000E+00 0. -1.
</event>
<event>
 7    1  0.2394257E-009  0.8052472E+02  0.7561462E-02  0.1327569E+00
         -1   -1    0    0    0  501 -0.00000000000E+00  0.00000000000E+00  0.45384456643E+03  0.45384456643E+03  0.00000000000E+00 0.  1.
          1   -1    0    0  501    0  0.00000000000E+00 -0.00000000000E+00 -0.29081267306E+02  0.29081267306E+02  0.00000000000E+00 0. -1.
         25    2    1    2    0    0 -0.11669106304E+02 -0.13283811260E+02  0.31266540734E+03  0.33722213895E+03  0.12508591594E+03 0.  0.
          5    1    3    3  502    0  0.25174622154E+02 -0.50684385571E+02  0.76462762079E+02  0.95219194105E+02  0.41800000000E+01 0. -1.
         -5    1    3    3    0  502 -0.36843728458E+02  0.37400574310E+02  0.23620264526E+03  0.24200294485E+03  0.41800000000E+01 0. -1.
        -11    1    1    2    0    0 -0.14004297600E+02  0.20628987750E+02  0.11605986355E+03  0.11870790797E+03  0.00000000000E+00 0.  1.
         11    1    1    2    0    0  0.25673403904E+02 -0.73451764896E+01 -0.39619717655E+01  0.26995786818E+02  0.00000000000E+00 0. -1.
</event>
<event>
 7    1  0.2394257E-009  0.7982628E+02  0.7561462E-02  0.1329545E+00
          2   -1    0    0  501    0  0.00000000000E+00  0.00000000000E+00  0.13499574973E+03  0.13499574973E+03  0.00000000000E+00 0. -1.
         -2   -1    0    0    0  501 -0.00000000000E+00 -0.00000000000E+00 -0.94064401310E+02  0.94064401310E+02  0.00000000000E+00 0.  1.
         25    2    1    2    0    0 -0.19318519614E+02 -0.41387983960E+01  0.48280804294E+02  0.13552957149E+03  0.12508754467E+03 0.  0.
          5    1    3    3  502    0 -0.17910731440E+02 -0.33095475718E+02 -0.32313998421E+02  0.49777220771E+02  0.41800000000E+01 0. -1.
         -5    1    3    3    0  502 -0.14077881738E+01  0.28956677323E+02  0.80594802715E+02  0.85752350718E+02  0.41800000000E+01 0. -1.
        -11    1    1    2    0    0  0.45676578191E+02 -0.25921826613E+02  0.16699303754E+01  0.52545975656E+02  0.00000000000E+00 0. -1.
         11    1    1    2    0    0 -0.26358058577E+02  0.30060625009E+02 -0.90193862514E+01  0.40984603893E+02  0.00000000000E+00 0.  1.
</event>
<event>
 7    1  0.2394257E-009  0.1591076E+03  0.7561462E-02  0.1189708E+00
         -2   -1    0    0    0  501 -0.00000000000E+00  0.00000000000E+00  0.12723692091E+03  0.12723692091E+03  0.00000000000E+00 0. -1.
          2   -1    0    0  501    0  0.00000000000E+00 -0.00000000000E+00 -0.25014132290E+03  0.25014132290E+03  0.00000000000E+00 0.  1.
         25    2    1    2    0    0  0.92118163507E+02 -0.10261766952E+03 -0.99540890952E+02  0.21112435047E+03  0.12509580427E+03 0.  0.
          5    1    3    3  502    0  0.41788451404E+02  0.93829534013E+01  0.12538595127E+02  0.44821905950E+02  0.41800000000E+01 0. -1.
         -5    1    3    3    0  502  0.50329712104E+02 -0.11200062292E+03 -0.11207948608E+03  0.16630244452E+03  0.41800000000E+01 0. -1.
        -11    1    1    2    0    0 -0.49537098065E+02  0.10213240105E+02 -0.38268021523E+02  0.63424568027E+02  0.00000000000E+00 0.  1.
         11    1    1    2    0    0 -0.42581065442E+02  0.92404429415E+02  0.14904510488E+02  0.10282932530E+03  0.00000000000E+00 0. -1.
</event>
<event>
 7    1  0.2394257E-009  0.1228518E+03  0.7561462E-02  0.1238465E+00
          1   -1    0    0  501    0  0.00000000000E+00  0.00000000000E+00  0.27999935836E+03  0.27999935836E+03  0.00000000000E+00 0. -1.
         -1   -1    0    0    0  501 -0.00000000000E+00 -0.00000000000E+00 -0.70302151952E+02  0.70302151952E+02  0.00000000000E+00 0.  1.
         25    2    1    2    0    0 -0.68080588053E+02 -0.29387607545E+02  0.17672356398E+03  0.22886121108E+03  0.12509051891E+03 0.  0.
          5    1    3    3  502    0 -0.57039460814E+02 -0.69675793300E+02  0.69852075879E+02  0.11403947197E+03  0.41800000000E+01 0. -1.
         -5    1    3    3    0  502 -0.11041127239E+02  0.40288185755E+02  0.10687148810E+03  0.11482173911E+03  0.41800000000E+01 0. -1.
        -11    1    1    2    0    0  0.11281251979E+02  0.51429586049E+02  0.10629218018E+01  0.52663068370E+02  0.00000000000E+00 0.  1.
         11    1    1    2    0    0  0.56799336074E+02 -0.22041978504E+02  0.31910720618E+02  0.68777230863E+02  0.00000000000E+00 0. -1.
</event>
<event>
 7    1  0.2394257E-009  0.1056011E+03  0.7561462E-02  0.1268940E+00
          2   -1    0    0  501    0  0.00000000000E+00  0.00000000000E+00  0.77038410176E+02  0.77038410176E+02  0.00000000000E+00 0. -1.
         -2   -1    0    0    0  501 -0.00000000000E+00 -0.00000000000E+00 -0.15395311070E+03  0.15395311070E+03  0.00000000000E+00 0.  1.
         25    2    1    2    0    0  0.10243824712E+01  0.18211176173E+02 -0.52476020828E+02  0.13687171167E+03  0.12508971339E+03 0.  0.
          5    1    3    3  502    0  0.53575412166E+02 -0.21811987204E+02 -0.11803293696E+02  0.59185113978E+02  0.41800000000E+01 0.  1.
         -5    1    3    3    0  502 -0.52551029695E+02  0.40023163377E+02 -0.40672727133E+02  0.77686597693E+02  0.41800000000E+01 0.  1.
        -11    1    1    2    0    0  0.37604490960E+02  0.10319294201E+02 -0.24583324616E+02  0.46096913371E+02  0.00000000000E+00 0.  1.
         11    1    1    2    0    0 -0.38628873432E+02 -0.28530470375E+02  0.14464491788E+00  0.48022895837E+02  0.00000000000E+00 0. -1.
</event>
<event>
 7    1  0.2394257E-009  0.9574230E+02  0.7561462E-02  0.1289513E+00
         -1   -1    0    0    0  501 -0.00000000000E+00  0.00000000000E+00  0.22313897088E+02  0.22313897088E+02  0.00000000000E+00 0.  1.
          1   -1    0    0  501    0  0.00000000000E+00 -0.00000000000E+00 -0.60061750075E+03  0.60061750075E+03  0.00000000000E+00 0. -1.
         25    2    1    2    0    0  0.30500578511E+02 -0.60985939749E+01 -0.38993321881E+03  0.41068642361E+03  0.12509174741E+03 0.  0.
          5    1    3    3  502    0  0.31392465434E+02  0.40263005277E+02 -0.33402763265E+03  0.33793272741E+03  0.41800000000E+01 0.  1.
         -5    1    3    3    0  502 -0.89188692281E+00 -0.46361599252E+02 -0.55905586157E+02  0.72753696202E+02  0.41800000000E+01 0.  1.
        -11    1    1    2    0    0 -0.70428706186E+01  0.46474517929E+02 -0.12486739738E+03  0.13342169903E+03  0.00000000000E+00 0. -1.
         11    1    1    2    0    0 -0.23457707893E+02 -0.40375923955E+02 -0.63502987473E+02  0.78823275197E+02  0.00000000000E+00 0.  1.
</event>
<event>
 7    1  0.2394257E-009  0.1229395E+03  0.7561462E-02  0.1238325E+00
         -1   -1    0    0    0  501 -0.00000000000E+00  0.00000000000E+00  0.95265225067E+02  0.95265225067E+02  0.00000000000E+00 0.  1.
          1   -1    0    0  501    0  0.00000000000E+00 -0.00000000000E+00 -0.25885469669E+03  0.25885469669E+03  0.00000000000E+00 0. -1.
         25    2    1    2    0    0  0.46146648329E+02 -0.10116687107E+03 -0.11502415323E+03  0.20308310961E+03  0.12509174485E+03 0.  0.
          5    1    3    3  502    0 -0.19331361867E+01 -0.44371085557E+02  0.19974294436E+02  0.48877142790E+02  0.41800000000E+01 0.  1.
         -5    1    3    3    0  502  0.48079784516E+02 -0.56795785517E+02 -0.13499844767E+03  0.15420596682E+03  0.41800000000E+01 0.  1.
        -11    1    1    2    0    0  0.54498657218E+01  0.61280371909E+02 -0.58705464458E+02  0.85037148205E+02  0.00000000000E+00 0. -1.
         11    1    1    2    0    0 -0.51596514051E+02  0.39886499166E+02  0.10140146065E+02  0.65999663939E+02  0.00000000000E+00 0.  1.
</event>
<event>
 7    1  0.2394257E-009  0.1569986E+03  0.7561462E-02  0.1192128E+00
         -2   -1    0    0    0  501 -0.00000000000E+00  0.00000000000E+00  0.38774643668E+03  0.38774643668E+03  0.00000000000E+00 0.  1.
          2   -1    0    0  501    0  0.00000000000E+00 -0.00000000000E+00 -0.94343026343E+02  0.94343026343E+02  0.00000000000E+00 0. -1.
         25    2    1    2    0    0  0.14250183006E+03 -0.65328728493E+02  0.17309083176E+03  0.26491946714E+03  0.12508906304E+03 0.  0.
          5    1    3    3  502    0  0.99802147299E+02 -0.41945710020E+02  0.28110534841E+02  0.11192669817E+03  0.41800000000E+01 0. -1.
         -5    1    3    3    0  502  0.42699682756E+02 -0.23383018474E+02  0.14498029692E+03  0.15299276897E+03  0.41800000000E+01 0. -1.
        -11    1    1    2    0    0 -0.37454891231E+02  0.15621771305E+02 -0.10772347550E+02  0.41987522999E+02  0.00000000000E+00 0.  1.
         11    1    1    2    0    0 -0.10504693882E+03  0.49706957188E+02  0.13108492612E+03  0.17518247288E+03  0.00000000000E+00 0. -1.
</event>
<event>
 7    1  0.2394257E-009  0.1108412E+03  0.7561462E-02  0.1259020E+00
         -1   -1    0    0    0  501 -0.00000000000E+00  0.00000000000E+00  0.33222429777E+03  0.33222429777E+03  0.00000000000E+00 0.  1.
          1   -1    0    0  501    0  0.00000000000E+00 -0.00000000000E+00 -0.54088209136E+02  0.54088209136E+02  0.00000000000E+00 0. -1.
         25    2    1    2    0    0 -0.41029082881E+02 -0.53618576255E+02  0.21544847134E+03  0.25811536374E+03  0.12508860793E+03 0.  0.
          5    1    3    3  502    0 -0.79478252516E+02 -0.26146932449E+02  0.85154476290E+02  0.11945380669E+03  0.41800000000E+01 0. -1.
         -5    1    3    3    0  502  0.38449169635E+02 -0.27471643806E+02  0.13029399505E+03  0.13866155706E+03  0.41800000000E+01 0. -1.
        -11    1    1    2    0    0  0.54189810255E+02  0.26491073366E+02  0.19066578489E+01  0.60348552988E+02  0.00000000000E+00 0. -1.
         11    1    1    2    0    0 -0.13160727374E+02  0.27127502889E+02  0.60780959444E+02  0.67848590176E+02  0.00000000000E+00 0.  1.
</event>
<event>
 7    1  0.2394257E-009  0.8108044E+02  0.7561462E-02  0.1326013E+00
          2   -1    0    0  501    0  0.00000000000E+00  0.00000000000E+00  0.54490613123E+03  0.54490613123E+03  0.00000000000E+00 0. -1.
         -2   -1    0    0    0  501 -0.00000000000E+00 -0.00000000000E+00 -0.28331671445E+02  0.28331671445E+02  0.00000000000E+00 0.  1.
         25    2    1    2    0    0 -0.78206801825E+01 -0.47382714311E+02  0.19595243429E+03  0.23738541299E+03  0.12509273817E+03 0.  0.
          5    1    3    3  502    0  0.24162189685E+02 -0.53619138519E+02  0.19585060754E+03  0.20453302007E+03  0.41800000000E+01 0. -1.
         -5    1    3    3    0  502 -0.31982869867E+02  0.62364242078E+01  0.10182674899E+00  0.32852392919E+02  0.41800000000E+01 0. -1.
        -11    1    1    2    0    0  0.46722621219E+01 -0.10963426521E+02  0.22064962517E+01  0.12120040434E+02  0.00000000000E+00 0.  1.
         11    1    1    2    0    0  0.31484180606E+01  0.58346140832E+02  0.31841552925E+03  0.32373234925E+03  0.00000000000E+00 0. -1.
</event>
<event>
 7    1  0.2394257E-009  0.7174340E+02  0.7561462E-02  0.1354263E+00
          1   -1    0    0  501    0  0.00000000000E+00  0.00000000000E+00  0.36409167505E+03  0.36409167505E+03  0.00000000000E+00 0. -1.
         -1   -1    0    0    0  501 -0.00000000000E+00 -0.00000000000E+00 -0.36796374887E+02  0.36796374887E+02  0.00000000000E+00 0.  1.
         25    2    1    2    0    0 -0.12649966618E+02  0.38086112398E+02  0.20181869894E+03  0.24081260231E+03  0.12509735639E+03 0.  0.
          5    1    3    3  502    0 -0.23431477481E+02  0.17315483068E+02  0.21265821193E+03  0.21468546200E+03  0.41800000000E+01 0. -1.
         -5    1    3    3    0  502  0.10781510862E+02  0.20770629330E+02 -0.10839512989E+02  0.26127140316E+02  0.41800000000E+01 0. -1.
        -11    1    1    2    0    0  0.41594057722E+02 -0.44204754462E+02  0.11237689494E+03  0.12772115123E+03  0.00000000000E+00 0. -1.
         11    1    1    2    0    0 -0.28944091104E+02  0.61186420634E+01  0.13099706278E+02  0.32354296393E+02  0.00000000000E+00 0.  1.
</event>
<event>
 7    1  0.2394257E-009  0.3108652E+03  0.7561462E-02  0.1079932E+00
         -2   -1    0    0    0  501 -0.00000000000E+00  0.00000000000E+00  0.81288604345E+03  0.81288604345E+03  0.00000000000E+00 0. -1.
          2   -1    0    0  501    0  0.00000000000E+00 -0.00000000000E+00 -0.16451692532E+03  0.16451692532E+03  0.00000000000E+00 0.  1.
         25    2    1    2    0    0 -0.30652986649E+03  0.18114302676E+02  0.55054849956E+03  0.64268491137E+03  0.12510618658E+03 0.  0.
          5    1    3    3  502    0 -0.13248943985E+03 -0.25785456746E+02  0.34085422076E+03  0.36662980466E+03  0.41800000000E+01 0.  1.
         -5    1    3    3    0  502 -0.17404042663E+03  0.43899759422E+02  0.20969427880E+03  0.27605510671E+03  0.41800000000E+01 0.  1.
        -11    1    1    2    0    0  0.16084912381E+03 -0.13129252865E+02  0.41261030036E+01  0.16143680694E+03  0.00000000000E+00 0.  1.
         11    1    1    2    0    0  0.14568074268E+03 -0.49850498111E+01  0.93694515567E+02  0.17328125045E+03  0.00000000000E+00 0. -1.
</event>
<event>
 7    1  0.2394257E-009  0.1610664E+03  0.7561462E-02  0.1187498E+00
         -1   -1    0    0    0  501 -0.00000000000E+00  0.00000000000E+00  0.85410522467E+03  0.85410522467E+03  0.00000000000E+00 0.  1.
          1   -1    0    0  501    0  0.00000000000E+00 -0.00000000000E+00 -0.36202943684E+02  0.36202943684E+02  0.00000000000E+00 0. -1.
         25    2    1    2    0    0 -0.10915681448E+03 -0.48732274543E+02  0.60585370675E+03  0.63007998030E+03  0.12510804476E+03 0.  0.
          5    1    3    3  502    0 -0.67900459269E+02  0.36023880926E+02  0.22893753527E+03  0.24153273033E+03  0.41800000000E+01 0. -1.
         -5    1    3    3    0  502 -0.41256355211E+02 -0.84756155469E+02  0.37691617148E+03  0.38854724997E+03  0.41800000000E+01 0. -1.
        -11    1    1    2    0    0 -0.79316151879E+01  0.31457539348E+02  0.42995357313E+02  0.53861749431E+02  0.00000000000E+00 0.  1.
         11    1    1    2    0    0  0.11708842967E+03  0.17274735195E+02  0.16905321692E+03  0.20636643862E+03  0.00000000000E+00 0. -1.
</event>
<event>
 7    1  0.2465323E-009  0.9611090E+02  0.7561462E-02  0.1288693E+00
         -1   -1    0    0    0  501 -0.00000000000E+00  0.00000000000E+00  0.89259186938E+02  0.89259186938E+02  0.00000000000E+00 0.  1.
          1   -1    0    0  501    0  0.00000000000E+00 -0.00000000000E+00 -0.20477018469E+03  0.20477018469E+03  0.00000000000E+00 0. -1.
         25    2    1    2    0    0  0.47566987743E+02 -0.43530486199E+02 -0.11594793003E+03  0.18234607288E+03  0.12509454930E+03 0.  0.
          5    1    3    3  502    0 -0.10294136653E+02  0.30308009266E+02  0.10852306881E+01  0.32298526294E+02  0.41800000000E+01 0.  1.
         -5    1    3    3    0  502  0.57861124396E+02 -0.73838495466E+02 -0.11703316072E+03  0.15004754658E+03  0.41800000000E+01 0.  1.
        -11    1    1    2    0    0 -0.19415115414E+02  0.87551127570E+01 -0.43838084716E+02  0.48737833123E+02  0.00000000000E+00 0. -1.
         11    1    1    2    0    0 -0.28151872330E+02  0.34775373442E+02  0.44275016989E+02  0.62945465628E+02  0.00000000000E+00 0.  1.
</event>
<event>
 7    1  0.2394257E-009  0.1225331E+03  0.7561462E-02  0.1238976E+00
          2   -1    0    0  501    0  0.00000000000E+00  0.00000000000E+00  0.74246487809E+03  0.74246487809E+03  0.00000000000E+00 0.  1.
         -2   -1    0    0    0  501 -0.00000000000E+00 -0.00000000000E+00 -0.29392853899E+02  0.29392853899E+02  0.00000000000E+00 0. -1.
         25    2    1    2    0    0 -0.72525771642E+02  0.57211626995E+02  0.40950692322E+03  0.43803716130E+03  0.12508987447E+03 0.  0.
          5    1    3    3  502    0 -0.37771052899E+01  0.76147887173E+02  0.14282452459E+03  0.16195395787E+03  0.41800000000E+01 0. -1.
         -5    1    3    3    0  502 -0.68748666352E+02 -0.18936260178E+02  0.26668239863E+03  0.27608320343E+03  0.41800000000E+01 0. -1.
        -11    1    1    2    0    0  0.68306760558E+02 -0.39149589310E+02  0.30520864758E+03  0.31519965489E+03  0.00000000000E+00 0.  1.
         11    1    1    2    0    0  0.42190110842E+01 -0.18062037685E+02 -0.16435466155E+01  0.18620915803E+02  0.00000000000E+00 0. -1.
</event>
<event>
 7    1  0.2394257E-009  0.3345073E+03  0.7561462E-02  0.1069160E+00
         -1   -1    0    0    0  501 -0.00000000000E+00  0.00000000000E+00  0.50518067767E+02  0.50518067767E+02  0.00000000000E+00 0.  1.
          1   -1    0    0  501    0  0.00000000000E+00 -0.00000000000E+00 -0.22854931306E+04  0.22854931306E+04  0.00000000000E+00 0. -1.
         25    2    1    2    0    0 -0.16230885457E+03 -0.27879154704E+03 -0.12210506532E+04  0.12691259206E+04  0.12508802302E+03 0.  0.
          5    1    3    3  502    0 -0.49198372080E+00 -0.10428819059E+03 -0.46145094766E+03  0.47310751235E+03  0.41800000000E+01 0. -1.
         -5    1    3    3    0  502 -0.16181687085E+03 -0.17450335644E+03 -0.75959970556E+03  0.79601840820E+03  0.41800000000E+01 0. -1.
        -11    1    1    2    0    0  0.86945930632E+02  0.19738626986E+03 -0.57389298198E+03  0.61308571110E+03  0.00000000000E+00 0.  1.
         11    1    1    2    0    0  0.75362923939E+02  0.81405277171E+02 -0.44003142765E+03  0.45379956674E+03  0.00000000000E+00 0. -1.
</event>
<event>
 7    1  0.2394257E-009  0.1287802E+03  0.7561462E-02  0.1229277E+00
         -1   -1    0    0    0  501 -0.00000000000E+00  0.00000000000E+00  0.37331665527E+03  0.37331665527E+03  0.00000000000E+00 0.  1.
          1   -1    0    0  501    0  0.00000000000E+00 -0.00000000000E+00 -0.68972936535E+02  0.68972936535E+02  0.00000000000E+00 0. -1.
         25    2    1    2    0    0  0.32474696638E+02  0.11136615178E+03  0.17544060170E+03  0.24471206852E+03  0.12509023172E+03 0.  0.
          5    1    3    3  502    0  0.33314353955E+00  0.54128145977E+02  0.17028767791E+03  0.17873257347E+03  0.41800000000E+01 0. -1.
         -5    1    3    3    0  502  0.32141553098E+02  0.57238005799E+02  0.51529237885E+01  0.65979495050E+02  0.41800000000E+01 0. -1.
        -11    1    1    2    0    0 -0.33010770501E+02 -0.77937905933E+01  0.71555012712E+02  0.79186955903E+02  0.00000000000E+00 0.  1.
         11    1    1    2    0    0  0.53607386275E+00 -0.10357236118E+03  0.57348104329E+02  0.11839056739E+03  0.00000000000E+00 0. -1.
</event>
<event>
 7    1  0.2394257E-009  0.1525531E+03  0.7561462E-02  0.1197370E+00
         -1   -1    0    0    0  501 -0.00000000000E+00  0.00000000000E+00  0.34503019667E+02  0.34503019667E+02  0.00000000000E+00 0.  1.
          1   -1    0    0  501    0  0.00000000000E+00 -0.00000000000E+00 -0.12402689130E+04  0.12402689130E+04  0.00000000000E+00 0. -1.
         25    2    1    2    0    0  0.39588699192E+02 -0.10647160566E+03 -0.10372928441E+04  0.10509644792E+04  0.12508566730E+03 0.  0.
          5    1    3    3  502    0  0.37610021994E+01 -0.12346757760E+03 -0.65178751383E+03  0.66340245963E+03  0.41800000000E+01 0.  1.
         -5    1    3    3    0  502  0.35827696993E+02  0.16995971937E+02 -0.38550533030E+03  0.38756201958E+03  0.41800000000E+01 0.  1.
        -11    1    1    2    0    0 -0.66234598826E+02  0.82465106976E+02 -0.14978354170E+03  0.18336473302E+03  0.00000000000E+00 0. -1.
         11    1    1    2    0    0  0.26645899634E+02  0.24006498686E+02 -0.18689507517E+02  0.40442720454E+02  0.00000000000E+00 0.  1.
</event>
<event>
 7    1  0.2394257E-009  0.9649514E+02  0.7561462E-02  0.1287844E+00
          3   -1    0    0  501    0  0.00000000000E+00  0.00000000000E+00  0.24741373219E+02  0.24741373219E+02  0.00000000000E+00 0. -1.
         -3   -1    0    0    0  501 -0.00000000000E+00 -0.00000000000E+00 -0.48061801869E+03  0.48061801869E+03  0.00000000000E+00 0.  1.
         25    2    1    2    0    0 -0.48189655378E+01 -0.29487013789E+02 -0.27306464478E+03  0.30183508730E+03  0.12508962100E+03 0.  0.
          5    1    3    3  502    0 -0.13155186873E+02  0.42724332198E+02 -0.50060548250E+02  0.67245508360E+02  0.41800000000E+01 0. -1.
         -5    1    3    3    0  502  0.83362213354E+01 -0.72211345987E+02 -0.22300409653E+03  0.23458957894E+03  0.41800000000E+01 0. -1.
        -11    1    1    2    0    0 -0.17767254469E+02 -0.16372571044E+02 -0.12063532683E+03  0.12303096559E+03  0.00000000000E+00 0.  1.
         11    1    1    2    0    0  0.22586220006E+02  0.45859584833E+02 -0.62176673851E+02  0.80493339019E+02  0.00000000000E+00 0. -1.
</event>
<event>
 7    1  0.2394257E-009  0.1985901E+03  0.7561462E-02  0.1150934E+00
         -2   -1    0    0    0  501 -0.00000000000E+00  0.00000000000E+00  0.41628592438E+02  0.41628592438E+02  0.00000000000E+00 0.  1.
          2   -1    0    0  501    0  0.00000000000E+00 -0.00000000000E+00 -0.11492258995E+04  0.11492258995E+04  0.00000000000E+00 0. -1.
         25    2    1    2    0    0  0.18423805700E+03 -0.50009840115E+02 -0.57030438461E+03  0.61427958291E+03  0.12509064364E+03 0.  0.
          5    1    3    3  502    0  0.12490578694E+03 -0.35954332671E+02 -0.19730906222E+03  0.23631019462E+03  0.41800000000E+01 0.  1.
         -5    1    3    3    0  502  0.59332270061E+02 -0.14055507444E+02 -0.37299532239E+03  0.37796938829E+03  0.41800000000E+01 0.  1.
        -11    1    1    2    0    0 -0.28523612491E+02 -0.20456944772E+02 -0.58891289795E+02  0.68558493804E+02  0.00000000000E+00 0.  1.
         11    1    1    2    0    0 -0.15571444451E+03  0.70466784887E+02 -0.47840163266E+03  0.50801641522E+03  0.00000000000E+00 0. -1.
</event>
<event>
 7    1  0.2394257E-009  0.2247332E+03  0.7561462E-02  0.1130403E+00
          2   -1    0    0  501    0  0.00000000000E+00  0.00000000000E+00  0.68271604807E+03  0.68271604807E+03  0.00000000000E+00 0.  1.
         -2   -1    0    0    0  501 -0.00000000000E+00 -0.00000000000E+00 -0.10917574682E+03  0.10917574682E+03  0.00000000000E+00 0. -1.
         25    2    1    2    0    0  0.15185529936E+03 -0.14082437703E+03  0.90059493052E+02  0.25816640128E+03  0.12509053263E+03 0.  0.
          5    1    3    3  502    0 -0.17528433655E+02  0.17850099475E+01  0.17336318092E+02  0.25068956338E+02  0.41800000000E+01 0. -1.
         -5    1    3    3    0  502  0.16938373302E+03 -0.14260938698E+03  0.72723174960E+02  0.23309744495E+03  0.41800000000E+01 0. -1.
        -11    1    1    2    0    0 -0.11768959176E+03  0.87862102274E+02  0.41704336312E+03  0.44214901985E+03  0.00000000000E+00 0.  1.
         11    1    1    2    0    0 -0.34165707600E+02  0.52962274754E+02  0.66437445079E+02  0.91576373763E+02  0.00000000000E+00 0. -1.
</event>
<event>
 7    1  0.3316958E-009  0.2057556E+03  0.7561462E-02  0.1144972E+00
          2   -1    0    0  501    0  0.00000000000E+00  0.00000000000E+00  0.97182442110E+03  0.97182442110E+03  0.00000000000E+00 0. -1.
         -2   -1    0    0    0  501 -0.00000000000E+00 -0.00000000000E+00 -0.50185784802E+02  0.50185784802E+02  0.00000000000E+00 0.  1.
         25    2    1    2    0    0  0.84395662900E+02 -0.17118051808E+03  0.42728468796E+03  0.48440238326E+03  0.12509223259E+03 0.  0.
          5    1    3    3  502    0 -0.13878396453E+02 -0.93862275845E+02  0.24985585978E+03  0.26729788586E+03  0.41800000000E+01 0. -1.
         -5    1    3    3    0  502  0.98274059353E+02 -0.77318242239E+02  0.17742882818E+03  0.21710449740E+03  0.41800000000E+01 0. -1.
        -11    1    1    2    0    0 -0.53946454712E+02  0.92875825027E+02  0.15891706780E+03  0.19180921065E+03  0.00000000000E+00 0.  1.
         11    1    1    2    0    0 -0.30449208188E+02  0.78304693057E+02  0.33543688053E+03  0.34579861199E+03  0.00000000000E+00 0. -1.
</event>
<event>
 7    1  0.2394257E-009  0.1156125E+03  0.7561462E-02  0.1250516E+00
          1   -1    0    0  501    0  0.00000000000E+00  0.00000000000E+00  0.52403694749E+03  0.52403694749E+03  0.00000000000E+00 0. -1.
         -1   -1    0    0    0  501 -0.00000000000E+00 -0.00000000000E+00 -0.30754164157E+02  0.30754164157E+02  0.00000000000E+00 0.  1.
         25    2    1    2    0    0 -0.70898448570E+01  0.41126099859E+02  0.16379142881E+03  0.21027703381E+03  0.12508867577E+03 0.  0.
          5    1    3    3  502    0 -0.49333607023E+02  0.65860293405E+02  0.95180824751E+02  0.12588981225E+03  0.41800000000E+01 0.  1.
         -5    1    3    3    0  502  0.42243762166E+02 -0.24734193546E+02  0.68610604063E+02  0.84387221558E+02  0.41800000000E+01 0.  1.
        -11    1    1    2    0    0  0.46002286793E+02 -0.39695593966E+02  0.22289273412E+03  0.23102623551E+03  0.00000000000E+00 0.  1.
         11    1    1    2    0    0 -0.38912441936E+02 -0.14305058927E+01  0.10659862039E+03  0.11348784232E+03  0.00000000000E+00 0. -1.
</event>
<event>
 7    1  0.2394257E-009  0.9656248E+02  0.7561462E-02  0.1287695E+00
         -1   -1    0    0    0  501 -0.00000000000E+00  0.00000000000E+00  0.38318483399E+03  0.38318483399E+03  0.00000000000E+00 0.  1.
          1   -1    0    0  501    0  0.00000000000E+00 -0.00000000000E+00 -0.35578110669E+02  0.35578110669E+02  0.00000000000E+00 0. -1.
         25    2    1    2    0    0 -0.20421957718E+01  0.40589596316E+02  0.22204676873E+03  0.25807769948E+03  0.12509054950E+03 0.  0.
          5    1    3    3  502    0  0.54949128549E+02  0.40904777984E+02  0.15789151416E+03  0.17216216261E+03  0.41800000000E+01 0.  1.
         -5    1    3    3    0  502 -0.56991324320E+02 -0.31518166784E+00  0.64155254573E+02  0.85915536876E+02  0.41800000000E+01 0.  1.
        -11    1    1    2    0    0 -0.18964759627E+02 -0.42215676887E+02  0.13099151728E+03  0.13892661042E+03  0.00000000000E+00 0.  1.
         11    1    1    2    0    0  0.21006955399E+02  0.16260805715E+01 -0.54315626932E+01  0.21758634756E+02  0.00000000000E+00 0. -1.
</event>
<event>
 7    1  0.2394257E-009  0.8198152E+02  0.7561462E-02  0.1323520E+00
         -2   -1    0    0    0  501 -0.00000000000E+00  0.00000000000E+00  0.74320704706E+02  0.74320704706E+02  0.00000000000E+00 0.  1.
          2   -1    0    0  501    0  0.00000000000E+00 -0.00000000000E+00 -0.16963828763E+03  0.16963828763E+03  0.00000000000E+00 0. -1.
         25    2    1    2    0    0  0.13233110869E+02  0.11226392250E+02 -0.31157730459E+02  0.13008880454E+03  0.12510453946E+03 0.  0.
          5    1    3    3  502    0 -0.11747602172E+02  0.65149927732E+02 -0.21538089947E+02  0.69741529656E+02  0.41800000000E+01 0.  1.
         -5    1    3    3    0  502  0.24980713041E+02 -0.53923535481E+02 -0.96196405123E+01  0.60347274888E+02  0.41800000000E+01 0.  1.
        -11    1    1    2    0    0  0.80069734614E+01 -0.14500235936E+02  0.20597015539E+02  0.26431146690E+02  0.00000000000E+00 0.  1.
         11    1    1    2    0    0 -0.21240084331E+02  0.32738436860E+01 -0.84756868007E+02  0.87439041104E+02  0.00000000000E+00 0. -1.
</event>
<event>
 7    1  0.2394257E-009  0.5575721E+02  0.7561462E-02  0.1416552E+00
         -1   -1    0    0    0  501 -0.00000000000E+00  0.00000000000E+00  0.98354844293E+02  0.98354844293E+02  0.00000000000E+00 0.  1.
          1   -1    0    0  501    0  0.00000000000E+00 -0.00000000000E+00 -0.14913886885E+03  0.14913886885E+03  0.00000000000E+00 0. -1.
         25    2    1    2    0    0  0.52129355140E+02 -0.14637709391E+02 -0.26244317569E+02  0.13880476754E+03  0.12508503941E+03 0.  0.
          5    1    3    3  502    0  0.37854578649E+02 -0.94138101182E+01  0.48520286610E+02  0.62396150188E+02  0.41800000000E+01 0.  1.
         -5    1    3    3    0  502  0.14274776491E+02 -0.52238992723E+01 -0.74764604178E+02  0.76408617350E+02  0.41800000000E+01 0.  1.
        -11    1    1    2    0    0 -0.11134979498E+02  0.10519089931E+02 -0.55229388064E+02  0.57314259371E+02  0.00000000000E+00 0. -1.
         11    1    1    2    0    0 -0.40994375642E+02  0.41186194595E+01  0.30689681079E+02  0.51374686230E+02  0.00000000000E+00 0.  1.
</event>
<event>
 7    1  0.2848090E-009  0.2338295E+03  0.7561462E-02  0.1123973E+00
          2   -1    0    0  501    0  0.00000000000E+00  0.00000000000E+00  0.81545287056E+03  0.81545287056E+03  0.00000000000E+00 0. -1.
         -2   -1    0    0    0  501 -0.00000000000E+00 -0.00000000000E+00 -0.87144232170E+02  0.87144232170E+02  0.00000000000E+00 0.  1.
         25    2    1    2    0    0  0.10846753017E+03  0.19348191725E+03  0.20479395722E+03  0.32678524400E+03  0.12509026094E+03 0.  0.
          5    1    3    3  502    0 -0.50838340393E+01  0.14297535263E+02 -0.14677416319E+02  0.21521241436E+02  0.41800000000E+01 0. -1.
         -5    1    3    3    0  502  0.11355136420E+03  0.17918438199E+03  0.21947137354E+03  0.30526400257E+03  0.41800000000E+01 0. -1.
        -11    1    1    2    0    0 -0.10134468246E+03 -0.88578927093E+02  0.28935962969E+03  0.31913314821E+03  0.00000000000E+00 0.  1.
         11    1    1    2    0    0 -0.71228477049E+01 -0.10490299016E+03  0.23415505147E+03  0.25667871052E+03  0.00000000000E+00 0. -1.
</event>
<event>
 7    1  0.2394257E-009  0.7799130E+02  0.7561462E-02  0.1334850E+00
          2   -1    0    0  501    0  0.00000000000E+00  0.00000000000E+00  0.10947989578E+03  0.10947989578E+03  0.00000000000E+00 0. -1.
         -2   -1    0    0    0  501 -0.00000000000E+00 -0.00000000000E+00 -0.14042674798E+03  0.14042674798E+03  0.00000000000E+00 0.  1.
         25    2    1    2    0    0  0.37686911628E+02  0.25630898521E+02  0.16966570157E+02  0.13421207108E+03  0.12509104386E+03 0.  0.
          5    1    3    3  502    0 -0.10146599601E+02  0.34276372110E+02 -0.43538097168E+02  0.56487710819E+02  0.41800000000E+01 0. -1.
         -5    1    3    3    0  502  0.47833511229E+02 -0.86454735889E+01  0.60504667325E+02  0.77724360262E+02  0.41800000000E+01 0. -1.
        -11    1    1    2    0    0 -0.41329724787E+02 -0.39315941693E+02 -0.69478539751E+02  0.89895255204E+02  0.00000000000E+00 0.  1.
         11    1    1    2    0    0  0.36428131591E+01  0.13685043172E+02  0.21565117390E+02  0.25799317479E+02  0.00000000000E+00 0. -1.
</event>
<event>
 7    1  0.2394257E-009  0.1100873E+03  0.7561462E-02  0.1260408E+00
         -4   -1    0    0    0  501 -0.00000000000E+00  0.00000000000E+00  0.29052389006E+03  0.29052389006E+03  0.00000000000E+00 0.  1.
          4   -1    0    0  501    0  0.00000000000E+00 -0.00000000000E+00 -0.63340741987E+02  0.63340741987E+02  0.00000000000E+00 0. -1.
         25    2    1    2    0    0 -0.60543989785E+02  0.34900068839E+02  0.69096107406E+02  0.15907500393E+03  0.12508795031E+03 0.  0.
          5    1    3    3  502    0 -0.71647842393E+02 -0.27584356451E+02  0.53257883957E+02  0.93531730679E+02  0.41800000000E+01 0.  1.
         -5    1    3    3    0  502  0.11103852608E+02  0.62484425291E+02  0.15838223449E+02  0.65543273252E+02  0.41800000000E+01 0.  1.
        -11    1    1    2    0    0  0.15228814786E+02  0.80714229280E+01 -0.67569295063E+01  0.18512718985E+02  0.00000000000E+00 0. -1.
         11    1    1    2    0    0  0.45315174999E+02 -0.42971491767E+02  0.16484397017E+03  0.17627690913E+03  0.00000000000E+00 0.  1.
</event>
<event>
 7    1  0.2394257E-009  0.1157711E+03  0.7561462E-02  0.1250241E+00
         -1   -1    0    0    0  501 -0.00000000000E+00  0.00000000000E+00  0.27786253766E+02  0.27786253766E+02  0.00000000000E+00 0.  1.
          1   -1    0    0  501    0  0.00000000000E+00 -0.00000000000E+00 -0.11040854869E+04  0.11040854869E+04  0.00000000000E+00 0. -1.
         25    2    1    2    0    0  0.84645620900E-01 -0.10008618946E+03 -0.86461302419E+03  0.87932945980E+03  0.12508942717E+03 0.  0.
          5    1    3    3  502    0  0.15776237123E+02 -0.62309479319E+02 -0.14643334319E+03  0.15997361429E+03  0.41800000000E+01 0.  1.
         -5    1    3    3    0  502 -0.15691591502E+02 -0.37776710145E+02 -0.71817968099E+03  0.71935584551E+03  0.41800000000E+01 0.  1.
        -11    1    1    2    0    0 -0.38122180714E+02  0.43650987255E+02 -0.14954886468E+03  0.16038569849E+03  0.00000000000E+00 0. -1.
         11    1    1    2    0    0  0.38037535093E+02  0.56435202208E+02 -0.62137344270E+02  0.92156582387E+02  0.00000000000E+00 0.  1.
</event>
<event>
 7    1  0.2394257E-009  0.1106905E+03  0.7561462E-02  0.1259296E+00
         -2   -1    0    0    0  501 -0.00000000000E+00  0.00000000000E+00  0.47131579660E+02  0.47131579660E+02  0.00000000000E+00 0.  1.
          2   -1    0    0  501    0  0.00000000000E+00 -0.00000000000E+00 -0.40997966608E+03  0.40997966608E+03  0.00000000000E+00 0. -1.
         25    2    1    2    0    0  0.43158826070E+02  0.24621163873E+02 -0.80523408212E+02  0.15684611455E+03  0.12509116037E+03 0.  0.
          5    1    3    3  502    0  0.73108514913E+02 -0.10256408265E+02 -0.13038312706E+02  0.75083412692E+02  0.41800000000E+01 0. -1.
         -5    1    3    3    0  502 -0.29949688843E+02  0.34877572138E+02 -0.67485095506E+02  0.81762701860E+02  0.41800000000E+01 0. -1.
        -11    1    1    2    0    0 -0.58021865311E+02 -0.46823536133E+02 -0.22472129256E+03  0.23676705793E+03  0.00000000000E+00 0.  1.
         11    1    1    2    0    0  0.14863039242E+02  0.22202372260E+02 -0.57603385644E+02  0.63498073255E+02  0.00000000000E+00 0. -1.
</event>
<event>
 7    1  0.2394257E-009  0.9283736E+02  0.7561462E-02  0.1296123E+00
          1   -1    0    0  501    0  0.00000000000E+00  0.00000000000E+00  0.45008097448E+03  0.45008097448E+03  0.00000000000E+00 0. -1.
         -1   -1    0    0    0  501 -0.00000000000E+00 -0.00000000000E+00 -0.26729898488E+02  0.26729898488E+02  0.00000000000E+00 0.  1.
         25    2    1    2    0    0 -0.14170315142E+02  0.35864145157E+01  0.20350215328E+03  0.23931947789E+03  0.12508807261E+03 0.  0.
          5    1    3    3  502    0  0.10674035510E+02  0.47763639344E+02  0.27876811813E+02  0.56479105112E+02  0.41800000000E+01 0.  1.
         -5    1    3    3    0  502 -0.24844350652E+02 -0.44177224828E+02  0.17562534147E+03  0.18284037278E+03  0.41800000000E+01 0.  1.
        -11    1    1    2    0    0  0.48783306017E+02  0.74935537335E+01  0.89913022593E+02  0.10256859132E+03  0.00000000000E+00 0.  1.
         11    1    1    2    0    0 -0.34612990875E+02 -0.11079968249E+02  0.12993590012E+03  0.13492280376E+03  0.00000000000E+00 0. -1.
</event>
<event>
 7    1  0.2394257E-009  0.1164030E+03  0.7561462E-02  0.1249152E+00
         -2   -1    0    0    0  501 -0.00000000000E+00  0.00000000000E+00  0.40213541730E+02  0.40213541730E+02  0.00000000000E+00 0.  1.
          2   -1    0    0  501    0  0.00000000000E+00 -0.00000000000E+00 -0.54059469261E+03  0.54059469261E+03  0.00000000000E+00 0. -1.
         25    2    1    2    0    0  0.66795409522E+02 -0.49184526925E+02 -0.16696558181E+03  0.22451149083E+03  0.12508860693E+03 0.  0.
          5    1    3    3  502    0 -0.12723877816E+02 -0.22548606670E+02 -0.13025891064E+03  0.13287284497E+03  0.41800000000E+01 0.  1.
         -5    1    3    3    0  502  0.79519287338E+02 -0.26635920255E+02 -0.36706671170E+02  0.91638645860E+02  0.41800000000E+01 0.  1.
        -11    1    1    2    0    0 -0.87761868571E+02  0.51109317835E+02 -0.24122187276E+03  0.26172944015E+03  0.00000000000E+00 0. -1.
         11    1    1    2    0    0  0.20966459049E+02 -0.19247909099E+01 -0.92193696312E+02  0.94567303359E+02  0.00000000000E+00 0.  1.
</event>
<event>
 7    1  0.2394257E-009  0.1212667E+03  0.7561462E-02  0.1241022E+00
          1   -1    0    0  501    0  0.00000000000E+00  0.00000000000E+00  0.35366192069E+02  0.35366192069E+02  0.00000000000E+00 0. -1.
         -1   -1    0    0    0  501 -0.00000000000E+00 -0.00000000000E+00 -0.45154465263E+03  0.45154465263E+03  0.00000000000E+00 0.  1.
         25    2    1    2    0    0 -0.62140200906E+02 -0.58413685331E+01 -0.20096489995E+03  0.24480571370E+03  0.12508964902E+03 0.  0.
          5    1    3    3  502    0  0.34380817123E+02 -0.52470061371E+01 -0.21819738985E+02  0.41269178194E+02  0.41800000000E+01 0.  1.
         -5    1    3    3    0  502 -0.96521018028E+02 -0.59436239602E+00 -0.17914516097E+03  0.20353653550E+03  0.41800000000E+01 0.  1.
        -11    1    1    2    0    0  0.38389697335E+02 -0.42352823495E+02 -0.11214047025E+03  0.12586904142E+03  0.00000000000E+00 0.  1.
         11    1    1    2    0    0  0.23750503571E+02  0.48194192028E+02 -0.10307309036E+03  0.11623608958E+03  0.00000000000E+00 0. -1.
</event>
<event>
 7    1  0.2394257E-009  0.1146385E+03  0.7561462E-02  0.1252213E+00
          2   -1    0    0  501    0  0.00000000000E+00  0.00000000000E+00  0.21678640754E+03  0.21678640754E+03  0.00000000000E+00 0. -1.
         -2   -1    0    0    0  501 -0.00000000000E+00 -0.00000000000E+00 -0.65256031694E+02  0.65256031694E+02  0.00000000000E+00 0.  1.
         25    2    1    2    0    0 -0.27437562835E+01  0.37256645776E+02  0.11937072632E+03  0.17689438736E+03  0.12508664247E+03 0.  0.
          5    1    3    3  502    0 -0.12514865852E+01  0.83048245842E+02  0.64211476574E+02  0.10506742349E+03  0.41800000000E+01 0. -1.
         -5    1    3    3    0  502 -0.14922696983E+01 -0.45791600065E+02  0.55159249742E+02  0.71826963861E+02  0.41800000000E+01 0. -1.
        -11    1    1    2    0    0  0.34325058362E+02 -0.54286383103E+02  0.20388247145E+02  0.67386212563E+02  0.00000000000E+00 0. -1.
         11    1    1    2    0    0 -0.31581302078E+02  0.17029737327E+02  0.11771402387E+02  0.37761839316E+02  0.00000000000E+00 0.  1.
</event>
<event>
 7    1  0.2394257E-009  0.1488322E+03  0.7561462E-02  0.1201915E+00
         -1   -1    0    0    0  501 -0.00000000000E+00  0.00000000000E+00  0.19711987751E+03  0.19711987751E+03  0.00000000000E+00 0.  1.
          1   -1    0    0  501    0  0.00000000000E+00 -0.00000000000E+00 -0.14017558700E+03  0.14017558700E+03  0.00000000000E+00 0. -1.
         25    2    1    2    0    0  0.85552185477E+02  0.87997743002E+02  0.55816249239E+02  0.18391591847E+03  0.12508729821E+03 0.  0.
          5    1    3    3  502    0  0.11598291989E+03  0.81283465174E+02  0.34200680926E+02  0.14576075738E+03  0.41800000000E+01 0. -1.
         -5    1    3    3    0  502 -0.30430734415E+02  0.67142778274E+01  0.21615568313E+02  0.38155161083E+02  0.41800000000E+01 0. -1.
        -11    1    1    2    0    0 -0.77414072497E+02 -0.68370212585E+02 -0.37016617266E+02  0.10971624558E+03  0.00000000000E+00 0. -1.
         11    1    1    2    0    0 -0.81381129801E+01 -0.19627530417E+02  0.38144658536E+02  0.43663300470E+02  0.00000000000E+00 0.  1.
</event>
<event>
 7    1  0.2394257E-009  0.9310395E+02  0.7561462E-02  0.1295504E+00
          2   -1    0    0  501    0  0.00000000000E+00  0.00000000000E+00  0.26723019326E+03  0.26723019326E+03  0.00000000000E+00 0.  1.
         -2   -1    0    0    0  501 -0.00000000000E+00 -0.00000000000E+00 -0.10830473205E+03  0.10830473205E+03  0.00000000000E+00 0. -1.
         25    2    1    2    0    0  0.39629851837E+02  0.23597690772E+02 -0.50408163162E+02  0.14252777058E+03  0.12508319753E+03 0.  0.
          5    1    3    3  502    0 -0.33276450748E+01  0.50285218984E+02 -0.71499142331E+02  0.87574403933E+02  0.41800000000E+01 0. -1.
         -5    1    3    3    0  502  0.42957496912E+02 -0.26687528212E+02  0.21090979169E+02  0.54953366642E+02  0.41800000000E+01 0. -1.
        -11    1    1    2    0    0 -0.54212684956E+02  0.32842927342E+01  0.61525105952E+02  0.82067901467E+02  0.00000000000E+00 0. -1.
         11    1    1    2    0    0  0.14582833119E+02 -0.26881983506E+02  0.14780851843E+03  0.15093925327E+03  0.00000000000E+00 0.  1.
</event>
<event>
 7    1  0.2394257E-009  0.7373075E+02  0.7561462E-02  0.1347847E+00
         -1   -1    0    0    0  501 -0.00000000000E+00  0.00000000000E+00  0.25096403541E+03  0.25096403541E+03  0.00000000000E+00 0.  1.
          1   -1    0    0  501    0  0.00000000000E+00 -0.00000000000E+00 -0.61152651322E+02  0.61152651322E+02  0.00000000000E+00 0. -1.
         25    2    1    2    0    0  0.81891071307E+01  0.24166756240E+02  0.37241668681E+02  0.13298853737E+03  0.12509162883E+03 0.  0.
          5    1    3    3  502    0  0.19698364069E+02 -0.15135840528E+02  0.73770046591E+02  0.77952622724E+02  0.41800000000E+01 0. -1.
         -5    1    3    3    0  502 -0.11509256938E+02  0.39302596768E+02 -0.36528377909E+02  0.55035914644E+02  0.41800000000E+01 0. -1.
        -11    1    1    2    0    0  0.34291886747E+02 -0.16020195613E+02  0.27486348469E+02  0.46776912214E+02  0.00000000000E+00 0. -1.
         11    1    1    2    0    0 -0.42480993878E+02 -0.81465606266E+01  0.12508336694E+03  0.13235123715E+03  0.00000000000E+00 0.  1.
</event>
<event>
 7    1  0.2394257E-009  0.1194405E+03  0.7561462E-02  0.1244023E+00
          1   -1    0    0  501    0  0.00000000000E+00  0.00000000000E+00  0.52647334572E+02  0.52647334572E+02  0.00000000000E+00 0. -1.
         -1   -1    0    0    0  501 -0.00000000000E+00 -0.00000000000E+00 -0.41006316200E+03  0.41006316200E+03  0.00000000000E+00 0.  1.
         25    2    1    2    0    0  0.69317207274E+02 -0.16037219022E+02 -0.30826353484E+03  0.34020028020E+03  0.12509099137E+03 0.  0.
          5    1    3    3  502    0  0.94634261638E+02 -0.30303258375E+02 -0.28756663998E+03  0.30427943699E+03  0.41800000000E+01 0.  1.
         -5    1    3    3    0  502 -0.25317054364E+02  0.14266039353E+02 -0.20696894853E+02  0.35920843212E+02  0.41800000000E+01 0.  1.
        -11    1    1    2    0    0 -0.78629602267E+02 -0.12888327071E+02 -0.45887436423E+02  0.91947703336E+02  0.00000000000E+00 0.  1.
         11    1    1    2    0    0  0.93123949929E+01  0.28925546093E+02 -0.32648561717E+01  0.30562513036E+02  0.00000000000E+00 0. -1.
</event>
<event>
 7    1  0.2394257E-009  0.9501209E+02  0.7561462E-02  0.1291149E+00
          2   -1    0    0  501    0  0.00000000000E+00  0.00000000000E+00  0.20059932160E+03  0.20059932160E+03  0.00000000000E+00 0. -1.
         -2   -1    0    0    0  501 -0.00000000000E+00 -0.00000000000E+00 -0.63847758090E+02  0.63847758090E+02  0.00000000000E+00 0.  1.
         25    2    1    2    0    0  0.13716022977E+02 -0.11117761756E+02  0.10640929483E+03  0.16517832121E+03  0.12509678597E+03 0.  0.
          5    1    3    3  502    0 -0.40085715421E+02 -0.34984500197E+02  0.13391077738E+02  0.55023387735E+02  0.41800000000E+01 0. -1.
         -5    1    3    3    0  502  0.53801738399E+02  0.23866738441E+02  0.93018217091E+02  0.11015493348E+03  0.41800000000E+01 0. -1.
        -11    1    1    2    0    0  0.27725036280E+02  0.21315364719E+02  0.42360831287E+02  0.54931433962E+02  0.00000000000E+00 0. -1.
         11    1    1    2    0    0 -0.41441059257E+02 -0.10197602963E+02 -0.12018562602E+02  0.44337324520E+02  0.00000000000E+00 0.  1.
</event>
<event>
 7    1  0.2394257E-009  0.3851059E+03  0.7561462E-02  0.1049063E+00
          1   -1    0    0  501    0  0.00000000000E+00  0.00000000000E+00  0.70545642175E+03  0.70545642175E+03  0.00000000000E+00 0. -1.
         -1   -1    0    0    0  501 -0.00000000000E+00 -0.00000000000E+00 -0.22989298120E+03  0.22989298120E+03  0.00000000000E+00 0.  1.
         25    2    1    2    0    0  0.34672034253E+03  0.14827765212E+03  0.13644776025E+03  0.42007895427E+03  0.12508828282E+03 0.  0.
          5    1    3    3  502    0  0.31877087890E+03  0.11519637387E+03  0.79073959205E+02  0.34807361464E+03  0.41800000000E+01 0.  1.
         -5    1    3    3    0  502  0.27949463638E+02  0.33081278256E+02  0.57373801049E+02  0.72005339631E+02  0.41800000000E+01 0.  1.
        -11    1    1    2    0    0 -0.33517423634E+03 -0.11802176906E+03  0.31542198223E+03  0.47514411872E+03  0.00000000000E+00 0.  1.
         11    1    1    2    0    0 -0.11546106192E+02 -0.30255883059E+02  0.23693698069E+02  0.40126329960E+02  0.00000000000E+00 0. -1.
</event>
<event>
 7    1  0.2394257E-009  0.1721914E+03  0.7561462E-02  0.1175582E+00
          1   -1    0    0  501    0  0.00000000000E+00  0.00000000000E+00  0.85717314553E+02  0.85717314553E+02  0.00000000000E+00 0. -1.
         -1   -1    0    0    0  501 -0.00000000000E+00 -0.00000000000E+00 -0.49753212604E+03  0.49753212604E+03  0.00000000000E+00 0.  1.
         25    2    1    2    0    0  0.14907815006E+03  0.47017813545E+02 -0.32672089522E+03  0.38318714606E+03  0.12510346083E+03 0.  0.
          5    1    3    3  502    0  0.12486469559E+03  0.60085571185E+02 -0.14985754056E+03  0.20414755186E+03  0.41800000000E+01 0. -1.
         -5    1    3    3    0  502  0.24213454473E+02 -0.13067757640E+02 -0.17686335466E+03  0.17903959419E+03  0.41800000000E+01 0. -1.
        -11    1    1    2    0    0 -0.12296234027E+03  0.13300927050E+01 -0.75451896517E+02  0.14427229449E+03  0.00000000000E+00 0.  1.
         11    1    1    2    0    0 -0.26115809793E+02 -0.48347906250E+02 -0.96420197452E+01  0.55790000042E+02  0.00000000000E+00 0. -1.
</event>
<event>
 7    1  0.2394257E-009  0.3251683E+03  0.7561462E-02  0.1073295E+00
         -1   -1    0    0    0  501 -0.00000000000E+00  0.00000000000E+00  0.20191726359E+03  0.20191726359E+03  0.00000000000E+00 0.  1.
          1   -1    0    0  501    0  0.00000000000E+00 -0.00000000000E+00 -0.65304759508E+03  0.65304759508E+03  0.00000000000E+00 0. -1.
         25    2    1    2    0    0 -0.77777055778E+02  0.30539890504E+03 -0.59145417717E+02  0.34418588143E+03  0.12509188195E+03 0.  0.
          5    1    3    3  502    0 -0.47169925080E+02  0.28350856239E+03 -0.83315634769E+02  0.29926756285E+03  0.41800000000E+01 0.  1.
         -5    1    3    3    0  502 -0.30607130698E+02  0.21890342656E+02  0.24170217052E+02  0.44918318574E+02  0.41800000000E+01 0.  1.
        -11    1    1    2    0    0  0.92721254584E+02 -0.22660452495E+03 -0.32069482982E+03  0.40347492568E+03  0.00000000000E+00 0. -1.
         11    1    1    2    0    0 -0.14944198806E+02 -0.78794380094E+02 -0.71290083949E+02  0.10730405156E+03  0.00000000000E+00 0.  1.
</event>
<event>
 7    1  0.2394257E-009  0.1186313E+03  0.7561462E-02  0.1245372E+00
          1   -1    0    0  501    0  0.00000000000E+00  0.00000000000E+00  0.15477131870E+02  0.15477131870E+02  0.00000000000E+00 0. -1.
         -1   -1    0    0    0  501 -0.00000000000E+00 -0.00000000000E+00 -0.10666028451E+04  0.10666028451E+04  0.00000000000E+00 0.  1.
         25    2    1    2    0    0 -0.62685654290E+02 -0.16054319609E+02 -0.67270965593E+03  0.68729419205E+03  0.12509113800E+03 0.  0.
          5    1    3    3  502    0 -0.67045479958E+02  0.35208539995E+02 -0.24472241026E+03  0.25620551937E+03  0.41800000000E+01 0.  1.
         -5    1    3    3    0  502  0.43598256679E+01 -0.51262859603E+02 -0.42798724567E+03  0.43108867267E+03  0.41800000000E+01 0.  1.
        -11    1    1    2    0    0 -0.11212373853E+02  0.32255524104E+02 -0.81115043818E+02  0.88010149962E+02  0.00000000000E+00 0. -1.
         11    1    1    2    0    0  0.73898028143E+02 -0.16201204496E+02 -0.29730101353E+03  0.30677563501E+03  0.00000000000E+00 0.  1.
</event>
<event>
 7    1  0.2394257E-009  0.7547373E+02  0.7561462E-02  0.1342410E+00
          1   -1    0    0  501    0  0.00000000000E+00  0.00000000000E+00  0.47616374922E+03  0.47616374922E+03  0.00000000000E+00 0. -1.
         -1   -1    0    0    0  501 -0.00000000000E+00 -0.00000000000E+00 -0.30030013734E+02  0.30030013734E+02  0.00000000000E+00 0.  1.
         25    2    1    2    0    0  0.11113940338E+01  0.35084557489E+02  0.31536597885E+03  0.34107631057E+03  0.12508072450E+03 0.  0.
          5    1    3    3  502    0  0.21819044726E+02  0.21490638587E+02  0.31442175991E+03  0.31593738900E+03  0.41800000000E+01 0.  1.
         -5    1    3    3    0  502 -0.20707650693E+02  0.13593918902E+02  0.94421894227E+00  0.25138921571E+02  0.41800000000E+01 0.  1.
        -11    1    1    2    0    0  0.41733658456E+02 -0.38814871973E+01  0.30958062748E+02  0.52107253239E+02  0.00000000000E+00 0.  1.
         11    1    1    2    0    0 -0.42845052490E+02 -0.31203070291E+02  0.99809693881E+02  0.11301019915E+03  0.00000000000E+00 0. -1.
</event>
<event>
 7    1  0.2394257E-009  0.1215974E+03  0.7561462E-02  0.1240485E+00
          2   -1    0    0  501    0  0.00000000000E+00  0.00000000000E+00  0.85264241565E+03  0.85264241565E+03  0.00000000000E+00 0. -1.
         -2   -1    0    0    0  501 -0.00000000000E+00 -0.00000000000E+00 -0.43425053095E+02  0.43425053095E+02  0.00000000000E+00 0.  1.
         25    2    1    2    0    0 -0.17076520697E+02 -0.77032426772E+02  0.74552026717E+03  0.76004772735E+03  0.12508587752E+03 0.  0.
          5    1    3    3  502    0 -0.25345010793E+02  0.24790577300E+02  0.93941546960E+02  0.10049591504E+03  0.41800000000E+01 0. -1.
         -5    1    3    3    0  502  0.82684900963E+01 -0.10182300407E+03  0.65157872021E+03  0.65955181231E+03  0.41800000000E+01 0. -1.
        -11    1    1    2    0    0  0.34804510647E+02  0.80031761070E+02  0.21104626749E+02  0.89787760923E+02  0.00000000000E+00 0.  1.
         11    1    1    2    0    0 -0.17727989950E+02 -0.29993342985E+01  0.42592468632E+02  0.46231980469E+02  0.00000000000E+00 0. -1.
</event>
<event>
 7    1  0.2394257E-009  0.1019569E+03  0.7561462E-02  0.1276234E+00
         -1   -1    0    0    0  501 -0.00000000000E+00  0.00000000000E+00  0.14854743507E+02  0.14854743507E+02  0.00000000000E+00 0.  1.
          1   -1    0    0  501    0  0.00000000000E+00 -0.00000000000E+00 -0.99356374109E+03  0.99356374109E+03  0.00000000000E+00 0. -1.
         25    2    1    2    0    0 -0.34213915992E+02  0.32632730626E+02 -0.61669319393E+03  0.63102606446E+03  0.12509161217E+03 0.  0.
          5    1    3    3  502    0 -0.73593901712E+02 -0.30810999616E+01 -0.25623858785E+03  0.26664816116E+03  0.41800000000E+01 0.  1.
         -5    1    3    3    0  502  0.39379985721E+02  0.35713830588E+02 -0.36045460608E+03  0.36437790331E+03  0.41800000000E+01 0.  1.
        -11    1    1    2    0    0 -0.79724684897E+01  0.12630229185E+02 -0.60921340986E+01  0.16130624320E+02  0.00000000000E+00 0.  1.
         11    1    1    2    0    0  0.42186384481E+02 -0.45262959811E+02 -0.35592366955E+03  0.36126179582E+03  0.00000000000E+00 0. -1.
</event>
<event>
 7    1  0.2394257E-009  0.1323561E+03  0.7561462E-02  0.1224001E+00
         -2   -1    0    0    0  501 -0.00000000000E+00  0.00000000000E+00  0.13319923864E+04  0.13319923864E+04  0.00000000000E+00 0.  1.
          2   -1    0    0  501    0  0.00000000000E+00 -0.00000000000E+00 -0.21138763784E+02  0.21138763784E+02  0.00000000000E+00 0. -1.
         25    2    1    2    0    0 -0.91391102840E+01 -0.10798408757E+03  0.97089341939E+03  0.98489817881E+03  0.12508518821E+03 0.  0.
          5    1    3    3  502    0 -0.48000067418E+02 -0.10597934893E+03  0.54981986549E+03  0.56200977373E+03  0.41800000000E+01 0. -1.
         -5    1    3    3    0  502  0.38860957134E+02 -0.20047386408E+01  0.42107355390E+03  0.42288840509E+03  0.41800000000E+01 0. -1.
        -11    1    1    2    0    0 -0.13447654899E+01  0.61147724516E+02  0.29883008427E+03  0.30502503483E+03  0.00000000000E+00 0.  1.
         11    1    1    2    0    0  0.10483875774E+02  0.46836363056E+02  0.41130118937E+02  0.63207936522E+02  0.00000000000E+00 0. -1.
</event>
<event>
 7    1  0.2394257E-009  0.1084793E+03  0.7561462E-02  0.1263412E+00
          2   -1    0    0  501    0  0.00000000000E+00  0.00000000000E+00  0.79830686045E+03  0.79830686045E+03  0.00000000000E+00 0. -1.
         -2   -1    0    0    0  501 -0.00000000000E+00 -0.00000000000E+00 -0.20672985262E+02  0.20672985262E+02  0.00000000000E+00 0.  1.
         25    2    1    2    0    0  0.56143043274E+02 -0.32820362779E+02  0.51397120223E+03  0.53295764376E+03  0.12509290866E+03 0.  0.
          5    1    3    3  502    0  0.93022737472E+02 -0.49186118782E+01  0.30737215070E+03  0.32120481605E+03  0.41800000000E+01 0.  1.
         -5    1    3    3    0  502 -0.36879694198E+02 -0.27901750901E+02  0.20659905153E+03  0.21175282770E+03  0.41800000000E+01 0.  1.
        -11    1    1    2    0    0  0.62652330212E+01  0.78897607988E+01 -0.34005535573E+01  0.10633213755E+02  0.00000000000E+00 0.  1.
         11    1    1    2    0    0 -0.62408276295E+02  0.24930601980E+02  0.26706322652E+03  0.27538898820E+03  0.00000000000E+00 0. -1.
</event>
<event>
 7    1  0.2394257E-009  0.1320960E+03  0.7561462E-02  0.1224378E+00
          2   -1    0    0  501    0  0.00000000000E+00  0.00000000000E+00  0.23017282617E+03  0.23017282617E+03  0.00000000000E+00 0. -1.
         -2   -1    0    0    0  501 -0.00000000000E+00 -0.00000000000E+00 -0.10524669121E+03  0.10524669121E+03  0.00000000000E+00 0.  1.
         25    2    1    2    0    0  0.58120376205E+02  0.87697510157E+02  0.26930921903E+02  0.16565298189E+03  0.12508718734E+03 0.  0.
          5    1    3    3  502    0  0.27483138350E+02  0.10947293563E+03  0.47584429029E+02  0.12256180814E+03  0.41800000000E+01 0. -1.
         -5    1    3    3    0  502  0.30637237854E+02 -0.21775425475E+02 -0.20653507125E+02  0.43091173743E+02  0.41800000000E+01 0. -1.
        -11    1    1    2    0    0 -0.67693467383E+01 -0.48117050350E+02  0.92765646947E+02  0.10472124829E+03  0.00000000000E+00 0. -1.
         11    1    1    2    0    0 -0.51351029466E+02 -0.39580459808E+02  0.52295661040E+01  0.65045287204E+02  0.00000000000E+00 0.  1.
</event>
<event>
 7    1  0.2394257E-009  0.6731144E+02  0.7561462E-02  0.1369482E+00
         -1   -1    0    0    0  501 -0.00000000000E+00  0.00000000000E+00  0.40276903980E+02  0.40276903980E+02  0.00000000000E+00 0.  1.
          1   -1    0    0  501    0  0.00000000000E+00 -0.00000000000E+00 -0.30668301722E+03  0.30668301722E+03  0.00000000000E+00 0. -1.
         25    2    1    2    0    0 -0.23521196428E+02  0.19358358361E+02 -0.17120945174E+03  0.21421787127E+03  0.12509447344E+03 0.  0.
          5    1    3    3  502    0 -0.16238143931E+02 -0.32021493649E+02 -0.15577928914E+03  0.15991783108E+03  0.41800000000E+01 0. -1.
         -5    1    3    3    0  502 -0.72830524969E+01  0.51379852010E+02 -0.15430162599E+02  0.54300040185E+02  0.41800000000E+01 0. -1.
        -11    1    1    2    0    0 -0.72207856556E+01 -0.13224622332E+02  0.13120793982E+02  0.19979630027E+02  0.00000000000E+00 0.  1.
         11    1    1    2    0    0  0.30741982084E+02 -0.61337360296E+01 -0.10831745549E+03  0.11276241991E+03  0.00000000000E+00 0. -1.
</event>
<event>
 7    1  0.2394257E-009  0.1916082E+03  0.7561462E-02  0.1157019E+00
          3   -1    0    0  501    0  0.00000000000E+00  0.00000000000E+00  0.58371367267E+03  0.58371367267E+03  0.00000000000E+00 0. -1.
         -3   -1    0    0    0  501 -0.00000000000E+00 -0.00000000000E+00 -0.72123916249E+02  0.72123916249E+02  0.00000000000E+00 0.  1.
         25    2    1    2    0    0  0.97769070828E+02  0.13881932948E+03  0.20844674015E+03  0.29652508104E+03  0.12508989871E+03 0.  0.
          5    1    3    3  502    0  0.11090406469E+03  0.51984415002E+02  0.11208520084E+03  0.16608026860E+03  0.41800000000E+01 0.  1.
         -5    1    3    3    0  502 -0.13134993866E+02  0.86834914474E+02  0.96361539313E+02  0.13044481245E+03  0.41800000000E+01 0.  1.
        -11    1    1    2    0    0 -0.40863412931E+02 -0.85475363427E+02  0.83694511070E+02  0.12641450650E+03  0.00000000000E+00 0. -1.
         11    1    1    2    0    0 -0.56905657898E+02 -0.53343966049E+02  0.21944850520E+03  0.23289800138E+03  0.00000000000E+00 0.  1.
</event>
<event>
 7    1  0.2394257E-009  0.1280795E+03  0.7561462E-02  0.1230334E+00
         -1   -1    0    0    0  501 -0.00000000000E+00  0.00000000000E+00  0.35443219988E+03  0.35443219988E+03  0.00000000000E+00 0.  1.
          1   -1    0    0  501    0  0.00000000000E+00 -0.00000000000E+00 -0.56568164709E+02  0.56568164709E+02  0.00000000000E+00 0. -1.
         25    2    1    2    0    0 -0.63423366400E+02  0.51147195689E+02  0.10638056042E+03  0.18331003571E+03  0.12508871461E+03 0.  0.
          5    1    3    3  502    0 -0.89139098320E+02  0.68099393321E+02  0.10245606121E+03  0.15198033787E+03  0.41800000000E+01 0. -1.
         -5    1    3    3    0  502  0.25715731920E+02 -0.16952197632E+02  0.39244992143E+01  0.31329697841E+02  0.41800000000E+01 0. -1.
        -11    1    1    2    0    0 -0.54711868279E+01  0.15823055152E+02  0.74252827169E+02  0.76116918634E+02  0.00000000000E+00 0.  1.
         11    1    1    2    0    0  0.68894553228E+02 -0.66970250841E+02  0.11723064758E+03  0.15157341025E+03  0.00000000000E+00 0. -1.
</event>
<event>
 7    1  0.2394257E-009  0.1482895E+03  0.7561462E-02  0.1202591E+00
          1   -1    0    0  501    0  0.00000000000E+00  0.00000000000E+00  0.27766713083E+03  0.27766713083E+03  0.00000000000E+00 0. -1.
         -1   -1    0    0    0  501 -0.00000000000E+00 -0.00000000000E+00 -0.95089061872E+02  0.95089061872E+02  0.00000000000E+00 0.  1.
         25    2    1    2    0    0 -0.11712614162E+03  0.24586641279E+02  0.77383406066E+02  0.18962818001E+03  0.12509044383E+03 0.  0.
          5    1    3    3  502    0 -0.68835309876E+02  0.73904800906E+02  0.28760600193E+02  0.10509454794E+03  0.41800000000E+01 0.  1.
         -5    1    3    3    0  502 -0.48290831749E+02 -0.49318159627E+02  0.48622805873E+02  0.84533632070E+02  0.41800000000E+01 0.  1.
        -11    1    1    2    0    0  0.15533710457E+02 -0.19081232411E+02  0.72031857260E+02  0.76118184761E+02  0.00000000000E+00 0. -1.
         11    1    1    2    0    0  0.10159243117E+03 -0.55054088678E+01  0.33162805634E+02  0.10700982794E+03  0.00000000000E+00 0.  1.
</event>
<event>
 7    1  0.2394257E-009  0.6016406E+02  0.7561462E-02  0.1397145E+00
          1   -1    0    0  501    0  0.00000000000E+00  0.00000000000E+00  0.24366859166E+03  0.24366859166E+03  0.00000000000E+00 0. -1.
         -1   -1    0    0    0  501 -0.00000000000E+00 -0.00000000000E+00 -0.10450268431E+03  0.10450268431E+03  0.00000000000E+00 0.  1.
         25    2    1    2    0    0  0.36985733397E+02 -0.33399029801E+00  0.19611314573E+03  0.23553227563E+03  0.12508809261E+03 0.  0.
          5    1    3    3  502    0  0.37410822359E+02  0.13517095124E+02  0.11302634170E+01  0.40012890242E+02  0.41800000000E+01 0.  1.
         -5    1    3    3    0  502 -0.42508896218E+00 -0.13851085422E+02  0.19498288231E+03  0.19551938539E+03  0.41800000000E+01 0.  1.
        -11    1    1    2    0    0 -0.48962445651E+02  0.10583458455E+02 -0.74035644435E+02  0.89390197024E+02  0.00000000000E+00 0.  1.
         11    1    1    2    0    0  0.11976712255E+02 -0.10249468157E+02  0.17088406063E+02  0.23248803317E+02  0.00000000000E+00 0. -1.
</event>
<event>
 7    1  0.2394257E-009  0.1813556E+03  0.7561462E-02  0.1166498E+00
         -2   -1    0    0    0  501 -0.00000000000E+00  0.00000000000E+00  0.43562390038E+02  0.43562390038E+02  0.00000000000E+00 0. -1.
          2   -1    0    0  501    0  0.00000000000E+00 -0.00000000000E+00 -0.94578182753E+03  0.94578182753E+03  0.00000000000E+00 0.  1.
         25    2    1    2    0    0 -0.16211351171E+03  0.71381700728E+02 -0.39784659049E+03  0.45310623189E+03  0.12508880820E+03 0.  0.
          5    1    3    3  502    0 -0.11968314246E+03  0.25114491439E+02 -0.35872274856E+03  0.37901751279E+03  0.41800000000E+01 0. -1.
         -5    1    3    3    0  502 -0.42430369251E+02  0.46267209290E+02 -0.39123841929E+02  0.74088719097E+02  0.41800000000E+01 0. -1.
        -11    1    1    2    0    0  0.12375839927E+03 -0.49621700174E+02 -0.42516009198E+03  0.44557778034E+03  0.00000000000E+00 0.  1.
         11    1    1    2    0    0  0.38355112441E+02 -0.21760000554E+02 -0.79212755024E+02  0.90660205344E+02  0.00000000000E+00 0. -1.
</event>
<event>
 7    1  0.2394257E-009  0.1153013E+03  0.7561462E-02  0.1251056E+00
          4   -1    0    0  501    0  0.00000000000E+00  0.00000000000E+00  0.15934030262E+03  0.15934030262E+03  0.00000000000E+00 0. -1.
         -4   -1    0    0    0  501 -0.00000000000E+00 -0.00000000000E+00 -0.98566794938E+02  0.98566794938E+02  0.00000000000E+00 0.  1.
         25    2    1    2    0    0 -0.46154986350E+02 -0.21505038440E+02  0.69534901088E+02  0.15191281065E+03  0.12509856165E+03 0.  0.
          5    1    3    3  502    0  0.38048628038E+02 -0.12118643228E+02 -0.30540840435E+01  0.40266107815E+02  0.41800000000E+01 0.  1.
         -5    1    3    3    0  502 -0.84203614388E+02 -0.93863952122E+01  0.72588985132E+02  0.11164670283E+03  0.41800000000E+01 0.  1.
        -11    1    1    2    0    0 -0.77766928387E+01  0.45812563116E+02 -0.32393515100E+01  0.46580696528E+02  0.00000000000E+00 0.  1.
         11    1    1    2    0    0  0.53931679189E+02 -0.24307524676E+02 -0.55220418924E+01  0.59413590387E+02  0.00000000000E+00 0. -1.
</event>
<event>
 7    1  0.2394257E-009  0.2383821E+03  0.7561462E-02  0.1120875E+00
          1   -1    0    0  501    0  0.00000000000E+00  0.00000000000E+00  0.61083100187E+03  0.61083100187E+03  0.00000000000E+00 0. -1.
         -1   -1    0    0    0  501 -0.00000000000E+00 -0.00000000000E+00 -0.11273810658E+03  0.11273810658E+03  0.00000000000E+00 0.  1.
         25    2    1    2    0    0 -0.18989315754E+03  0.13920474136E+03  0.20063988732E+03  0.33367839791E+03  0.12509011772E+03 0.  0.
          5    1    3    3  502    0 -0.17829707188E+03  0.11267783326E+03  0.21489657402E+03  0.30113809104E+03  0.41800000000E+01 0. -1.
         -5    1    3    3    0  502 -0.11596085659E+02  0.26526908104E+02 -0.14256686696E+02  0.32540306878E+02  0.41800000000E+01 0. -1.
        -11    1    1    2    0    0  0.15743808122E+03 -0.12544227687E+03  0.19001883821E+03  0.27682065154E+03  0.00000000000E+00 0.  1.
         11    1    1    2    0    0  0.32455076315E+02 -0.13762464497E+02  0.10743416976E+03  0.11307005899E+03  0.00000000000E+00 0. -1.
</event>
<event>
 7    1  0.2394257E-009  0.1238597E+03  0.7561462E-02  0.1236862E+00
          2   -1    0    0  501    0  0.00000000000E+00  0.00000000000E+00  0.87255964382E+03  0.87255964382E+03  0.00000000000E+00 0. -1.
         -2   -1    0    0    0  501 -0.00000000000E+00 -0.00000000000E+00 -0.17848645705E+02  0.17848645705E+02  0.00000000000E+00 0.  1.
         25    2    1    2    0    0  0.58781420394E+02  0.19211315784E+02  0.50976576174E+03  0.52852054138E+03  0.12509396780E+03 0.  0.
          5    1    3    3  502    0  0.97159564664E+02  0.57181465079E+01  0.38925092208E+03  0.40125606655E+03  0.41800000000E+01 0. -1.
         -5    1    3    3    0  502 -0.38378144270E+02  0.13493169276E+02  0.12051483966E+03  0.12726447483E+03  0.41800000000E+01 0. -1.
        -11    1    1    2    0    0 -0.49104659138E+01  0.33606168662E+02  0.10346754210E+03  0.10889912541E+03  0.00000000000E+00 0.  1.
         11    1    1    2    0    0 -0.53870954480E+02 -0.52817484446E+02  0.24147769428E+03  0.25298862273E+03  0.00000000000E+00 0. -1.
</event>
<event>
 7    1  0.2394257E-009  0.1155227E+03  0.7561462E-02  0.1250671E+00
         -4   -1    0    0    0  501 -0.00000000000E+00  0.00000000000E+00  0.47704374673E+02  0.47704374673E+02  0.00000000000E+00 0. -1.
          4   -1    0    0  501    0  0.00000000000E+00 -0.00000000000E+00 -0.29675103137E+03  0.29675103137E+03  0.00000000000E+00 0.  1.
         25    2    1    2    0    0  0.41208611830E+02  0.97046048348E+01 -0.10318348424E+03  0.16759409540E+03  0.12509444572E+03 0.  0.
          5    1    3    3  502    0  0.55033787084E+02 -0.47617644476E+02 -0.54553284998E+02  0.91047740721E+02  0.41800000000E+01 0. -1.
         -5    1    3    3    0  502 -0.13825175254E+02  0.57322249311E+02 -0.48630199240E+02  0.76546354681E+02  0.41800000000E+01 0. -1.
        -11    1    1    2    0    0 -0.44662274594E+02  0.33415180735E+02 -0.69705164645E+02  0.89275433652E+02  0.00000000000E+00 0.  1.
         11    1    1    2    0    0  0.34536627637E+01 -0.43119785570E+02 -0.76158007819E+02  0.87585876995E+02  0.00000000000E+00 0. -1.
</event>
<event>
 7    1  0.2394257E-009  0.9544315E+02  0.7561462E-02  0.1290181E+00
         -1   -1    0    0    0  501 -0.00000000000E+00  0.00000000000E+00  0.55218748554E+02  0.55218748554E+02  0.00000000000E+00 0.  1.
          1   -1    0    0  501    0  0.00000000000E+00 -0.00000000000E+00 -0.43897436561E+03  0.43897436561E+03  0.00000000000E+00 0. -1.
         25    2    1    2    0    0  0.41303359530E+02  0.49065472524E+02 -0.34998023871E+03  0.37715697253E+03  0.12509127202E+03 0.  0.
          5    1    3    3  502    0  0.28784322716E+02  0.57613392986E+02 -0.35486884763E+03  0.36068991073E+03  0.41800000000E+01 0.  1.
         -5    1    3    3    0  502  0.12519036814E+02 -0.85479204625E+01  0.48886089196E+01  0.16467061795E+02  0.41800000000E+01 0.  1.
        -11    1    1    2    0    0  0.28900807240E+02 -0.12873866032E+02 -0.13851175571E+01  0.31668780153E+02  0.00000000000E+00 0.  1.
         11    1    1    2    0    0 -0.70204166770E+02 -0.36191606492E+02 -0.32390260785E+02  0.85367361480E+02  0.00000000000E+00 0. -1.
</event>
<event>
 7    1  0.2945886E-009  0.1655894E+03  0.7561462E-02  0.1182527E+00
         -1   -1    0    0    0  501 -0.00000000000E+00  0.00000000000E+00  0.36916018659E+02  0.36916018659E+02  0.00000000000E+00 0.  1.
          1   -1    0    0  501    0  0.00000000000E+00 -0.00000000000E+00 -0.94322822845E+03  0.94322822845E+03  0.00000000000E+00 0. -1.
         25    2    1    2    0    0 -0.35227359877E+02 -0.12120845327E+03 -0.69718750625E+03  0.71947894996E+03  0.12508830694E+03 0.  0.
          5    1    3    3  502    0 -0.30686732836E+02  0.18574635507E+02 -0.10690202573E+03  0.11283708682E+03  0.41800000000E+01 0. -1.
         -5    1    3    3    0  502 -0.45406270408E+01 -0.13978308877E+03 -0.59028548052E+03  0.60664186314E+03  0.41800000000E+01 0. -1.
        -11    1    1    2    0    0  0.52572992733E+02  0.26521934355E+02 -0.89238971209E+02  0.10691551127E+03  0.00000000000E+00 0.  1.
         11    1    1    2    0    0 -0.17345632856E+02  0.94686518912E+02 -0.11988573233E+03  0.15374978588E+03  0.00000000000E+00 0. -1.
</event>
<event>
 7    1  0.2394257E-009  0.1073001E+03  0.7561462E-02  0.1265653E+00
         -1   -1    0    0    0  501 -0.00000000000E+00  0.00000000000E+00  0.24871314567E+03  0.24871314567E+03  0.00000000000E+00 0.  1.
          1   -1    0    0  501    0  0.00000000000E+00 -0.00000000000E+00 -0.73527086571E+02  0.73527086571E+02  0.00000000000E+00 0. -1.
         25    2    1    2    0    0  0.68532445168E+02  0.73164429855E+01  0.14981758328E+03  0.20699014019E+03  0.12509749596E+03 0.  0.
          5    1    3    3  502    0  0.54758964500E+02 -0.51390786813E+02  0.50063669285E+02  0.90351538696E+02  0.41800000000E+01 0.  1.
         -5    1    3    3    0  502  0.13773480669E+02  0.58707229799E+02  0.99753913995E+02  0.11663860149E+03  0.41800000000E+01 0.  1.
        -11    1    1    2    0    0 -0.35844166079E+02  0.15526190843E+02 -0.28408579753E+02  0.48300251009E+02  0.00000000000E+00 0. -1.
         11    1    1    2    0    0 -0.32688279090E+02 -0.22842633828E+02  0.53777055573E+02  0.66949841047E+02  0.00000000000E+00 0.  1.
</event>
<event>
 7    1  0.2394257E-009  0.1990956E+03  0.7561462E-02  0.1150504E+00
          1   -1    0    0  501    0  0.00000000000E+00  0.00000000000E+00  0.18203730939E+04  0.18203730939E+04  0.00000000000E+00 0. -1.
         -1   -1    0    0    0  501 -0.00000000000E+00 -0.00000000000E+00 -0.24263564999E+02  0.24263564999E+02  0.00000000000E+00 0.  1.
         25    2    1    2    0    0 -0.85634273800E+02 -0.15856423633E+03  0.11136524464E+04  0.11350528447E+04  0.12508933930E+03 0.  0.
          5    1    3    3  502    0  0.23058319727E+02 -0.48508709195E+02  0.15745821047E+03  0.16641917383E+03  0.41800000000E+01 0.  1.
         -5    1    3    3    0  502 -0.10869259353E+03 -0.11005552714E+03  0.95619423598E+03  0.96863367082E+03  0.41800000000E+01 0.  1.
        -11    1    1    2    0    0  0.10099591087E+02  0.79854327525E+02  0.21517844173E+03  0.22974002078E+03  0.00000000000E+00 0.  1.
         11    1    1    2    0    0  0.75534682712E+02  0.78709908808E+02  0.46727864075E+03  0.47984379348E+03  0.00000000000E+00 0. -1.
</event>
<event>
 7    1  0.2394257E-009  0.1318494E+03  0.7561462E-02  0.1224737E+00
         -1   -1    0    0    0  501 -0.00000000000E+00  0.00000000000E+00  0.50524338380E+03  0.50524338380E+03  0.00000000000E+00 0.  1.
          1   -1    0    0  501    0  0.00000000000E+00 -0.00000000000E+00 -0.35775842518E+02  0.35775842518E+02  0.00000000000E+00 0. -1.
         25    2    1    2    0    0 -0.58766029333E+02 -0.70504598308E+02  0.27533468769E+03  0.31603915543E+03  0.12508882019E+03 0.  0.
          5    1    3    3  502    0 -0.93607573756E+02 -0.74514263857E+02  0.20743791068E+03  0.23950514101E+03  0.41800000000E+01 0.  1.
         -5    1    3    3    0  502  0.34841544422E+02  0.40096655492E+01  0.67896777003E+02  0.76534014418E+02  0.41800000000E+01 0.  1.
        -11    1    1    2    0    0  0.36694011405E+02  0.77300111798E+02  0.17571105842E+03  0.19543831203E+03  0.00000000000E+00 0.  1.
         11    1    1    2    0    0  0.22072017928E+02 -0.67955134906E+01  0.18421795175E+02  0.29541758859E+02  0.00000000000E+00 0. -1.
</event>
<event>
 7    1  0.2394257E-009  0.9732364E+02  0.7561462E-02  0.1286027E+00
          2   -1    0    0  501    0  0.00000000000E+00  0.00000000000E+00  0.95076661469E+02  0.95076661469E+02  0.00000000000E+00 0. -1.
         -2   -1    0    0    0  501 -0.00000000000E+00 -0.00000000000E+00 -0.14671735871E+03  0.14671735871E+03  0.00000000000E+00 0.  1.
         25    2    1    2    0    0  0.24609761062E+02 -0.36487396706E+02 -0.47218912759E+02  0.14076164497E+03  0.12508894641E+03 0.  0.
          5    1    3    3  502    0  0.61163449143E+02 -0.12178712496E+02 -0.67699017849E+02  0.92140750848E+02  0.41800000000E+01 0.  1.
         -5    1    3    3    0  502 -0.36553688080E+02 -0.24308684210E+02  0.20480105090E+02  0.48620894118E+02  0.41800000000E+01 0.  1.
        -11    1    1    2    0    0  0.11773659662E+02  0.48361510982E+02  0.22109422516E+02  0.54463578382E+02  0.00000000000E+00 0. -1.
         11    1    1    2    0    0 -0.36383420724E+02 -0.11874114276E+02 -0.26531206997E+02  0.46568796829E+02  0.00000000000E+00 0.  1.
</event>
<event>
 7    1  0.2394257E-009  0.2532008E+03  0.7561462E-02  0.1111299E+00
          2   -1    0    0  501    0  0.00000000000E+00  0.00000000000E+00  0.16691577996E+03  0.16691577996E+03  0.00000000000E+00 0. -1.
         -2   -1    0    0    0  501 -0.00000000000E+00 -0.00000000000E+00 -0.40939910140E+03  0.40939910140E+03  0.00000000000E+00 0.  1.
         25    2    1    2    0    0 -0.10321809987E+03 -0.21228417419E+03 -0.15272121600E+03  0.30772091716E+03  0.12509934568E+03 0.  0.
          5    1    3    3  502    0 -0.38157102112E+02 -0.18549807408E+03 -0.77587783152E+02  0.20470182320E+03  0.41800000000E+01 0.  1.
         -5    1    3    3    0  502 -0.65060997755E+02 -0.26786100110E+02 -0.75133432850E+02  0.10301909396E+03  0.41800000000E+01 0.  1.
        -11    1    1    2    0    0  0.35002987267E+02  0.15617361374E+02  0.71313172101E+01  0.38986751328E+02  0.00000000000E+00 0. -1.
         11    1    1    2    0    0  0.68215112600E+02  0.19666681281E+03 -0.96893422651E+02  0.22960721287E+03  0.00000000000E+00 0.  1.
</event>
<event>
 7    1  0.2394257E-009  0.1233070E+03  0.7561462E-02  0.1237739E+00
          2   -1    0    0  501    0  0.00000000000E+00  0.00000000000E+00  0.50583859763E+03  0.50583859763E+03  0.00000000000E+00 0. -1.
         -2   -1    0    0    0  501 -0.00000000000E+00 -0.00000000000E+00 -0.43941329924E+02  0.43941329924E+02  0.00000000000E+00 0.  1.
         25    2    1    2    0    0 -0.22528708478E+02  0.10221028603E+03  0.24039723098E+03  0.29050368595E+03  0.12508827928E+03 0.  0.
          5    1    3    3  502    0 -0.57036826802E+02  0.86391582931E+02  0.22785906210E+03  0.25030767027E+03  0.41800000000E+01 0. -1.
         -5    1    3    3    0  502  0.34508118324E+02  0.15818703099E+02  0.12538168879E+02  0.40196015683E+02  0.41800000000E+01 0. -1.
        -11    1    1    2    0    0  0.17154674040E+02 -0.65189388502E+02  0.50486422602E+02  0.84218870105E+02  0.00000000000E+00 0.  1.
         11    1    1    2    0    0  0.53740344380E+01 -0.37020897529E+02  0.17101361413E+03  0.17505737150E+03  0.00000000000E+00 0. -1.
</event>
<event>
 7    1  0.2394257E-009  0.1700483E+03  0.7561462E-02  0.1177797E+00
          2   -1    0    0  501    0  0.00000000000E+00  0.00000000000E+00  0.57281375501E+03  0.57281375501E+03  0.00000000000E+00 0. -1.
         -2   -1    0    0    0  501 -0.00000000000E+00 -0.00000000000E+00 -0.60710870675E+02  0.60710870675E+02  0.00000000000E+00 0.  1.
         25    2    1    2    0    0 -0.42267444249E+02 -0.14075165376E+03  0.32132099958E+03  0.37482316405E+03  0.12509058579E+03 0.  0.
          5    1    3    3  502    0 -0.48594494458E+02 -0.15223410735E+02  0.34520614319E+02  0.61662973809E+02  0.41800000000E+01 0.  1.
         -5    1    3    3    0  502  0.63270502088E+01 -0.12552824302E+03  0.28680038527E+03  0.31316019024E+03  0.41800000000E+01 0.  1.
        -11    1    1    2    0    0  0.57545560780E+02  0.68820347505E+02  0.57726226133E+02  0.10667731239E+03  0.00000000000E+00 0.  1.
         11    1    1    2    0    0 -0.15278116531E+02  0.71931306251E+02  0.13305565862E+03  0.15202414925E+03  0.00000000000E+00 0. -1.
</event>
<event>
 7    1  0.2394257E-009  0.1472592E+03  0.7561462E-02  0.1203882E+00
          2   -1    0    0  501    0  0.00000000000E+00  0.00000000000E+00  0.53188004630E+03  0.53188004630E+03  0.00000000000E+00 0. -1.
         -2   -1    0    0    0  501 -0.00000000000E+00 -0.00000000000E+00 -0.54987206958E+02  0.54987206958E+02  0.00000000000E+00 0.  1.
         25    2    1    2    0    0 -0.67381777401E+02 -0.11391000988E+03  0.24514360499E+03  0.30538206832E+03  0.12508807420E+03 0.  0.
          5    1    3    3  502    0 -0.76720008732E+02 -0.10907491649E+03  0.25664121395E+03  0.28924986127E+03  0.41800000000E+01 0.  1.
         -5    1    3    3    0  502  0.93382313312E+01 -0.48350933839E+01 -0.11497608959E+02  0.16132207047E+02  0.41800000000E+01 0.  1.
        -11    1    1    2    0    0  0.42619116454E+02  0.11111363155E+02  0.28746833184E+02  0.52594979766E+02  0.00000000000E+00 0.  1.
         11    1    1    2    0    0  0.24762660947E+02  0.10279864672E+03  0.20300240117E+03  0.22889020518E+03  0.00000000000E+00 0. -1.
</event>
<event>
 7    1  0.2394257E-009  0.1098383E+03  0.7561462E-02  0.1260870E+00
         -1   -1    0    0    0  501 -0.00000000000E+00  0.00000000000E+00  0.28002333371E+02  0.28002333371E+02  0.00000000000E+00 0.  1.
          1   -1    0    0  501    0  0.00000000000E+00 -0.00000000000E+00 -0.70263987893E+03  0.70263987893E+03  0.00000000000E+00 0. -1.
         25    2    1    2    0    0 -0.87840615376E+02 -0.10668167491E+02 -0.33679125971E+03  0.37000865193E+03  0.12509303090E+03 0.  0.
          5    1    3    3  502    0 -0.42680289940E+02  0.11373658397E+02 -0.19038234682E+02  0.48279333410E+02  0.41800000000E+01 0. -1.
         -5    1    3    3    0  502 -0.45160325436E+02 -0.22041825888E+02 -0.31775302503E+03  0.32172931852E+03  0.41800000000E+01 0. -1.
        -11    1    1    2    0    0  0.16859475116E+02  0.43517980866E+02 -0.10233856895E+03  0.11247772782E+03  0.00000000000E+00 0.  1.
         11    1    1    2    0    0  0.70981140260E+02 -0.32849813376E+02 -0.23550771690E+03  0.24815583256E+03  0.00000000000E+00 0. -1.
</event>
<event>
 7    1  0.2394257E-009  0.1357308E+03  0.7561462E-02  0.1219192E+00
         -2   -1    0    0    0  501 -0.00000000000E+00  0.00000000000E+00  0.54100649460E+02  0.54100649460E+02  0.00000000000E+00 0.  1.
          2   -1    0    0  501    0  0.00000000000E+00 -0.00000000000E+00 -0.40214388452E+03  0.40214388452E+03  0.00000000000E+00 0. -1.
         25    2    1    2    0    0 -0.27820199334E+02 -0.94218321089E+02 -0.21836708256E+03  0.27015202026E+03  0.12508747252E+03 0.  0.
          5    1    3    3  502    0 -0.20275029433E+02  0.17372239239E+02 -0.11385810705E+03  0.11702141879E+03  0.41800000000E+01 0. -1.
         -5    1    3    3    0  502 -0.75451699003E+01 -0.11159056033E+03 -0.10450897551E+03  0.15313060147E+03  0.41800000000E+01 0. -1.
        -11    1    1    2    0    0 -0.29001425544E+02  0.95264644561E+01 -0.20974856639E+02  0.37037559580E+02  0.00000000000E+00 0.  1.
         11    1    1    2    0    0  0.56821624878E+02  0.84691856633E+02 -0.10870129587E+03  0.14905495415E+03  0.00000000000E+00 0. -1.
</event>
<event>
 7    1  0.2807118E-009  0.1261454E+03  0.7561462E-02  0.1233290E+00
         -1   -1    0    0    0  501 -0.00000000000E+00  0.00000000000E+00  0.22116555404E+03  0.22116555404E+03  0.00000000000E+00 0.  1.
          1   -1    0    0  501    0  0.00000000000E+00 -0.00000000000E+00 -0.10594329338E+03  0.10594329338E+03  0.00000000000E+00 0. -1.
         25    2    1    2    0    0 -0.28498163454E+00  0.82629538101E+02  0.13553384663E+03  0.20210510361E+03  0.12509727231E+03 0.  0.
          5    1    3    3  502    0 -0.18858994197E+02  0.11126361611E+03  0.11864145803E+03  0.16379414488E+03  0.41800000000E+01 0.  1.
         -5    1    3    3    0  502  0.18574012562E+02 -0.28634078010E+02  0.16892388598E+02  0.38310958728E+02  0.41800000000E+01 0.  1.
        -11    1    1    2    0    0  0.31602412564E+02 -0.29100844781E+02  0.23599155828E+02  0.49015220112E+02  0.00000000000E+00 0.  1.
         11    1    1    2    0    0 -0.31317430930E+02 -0.53528693320E+02 -0.43910741805E+02  0.75988523702E+02  0.00000000000E+00 0. -1.
</event>
<event>
 7    1  0.2394257E-009  0.1698827E+03  0.7561462E-02  0.1177970E+00
          2   -1    0    0  501    0  0.00000000000E+00  0.00000000000E+00  0.32589552740E+03  0.32589552740E+03  0.00000000000E+00 0. -1.
         -2   -1    0    0    0  501 -0.00000000000E+00 -0.00000000000E+00 -0.15611479439E+03  0.15611479439E+03  0.00000000000E+00 0.  1.
         25    2    1    2    0    0 -0.13712861254E+03 -0.38878504521E+02 -0.56204848223E+02  0.19779030458E+03  0.12508487172E+03 0.  0.
          5    1    3    3  502    0 -0.76216754272E+00 -0.51346308643E+02 -0.59478936342E+01  0.51863996657E+02  0.41800000000E+01 0.  1.
         -5    1    3    3    0  502 -0.13636644499E+03  0.12467804122E+02 -0.50256954589E+02  0.14592630792E+03  0.41800000000E+01 0.  1.
        -11    1    1    2    0    0  0.76002120867E+02  0.47333096230E+02  0.19627283497E+03  0.21573078158E+03  0.00000000000E+00 0. -1.
         11    1    1    2    0    0  0.61126491670E+02 -0.84545917090E+01  0.29712746262E+02  0.68489235616E+02  0.00000000000E+00 0.  1.
</event>
<event>
 7    1  0.2394257E-009  0.8256453E+02  0.7561462E-02  0.1321927E+00
          1   -1    0    0  501    0  0.00000000000E+00  0.00000000000E+00  0.45956044030E+02  0.45956044030E+02  0.00000000000E+00 0. -1.
         -1   -1    0    0    0  501 -0.00000000000E+00 -0.00000000000E+00 -0.30247600862E+03  0.30247600862E+03  0.00000000000E+00 0.  1.
         25    2    1    2    0    0 -0.13410509184E+02 -0.39284447220E+02 -0.17363604730E+03  0.21799114739E+03  0.12509018294E+03 0.  0.
          5    1    3    3  502    0 -0.33594176570E+02 -0.84720509857E+00 -0.17097352959E+03  0.17429488426E+03  0.41800000000E+01 0. -1.
         -5    1    3    3    0  502  0.20183667386E+02 -0.38437242121E+02 -0.26625177008E+01  0.43696263131E+02  0.41800000000E+01 0. -1.
        -11    1    1    2    0    0  0.43555685305E+02  0.37461952839E+02 -0.82132993352E+02  0.10023135353E+03  0.00000000000E+00 0.  1.
         11    1    1    2    0    0 -0.30145176121E+02  0.18224943813E+01 -0.75092393924E+00  0.30209551733E+02  0.00000000000E+00 0. -1.
</event>
<event>
 7    1  0.3132328E-009  0.1710263E+03  0.7561462E-02  0.1176782E+00
         -3   -1    0    0    0  501 -0.00000000000E+00  0.00000000000E+00  0.34146090806E+02  0.34146090806E+02  0.00000000000E+00 0.  1.
          3   -1    0    0  501    0  0.00000000000E+00 -0.00000000000E+00 -0.99825741290E+03  0.99825741290E+03  0.00000000000E+00 0. -1.
         25    2    1    2    0    0 -0.29277949045E+02 -0.13896355553E+03 -0.63088072227E+03  0.65865615285E+03  0.12509745754E+03 0.  0.
          5    1    3    3  502    0 -0.70295474058E+02 -0.87158975806E+02 -0.49472779215E+03  0.50725851542E+03  0.41800000000E+01 0.  1.
         -5    1    3    3    0  502  0.41017525013E+02 -0.51804579725E+02 -0.13615293012E+03  0.15139763743E+03  0.41800000000E+01 0.  1.
        -11    1    1    2    0    0 -0.23276069296E+02  0.86330523890E+02 -0.13406339463E+03  0.16114505434E+03  0.00000000000E+00 0.  1.
         11    1    1    2    0    0  0.52554018341E+02  0.52633031641E+02 -0.19916720518E+03  0.21260229652E+03  0.00000000000E+00 0. -1.
</event>
<event>
 7    1  0.2394257E-009  0.1109246E+03  0.7561462E-02  0.1258867E+00
         -2   -1    0    0    0  501 -0.00000000000E+00  0.00000000000E+00  0.36744445089E+02  0.36744445089E+02  0.00000000000E+00 0.  1.
          2   -1    0    0  501    0  0.00000000000E+00 -0.00000000000E+00 -0.50342541866E+03  0.50342541866E+03  0.00000000000E+00 0. -1.
         25    2    1    2    0    0 -0.51745615033E+01 -0.71449994894E+02 -0.17884810723E+03  0.22970607252E+03  0.12508539657E+03 0.  0.
          5    1    3    3  502    0 -0.52962592692E+02 -0.26429528797E+02 -0.14291655549E+03  0.15474550220E+03  0.41800000000E+01 0.  1.
         -5    1    3    3    0  502  0.47788031189E+02 -0.45020466097E+02 -0.35931551742E+02  0.74960570323E+02  0.41800000000E+01 0.  1.
        -11    1    1    2    0    0  0.54707136353E+01 -0.12044324379E+02 -0.28909395598E+01  0.13540752895E+02  0.00000000000E+00 0.  1.
         11    1    1    2    0    0 -0.29615213197E+00  0.83494319273E+02 -0.28494192678E+03  0.29692303833E+03  0.00000000000E+00 0. -1.
</event>
<event>
 7    1  0.2394257E-009  0.1067739E+03  0.7561462E-02  0.1266663E+00
          1   -1    0    0  501    0  0.00000000000E+00  0.00000000000E+00  0.11991724177E+03  0.11991724177E+03  0.00000000000E+00 0. -1.
         -1   -1    0    0    0  501 -0.00000000000E+00 -0.00000000000E+00 -0.17283468272E+03  0.17283468272E+03  0.00000000000E+00 0.  1.
         25    2    1    2    0    0 -0.67254199097E+02 -0.33819800628E+02  0.25001775506E+02  0.14811122847E+03  0.12507973860E+03 0.  0.
          5    1    3    3  502    0  0.15428225541E+02 -0.46778554239E+02 -0.19607673261E+02  0.53180790994E+02  0.41800000000E+01 0.  1.
         -5    1    3    3    0  502 -0.82682424638E+02  0.12958753610E+02  0.44609448767E+02  0.94930437471E+02  0.41800000000E+01 0.  1.
        -11    1    1    2    0    0  0.26560227719E+02  0.29023074599E+02 -0.92999045878E+02  0.10097825058E+03  0.00000000000E+00 0.  1.
         11    1    1    2    0    0  0.40693971378E+02  0.47967260298E+01  0.15079829428E+02  0.43662445450E+02  0.00000000000E+00 0. -1.
</event>
<event>
 7    1  0.2394257E-009  0.1238574E+03  0.7561462E-02  0.1236866E+00
          3   -1    0    0  501    0  0.00000000000E+00  0.00000000000E+00  0.19968433860E+03  0.19968433860E+03  0.00000000000E+00 0. -1.
         -3   -1    0    0    0  501 -0.00000000000E+00 -0.00000000000E+00 -0.85521074119E+02  0.85521074119E+02  0.00000000000E+00 0.  1.
         25    2    1    2    0    0 -0.67684395037E+02  0.25691635113E+02  0.63506950913E+02  0.15786701059E+03  0.12509045835E+03 0.  0.
          5    1    3    3  502    0  0.35505510499E+02  0.46749938420E+01  0.26157355491E+01  0.36149845307E+02  0.41800000000E+01 0.  1.
         -5    1    3    3    0  502 -0.10318990554E+03  0.21016641271E+02  0.60891215364E+02  0.12171716528E+03  0.41800000000E+01 0.  1.
        -11    1    1    2    0    0 -0.16633850712E+02 -0.12760011896E+02  0.34720125282E+02  0.40558476213E+02  0.00000000000E+00 0. -1.
         11    1    1    2    0    0  0.84318245749E+02 -0.12931623216E+02  0.15936188282E+02  0.86779925917E+02  0.00000000000E+00 0.  1.
</event>
<event>
 7    1  0.2394257E-009  0.1531602E+03  0.7561462E-02  0.1196643E+00
          1   -1    0    0  501    0  0.00000000000E+00  0.00000000000E+00  0.38052123071E+03  0.38052123071E+03  0.00000000000E+00 0. -1.
         -1   -1    0    0    0  501 -0.00000000000E+00 -0.00000000000E+00 -0.69208268563E+02  0.69208268563E+02  0.00000000000E+00 0.  1.
         25    2    1    2    0    0 -0.90987840176E+02  0.75105455596E+02  0.20059484200E+03  0.26420735839E+03  0.12509045157E+03 0.  0.
          5    1    3    3  502    0 -0.33193484089E+02 -0.25096020998E+02  0.13035454161E+02  0.43806541989E+02  0.41800000000E+01 0.  1.
         -5    1    3    3    0  502 -0.57794356087E+02  0.10020147659E+03  0.18755938783E+03  0.22040081640E+03  0.41800000000E+01 0.  1.
        -11    1    1    2    0    0 -0.17721097391E+02 -0.20493982845E+02  0.23018296806E+02  0.35551126754E+02  0.00000000000E+00 0.  1.
         11    1    1    2    0    0  0.10870893757E+03 -0.54611472750E+02  0.87699823347E+02  0.14997101413E+03  0.00000000000E+00 0. -1.
</event>
<event>
 7    1  0.2394257E-009  0.1311453E+03  0.7561462E-02  0.1225766E+00
          1   -1    0    0  501    0  0.00000000000E+00  0.00000000000E+00  0.21416649470E+03  0.21416649470E+03  0.00000000000E+00 0. -1.
         -1   -1    0    0    0  501 -0.00000000000E+00 -0.00000000000E+00 -0.97905702568E+02  0.97905702568E+02  0.00000000000E+00 0.  1.
         25    2    1    2    0    0  0.34607857289E+02 -0.70001842301E+02  0.12007791547E+03  0.19017316953E+03  0.12509663031E+03 0.  0.
          5    1    3    3  502    0 -0.39414565280E+02 -0.60258562078E+02  0.67283636048E+02  0.98636516260E+02  0.41800000000E+01 0.  1.
         -5    1    3    3    0  502  0.74022422569E+02 -0.97432802222E+01  0.52794279421E+02  0.91536653271E+02  0.41800000000E+01 0.  1.
        -11    1    1    2    0    0 -0.36879891312E+02  0.88955722427E+02 -0.18193780477E+02  0.98001329500E+02  0.00000000000E+00 0. -1.
         11    1    1    2    0    0  0.22720340232E+01 -0.18953880127E+02  0.14376657138E+02  0.23897698235E+02  0.00000000000E+00 0.  1.
</event>
<event>
 7    1  0.2394257E-009  0.1069545E+03  0.7561462E-02  0.1266316E+00
         -1   -1    0    0    0  501 -0.00000000000E+00  0.00000000000E+00  0.17402856285E+02  0.17402856285E+02  0.00000000000E+00 0.  1.
          1   -1    0    0  501    0  0.00000000000E+00 -0.00000000000E+00 -0.97200304817E+03  0.97200304817E+03  0.00000000000E+00 0. -1.
         25    2    1    2    0    0  0.62659589662E+02 -0.31086391757E+02 -0.49212782179E+03  0.51257189953E+03  0.12509025253E+03 0.  0.
          5    1    3    3  502    0  0.62838706051E+01 -0.40620575494E+02 -0.41189570269E+03  0.41396263174E+03  0.41800000000E+01 0.  1.
         -5    1    3    3    0  502  0.56375719057E+02  0.95341837369E+01 -0.80232119106E+02  0.98609267794E+02  0.41800000000E+01 0.  1.
        -11    1    1    2    0    0  0.23913531096E+02  0.22680429254E+01 -0.74504864119E+02  0.78281388373E+02  0.00000000000E+00 0.  1.
         11    1    1    2    0    0 -0.86573120758E+02  0.28818348832E+02 -0.38796750597E+03  0.39855261655E+03  0.00000000000E+00 0. -1.
</event>
<event>
 7    1  0.2394257E-009  0.2029684E+03  0.7561462E-02  0.1147258E+00
         -2   -1    0    0    0  501 -0.00000000000E+00  0.00000000000E+00  0.14308360078E+03  0.14308360078E+03  0.00000000000E+00 0.  1.
          2   -1    0    0  501    0  0.00000000000E+00 -0.00000000000E+00 -0.52095134558E+03  0.52095134558E+03  0.00000000000E+00 0. -1.
         25    2    1    2    0    0  0.11439130325E+03  0.15254309096E+03  0.33017878446E+01  0.22806489948E+03  0.12509169323E+03 0.  0.
          5    1    3    3  502    0  0.10071295519E+03  0.16636991270E+03 -0.22127924863E+02  0.19577835594E+03  0.41800000000E+01 0. -1.
         -5    1    3    3    0  502  0.13678348066E+02 -0.13826821749E+02  0.25429712708E+02  0.32286543542E+02  0.41800000000E+01 0. -1.
        -11    1    1    2    0    0 -0.39455220354E+02 -0.38997665965E+02 -0.21063938207E+03  0.21782213304E+03  0.00000000000E+00 0. -1.
         11    1    1    2    0    0 -0.74936082899E+02 -0.11354542499E+03 -0.17053015057E+03  0.21814791383E+03  0.00000000000E+00 0.  1.
</event>
<event>
 7    1  0.2394257E-009  0.1452151E+03  0.7561462E-02  0.1206479E+00
         -2   -1    0    0    0  501 -0.00000000000E+00  0.00000000000E+00  0.23475385397E+03  0.23475385397E+03  0.00000000000E+00 0.  1.
          2   -1    0    0  501    0  0.00000000000E+00 -0.00000000000E+00 -0.15368557688E+03  0.15368557688E+03  0.00000000000E+00 0. -1.
         25    2    1    2    0    0 -0.11905962274E+03  0.53762586408E+02  0.12476946283E+03  0.21972936015E+03  0.12509181984E+03 0.  0.
          5    1    3    3  502    0 -0.35559600798E+02 -0.19995559193E+02  0.96290492943E+02  0.10465963418E+03  0.41800000000E+01 0. -1.
         -5    1    3    3    0  502 -0.83500021944E+02  0.73758145601E+02  0.28478969885E+02  0.11506972596E+03  0.41800000000E+01 0. -1.
        -11    1    1    2    0    0  0.98473363810E+02 -0.61315702812E+02 -0.69203323512E+02  0.13507671441E+03  0.00000000000E+00 0. -1.
         11    1    1    2    0    0  0.20586258932E+02  0.75531164038E+01  0.25502137774E+02  0.33633356289E+02  0.00000000000E+00 0.  1.
</event>
<event>
 7    1  0.2394257E-009  0.1106146E+03  0.7561462E-02  0.1259436E+00
          2   -1    0    0  501    0  0.00000000000E+00  0.00000000000E+00  0.69558672682E+03  0.69558672682E+03  0.00000000000E+00 0. -1.
         -2   -1    0    0    0  501 -0.00000000000E+00 -0.00000000000E+00 -0.23013539025E+02  0.23013539025E+02  0.00000000000E+00 0.  1.
         25    2    1    2    0    0  0.12111130116E+02  0.56610804574E+02  0.29913341491E+03  0.32936572482E+03  0.12509803397E+03 0.  0.
          5    1    3    3  502    0 -0.42536396106E+02  0.91223596901E+01  0.20979644258E+03  0.21430021502E+03  0.41800000000E+01 0.  1.
         -5    1    3    3    0  502  0.54647526223E+02  0.47488444884E+02  0.89336972331E+02  0.11506550980E+03  0.41800000000E+01 0.  1.
        -11    1    1    2    0    0  0.30332656564E+02 -0.54666740353E+02  0.16364346922E+03  0.17517907288E+03  0.00000000000E+00 0.  1.
         11    1    1    2    0    0 -0.42443786680E+02 -0.19440642211E+01  0.20979630367E+03  0.21405546815E+03  0.00000000000E+00 0. -1.
</event>
<event>
 7    1  0.2394257E-009  0.2310585E+03  0.7561462E-02  0.1125897E+00
         -1   -1    0    0    0  501 -0.00000000000E+00  0.00000000000E+00  0.10217790890E+03  0.10217790890E+03  0.00000000000E+00 0.  1.
          1   -1    0    0  501    0  0.00000000000E+00 -0.00000000000E+00 -0.62524392112E+03  0.62524392112E+03  0.00000000000E+00 0. -1.
         25    2    1    2    0    0 -0.10982662249E+03 -0.19083907974E+03 -0.35290731953E+03  0.43436476964E+03  0.12509090919E+03 0.  0.
          5    1    3    3  502    0 -0.75784521640E+02 -0.45275135308E+02 -0.64239077165E+02  0.10925778248E+03  0.41800000000E+01 0. -1.
         -5    1    3    3    0  502 -0.34042100851E+02 -0.14556394443E+03 -0.28866824237E+03  0.32510698716E+03  0.41800000000E+01 0. -1.
        -11    1    1    2    0    0  0.80611895213E+02  0.17048742388E+03 -0.17481790469E+03  0.25714886574E+03  0.00000000000E+00 0. -1.
         11    1    1    2    0    0  0.29214727278E+02  0.20351655857E+02  0.46592120001E+01  0.35908194643E+02  0.00000000000E+00 0.  1.
</event>
<event>
 7    1  0.2394257E-009  0.8656314E+02  0.7561462E-02  0.1311395E+00
          1   -1    0    0  501    0  0.00000000000E+00  0.00000000000E+00  0.19058592617E+02  0.19058592617E+02  0.00000000000E+00 0. -1.
         -1   -1    0    0    0  501 -0.00000000000E+00 -0.00000000000E+00 -0.66288718816E+03  0.66288718816E+03  0.00000000000E+00 0.  1.
         25    2    1    2    0    0 -0.12048871207E+02  0.34101302859E+02 -0.32298232614E+03  0.34824030909E+03  0.12508259558E+03 0.  0.
          5    1    3    3  502    0 -0.38844340503E+01 -0.23706074374E+02 -0.26407661608E+03  0.26519992147E+03  0.41800000000E+01 0.  1.
         -5    1    3    3    0  502 -0.81644371563E+01  0.57807377233E+02 -0.58905710068E+02  0.83040387615E+02  0.41800000000E+01 0.  1.
        -11    1    1    2    0    0  0.47776608399E+02 -0.20343894268E+02 -0.21390443524E+03  0.22011720914E+03  0.00000000000E+00 0.  1.
         11    1    1    2    0    0 -0.35727737193E+02 -0.13757408591E+02 -0.10694183416E+03  0.11358826256E+03  0.00000000000E+00 0. -1.
</event>
<event>
 7    1  0.2394257E-009  0.1167012E+03  0.7561462E-02  0.1248640E+00
          1   -1    0    0  501    0  0.00000000000E+00  0.00000000000E+00  0.26590926979E+02  0.26590926979E+02  0.00000000000E+00 0. -1.
         -1   -1    0    0    0  501 -0.00000000000E+00 -0.00000000000E+00 -0.10053828741E+04  0.10053828741E+04  0.00000000000E+00 0.  1.
         25    2    1    2    0    0 -0.69077765726E+02 -0.42942752364E+02 -0.82185607048E+03  0.83529079107E+03  0.12508991712E+03 0.  0.
          5    1    3    3  502    0 -0.27312654458E+02  0.27876599434E+02 -0.82447109065E+02  0.91313110136E+02  0.41800000000E+01 0.  1.
         -5    1    3    3    0  502 -0.41765111268E+02 -0.70819351798E+02 -0.73940896141E+03  0.74397768093E+03  0.41800000000E+01 0.  1.
        -11    1    1    2    0    0  0.62393758203E+02 -0.57697497555E+01 -0.11933209712E+03  0.13478286418E+03  0.00000000000E+00 0.  1.
         11    1    1    2    0    0  0.66840075224E+01  0.48712502119E+02 -0.37603779536E+02  0.61900145837E+02  0.00000000000E+00 0. -1.
</event>
<event>
 7    1  0.2394257E-009  0.9169225E+02  0.7561462E-02  0.1298805E+00
         -2   -1    0    0    0  501 -0.00000000000E+00  0.00000000000E+00  0.29841921138E+03  0.29841921138E+03  0.00000000000E+00 0.  1.
          2   -1    0    0  501    0  0.00000000000E+00 -0.00000000000E+00 -0.68032521172E+02  0.68032521172E+02  0.00000000000E+00 0. -1.
         25    2    1    2    0    0 -0.30098549311E+02 -0.56137679361E+02  0.19511985641E+03  0.24036898135E+03  0.12509247426E+03 0.  0.
          5    1    3    3  502    0 -0.22303976359E+02 -0.37233140142E+02 -0.53251436084E+00  0.43606536871E+02  0.41800000000E+01 0. -1.
         -5    1    3    3    0  502 -0.77945729519E+01 -0.18904539219E+02  0.19565237077E+03  0.19676244448E+03  0.41800000000E+01 0. -1.
        -11    1    1    2    0    0  0.49150426764E+02 -0.99357495804E+01  0.26630097416E+02  0.56777157900E+02  0.00000000000E+00 0.  1.
         11    1    1    2    0    0 -0.19051877453E+02  0.66073428942E+02  0.86367363761E+01  0.69305593294E+02  0.00000000000E+00 0. -1.
</event>
<event>
 7    1  0.2394257E-009  0.1007538E+03  0.7561462E-02  0.1278719E+00
         -2   -1    0    0    0  501 -0.00000000000E+00  0.00000000000E+00  0.39779167423E+03  0.39779167423E+03  0.00000000000E+00 0.  1.
          2   -1    0    0  501    0  0.00000000000E+00 -0.00000000000E+00 -0.33912945049E+02  0.33912945049E+02  0.00000000000E+00 0. -1.
         25    2    1    2    0    0  0.29206872908E+01 -0.42993925391E+02  0.20739324651E+03  0.24600311230E+03  0.12509422260E+03 0.  0.
          5    1    3    3  502    0 -0.47433700524E+02  0.12794947752E+02  0.43908695873E+02  0.66023576143E+02  0.41800000000E+01 0. -1.
         -5    1    3    3    0  502  0.50354387815E+02 -0.55788873143E+02  0.16348455064E+03  0.17997953616E+03  0.41800000000E+01 0. -1.
        -11    1    1    2    0    0  0.30337400664E+02  0.23566817447E+02  0.13748959963E+03  0.14275553499E+03  0.00000000000E+00 0.  1.
         11    1    1    2    0    0 -0.33258087955E+02  0.19427107944E+02  0.18995883041E+02  0.42945971988E+02  0.00000000000E+00 0. -1.
</event>
<event>
 7    1  0.2394257E-009  0.1145457E+03  0.7561462E-02  0.1252376E+00
          2   -1    0    0  501    0  0.00000000000E+00  0.00000000000E+00  0.36146927890E+03  0.36146927890E+03  0.00000000000E+00 0. -1.
         -2   -1    0    0    0  501 -0.00000000000E+00 -0.00000000000E+00 -0.48659832898E+02  0.48659832898E+02  0.00000000000E+00 0.  1.
         25    2    1    2    0    0 -0.58486409845E+02  0.33415456318E+01  0.97943366323E+02  0.16932139164E+03  0.12507999279E+03 0.  0.
          5    1    3    3  502    0 -0.85407064817E+02 -0.27125485385E+02  0.91148756748E+02  0.12788951065E+03  0.41800000000E+01 0. -1.
         -5    1    3    3    0  502  0.26920654972E+02  0.30467031017E+02  0.67946095752E+01  0.41431880990E+02  0.41800000000E+01 0. -1.
        -11    1    1    2    0    0 -0.17825551459E+02 -0.12327094991E+02  0.14141398397E+02  0.25878305670E+02  0.00000000000E+00 0.  1.
         11    1    1    2    0    0  0.76311961304E+02  0.89855493595E+01  0.20072468128E+03  0.21492941449E+03  0.00000000000E+00 0. -1.
</event>
<event>
 7    1  0.2394257E-009  0.1405905E+03  0.7561462E-02  0.1212537E+00
         -4   -1    0    0    0  501 -0.00000000000E+00  0.00000000000E+00  0.46501720466E+02  0.46501720466E+02  0.00000000000E+00 0.  1.
          4   -1    0    0  501    0  0.00000000000E+00 -0.00000000000E+00 -0.50775883136E+03  0.50775883136E+03  0.00000000000E+00 0. -1.
         25    2    1    2    0    0  0.10535730913E+03  0.16873609044E+02 -0.28069328528E+03  0.32530318217E+03  0.12509419914E+03 0.  0.
          5    1    3    3  502    0  0.92231804861E+02  0.49720357843E+02 -0.26750069767E+03  0.28732023156E+03  0.41800000000E+01 0. -1.
         -5    1    3    3    0  502  0.13125504270E+02 -0.32846748798E+02 -0.13192587614E+02  0.37982950609E+02  0.41800000000E+01 0. -1.
        -11    1    1    2    0    0 -0.32391925327E+02  0.37610447822E+02 -0.60096677531E+02  0.77944809077E+02  0.00000000000E+00 0.  1.
         11    1    1    2    0    0 -0.72965383804E+02 -0.54484056866E+02 -0.12046714808E+03  0.15101256058E+03  0.00000000000E+00 0. -1.
</event>
<event>
 7    1  0.2394257E-009  0.1016989E+03  0.7561462E-02  0.1276764E+00
          1   -1    0    0  501    0  0.00000000000E+00  0.00000000000E+00  0.24826014907E+03  0.24826014907E+03  0.00000000000E+00 0. -1.
         -1   -1    0    0    0  501 -0.00000000000E+00 -0.00000000000E+00 -0.47437128568E+02  0.47437128568E+02  0.00000000000E+00 0.  1.
         25    2    1    2    0    0 -0.32807897574E+01 -0.16744401603E+01  0.11066727662E+03  0.16706007200E+03  0.12509298226E+03 0.  0.
          5    1    3    3  502    0  0.37599166993E+02  0.39893777591E+02  0.18666355789E+02  0.58061313174E+02  0.41800000000E+01 0. -1.
         -5    1    3    3    0  502 -0.40879956750E+02 -0.41568217752E+02  0.92000920834E+02  0.10899875882E+03  0.41800000000E+01 0. -1.
        -11    1    1    2    0    0 -0.12187469822E+02 -0.41948575849E+02  0.56463124571E+02  0.71388387520E+02  0.00000000000E+00 0. -1.
         11    1    1    2    0    0  0.15468259579E+02  0.43623016010E+02  0.33692619306E+02  0.57248818118E+02  0.00000000000E+00 0.  1.
</event>
<event>
 7    1  0.2584445E-009  0.1050319E+03  0.7561462E-02  0.1270057E+00
          2   -1    0    0  501    0  0.00000000000E+00  0.00000000000E+00  0.81649572635E+03  0.81649572635E+03  0.00000000000E+00 0. -1.
         -2   -1    0    0    0  501 -0.00000000000E+00 -0.00000000000E+00 -0.18331362937E+02  0.18331362937E+02  0.00000000000E+00 0.  1.
         25    2    1    2    0    0 -0.31621653590E+02 -0.47230571975E+02  0.46299026214E+03  0.48294913277E+03  0.12509686685E+03 0.  0.
          5    1    3    3  502    0 -0.56228732717E+02  0.91780880758E+00  0.37763132251E+03  0.38181854447E+03  0.41800000000E+01 0.  1.
         -5    1    3    3    0  502  0.24607079127E+02 -0.48148380783E+02  0.85358939626E+02  0.10113058830E+03  0.41800000000E+01 0.  1.
        -11    1    1    2    0    0  0.92886590714E+01  0.68185034396E+02  0.16189141614E+03  0.17590994492E+03  0.00000000000E+00 0.  1.
         11    1    1    2    0    0  0.22332994519E+02 -0.20954462420E+02  0.17328268513E+03  0.17596801159E+03  0.00000000000E+00 0. -1.
</event>
<event>
 7    1  0.2394257E-009  0.2138899E+03  0.7561462E-02  0.1138522E+00
          2   -1    0    0  501    0  0.00000000000E+00  0.00000000000E+00  0.41931412662E+03  0.41931412662E+03  0.00000000000E+00 0. -1.
         -2   -1    0    0    0  501 -0.00000000000E+00 -0.00000000000E+00 -0.19024471670E+03  0.19024471670E+03  0.00000000000E+00 0.  1.
         25    2    1    2    0    0 -0.18298941381E+03 -0.87935153826E+02  0.29234361397E+03  0.37727225204E+03  0.12510734063E+03 0.  0.
          5    1    3    3  502    0 -0.16745597358E+03 -0.58526044898E+02  0.15406933627E+03  0.23499283776E+03  0.41800000000E+01 0. -1.
         -5    1    3    3    0  502 -0.15533440231E+02 -0.29409108928E+02  0.13827427770E+03  0.14227941427E+03  0.41800000000E+01 0. -1.
        -11    1    1    2    0    0  0.76508571625E+02  0.78984990651E+02 -0.38798895884E+01  0.11003292154E+03  0.00000000000E+00 0. -1.
         11    1    1    2    0    0  0.10648084219E+03  0.89501631744E+01 -0.59394314466E+02  0.12225366974E+03  0.00000000000E+00 0.  1.
</event>
<event>
 7    1  0.2394257E-009  0.7743144E+02  0.7561462E-02  0.1336503E+00
         -2   -1    0    0    0  501 -0.00000000000E+00  0.00000000000E+00  0.28222385099E+02  0.28222385099E+02  0.00000000000E+00 0.  1.
          2   -1    0    0  501    0  0.00000000000E+00 -0.00000000000E+00 -0.49535651019E+03  0.49535651019E+03  0.00000000000E+00 0. -1.
         25    2    1    2    0    0 -0.10351385831E+02 -0.23853120730E+02 -0.35333107674E+03  0.37572176191E+03  0.12509144666E+03 0.  0.
          5    1    3    3  502    0 -0.36112657285E+02 -0.37152529941E+02 -0.53970084247E+02  0.74931147667E+02  0.41800000000E+01 0. -1.
         -5    1    3    3    0  502  0.25761271453E+02  0.13299409211E+02 -0.29936099249E+03  0.30079061424E+03  0.41800000000E+01 0. -1.
        -11    1    1    2    0    0 -0.58001484232E+01  0.45897989622E+02 -0.20441260988E+02  0.50577784885E+02  0.00000000000E+00 0.  1.
         11    1    1    2    0    0  0.16151534255E+02 -0.22044868892E+02 -0.93361787367E+02  0.97279348495E+02  0.00000000000E+00 0. -1.
</event>
<event>
 7    1  0.2394257E-009  0.1623399E+03  0.7561462E-02  0.1186080E+00
          1   -1    0    0  501    0  0.00000000000E+00  0.00000000000E+00  0.16293426380E+03  0.16293426380E+03  0.00000000000E+00 0. -1.
         -1   -1    0    0    0  501 -0.00000000000E+00 -0.00000000000E+00 -0.20192756281E+03  0.20192756281E+03  0.00000000000E+00 0.  1.
         25    2    1    2    0    0  0.12519246660E+03  0.59138356462E+02 -0.66844446292E+02  0.19820795609E+03  0.12509082684E+03 0.  0.
          5    1    3    3  502    0 -0.15502669007E+02  0.37952450684E+02 -0.61961855532E+00  0.41213803348E+02  0.41800000000E+01 0.  1.
         -5    1    3    3    0  502  0.14069513560E+03  0.21185905778E+02 -0.66224827736E+02  0.15699415274E+03  0.41800000000E+01 0. -1.
        -11    1    1    2    0    0 -0.66429330696E+02 -0.46317432228E+02 -0.26886726706E+02  0.85329107448E+02  0.00000000000E+00 0.  1.
         11    1    1    2    0    0 -0.58763135902E+02 -0.12820924234E+02  0.54737873985E+02  0.81324763066E+02  0.00000000000E+00 0. -1.
</event>
<event>
 7    1  0.2394257E-009  0.8700398E+02  0.7561462E-02  0.1310274E+00
          2   -1    0    0  501    0  0.00000000000E+00  0.00000000000E+00  0.36736741745E+03  0.36736741745E+03  0.00000000000E+00 0. -1.
         -2   -1    0    0    0  501 -0.00000000000E+00 -0.00000000000E+00 -0.48169627551E+02  0.48169627551E+02  0.00000000000E+00 0.  1.
         25    2    1    2    0    0  0.25796465258E+02  0.53983104424E+01  0.64094542749E+02  0.14300340467E+03  0.12508902414E+03 0.  0.
          5    1    3    3  502    0  0.61717950540E+02 -0.19084252236E+02  0.73899821361E+02  0.98244440552E+02  0.41800000000E+01 0. -1.
         -5    1    3    3    0  502 -0.35921485282E+02  0.24482562678E+02 -0.98052786118E+01  0.44758964117E+02  0.41800000000E+01 0. -1.
        -11    1    1    2    0    0  0.17984575972E+02  0.81858633357E+01  0.81711128987E+01  0.21382713051E+02  0.00000000000E+00 0.  1.
         11    1    1    2    0    0 -0.43781041230E+02 -0.13584173778E+02  0.24693213425E+03  0.25115092728E+03  0.00000000000E+00 0. -1.
</event>
<event>
 7    1  0.2394257E-009  0.1160144E+03  0.7561462E-02  0.1249821E+00
         -1   -1    0    0    0  501 -0.00000000000E+00  0.00000000000E+00  0.21605875455E+03  0.21605875455E+03  0.00000000000E+00 0. -1.
          1   -1    0    0  501    0  0.00000000000E+00 -0.00000000000E+00 -0.64786287382E+02  0.64786287382E+02  0.00000000000E+00 0.  1.
         25    2    1    2    0    0  0.36828373587E+02 -0.29665351912E+02  0.79856108552E+02  0.15575696704E+03  0.12508745942E+03 0.  0.
          5    1    3    3  502    0 -0.37509798102E+02 -0.43887626302E+02  0.36519408390E+02  0.68441568401E+02  0.41800000000E+01 0.  1.
         -5    1    3    3    0  502  0.74338171689E+02  0.14222274390E+02  0.43336700162E+02  0.87315398641E+02  0.41800000000E+01 0.  1.
        -11    1    1    2    0    0 -0.43161491014E+02  0.56313965520E+02  0.66530276957E+02  0.97264869152E+02  0.00000000000E+00 0.  1.
         11    1    1    2    0    0  0.63331174271E+01 -0.26648613609E+02  0.48860816614E+01  0.27823205739E+02  0.00000000000E+00 0. -1.
</event>
<event>
 7    1  0.2394257E-009  0.1192924E+03  0.7561462E-02  0.1244269E+00
         -1   -1    0    0    0  501 -0.00000000000E+00  0.00000000000E+00  0.22751045224E+03  0.22751045224E+03  0.00000000000E+00 0.  1.
          1   -1    0    0  501    0  0.00000000000E+00 -0.00000000000E+00 -0.80010835101E+02  0.80010835101E+02  0.00000000000E+00 0. -1.
         25    2    1    2    0    0 -0.47810805845E+02  0.41052789746E+02  0.13722144330E+03  0.19608139014E+03  0.12508789851E+03 0.  0.
          5    1    3    3  502    0 -0.49825520937E+02 -0.33366762015E+02  0.88594103362E+02  0.10706218237E+03  0.41800000000E+01 0. -1.
         -5    1    3    3    0  502  0.20147150919E+01  0.74419551761E+02  0.48627339940E+02  0.89019207763E+02  0.41800000000E+01 0. -1.
        -11    1    1    2    0    0  0.29100782247E+02  0.23055213079E+02 -0.14987572907E+02  0.40037803626E+02  0.00000000000E+00 0.  1.
         11    1    1    2    0    0  0.18710023598E+02 -0.64108002825E+02  0.25265746747E+02  0.71402093582E+02  0.00000000000E+00 0. -1.
</event>
<event>
 7    1  0.2394257E-009  0.1523162E+03  0.7561462E-02  0.1197655E+00
         -2   -1    0    0    0  501 -0.00000000000E+00  0.00000000000E+00  0.57349145183E+03  0.57349145183E+03  0.00000000000E+00 0.  1.
          2   -1    0    0  501    0  0.00000000000E+00 -0.00000000000E+00 -0.51769098642E+02  0.51769098642E+02  0.00000000000E+00 0. -1.
         25    2    1    2    0    0 -0.12666353745E+03  0.26161713479E+02  0.21637946413E+03  0.28141716229E+03  0.12508980678E+03 0.  0.
          5    1    3    3  502    0  0.16958843177E+02  0.48604106831E+00  0.79224209373E+02  0.81128209327E+02  0.41800000000E+01 0. -1.
         -5    1    3    3    0  502 -0.14362238062E+03  0.25675672410E+02  0.13715525476E+03  0.20028895296E+03  0.41800000000E+01 0. -1.
        -11    1    1    2    0    0  0.33718376481E+02 -0.34050832296E+02  0.39472203490E+02  0.62084160145E+02  0.00000000000E+00 0. -1.
         11    1    1    2    0    0  0.92945160965E+02  0.78891188168E+01  0.26587068557E+03  0.28175922804E+03  0.00000000000E+00 0.  1.
</event>
<event>
 7    1  0.2394257E-009  0.1252330E+03  0.7561462E-02  0.1234706E+00
         -2   -1    0    0    0  501 -0.00000000000E+00  0.00000000000E+00  0.89030667886E+03  0.89030667886E+03  0.00000000000E+00 0.  1.
          2   -1    0    0  501    0  0.00000000000E+00 -0.00000000000E+00 -0.27988076285E+02  0.27988076285E+02  0.00000000000E+00 0. -1.
         25    2    1    2    0    0  0.78940818446E+02 -0.43460523866E+02  0.60119486657E+03  0.62064719924E+03  0.12508880202E+03 0.  0.
          5    1    3    3  502    0  0.74887451500E+02  0.29517067951E+02  0.33600616781E+03  0.34553871693E+03  0.41800000000E+01 0. -1.
         -5    1    3    3    0  502  0.40533669459E+01 -0.72977591817E+02  0.26518869876E+03  0.27510848231E+03  0.41800000000E+01 0. -1.
        -11    1    1    2    0    0 -0.42224453792E+02  0.42521904505E+02  0.25304153589E+03  0.26004045021E+03  0.00000000000E+00 0.  1.
         11    1    1    2    0    0 -0.36716364654E+02  0.93861936142E+00  0.80822001177E+01  0.37607105691E+02  0.00000000000E+00 0. -1.
</event>
<event>
 7    1  0.2394257E-009  0.6066982E+02  0.7561462E-02  0.1395042E+00
          2   -1    0    0  501    0  0.00000000000E+00  0.00000000000E+00  0.34625637699E+03  0.34625637699E+03  0.00000000000E+00 0. -1.
         -2   -1    0    0    0  501 -0.00000000000E+00 -0.00000000000E+00 -0.45406186528E+02  0.45406186528E+02  0.00000000000E+00 0.  1.
         25    2    1    2    0    0 -0.34831311447E+02 -0.16879273641E+02  0.24679601962E+03  0.27937310875E+03  0.12507169327E+03 0.  0.
          5    1    3    3  502    0  0.35678779666E+01  0.93571245447E+01 -0.12127035097E+02  0.16273380509E+02  0.41800000000E+01 0.  1.
         -5    1    3    3    0  502 -0.38399189413E+02 -0.26236398186E+02  0.25892305471E+03  0.26309972824E+03  0.41800000000E+01 0.  1.
        -11    1    1    2    0    0  0.29741114019E+02 -0.13735054742E+02  0.70081810294E+02  0.77360492022E+02  0.00000000000E+00 0. -1.
         11    1    1    2    0    0  0.50901974282E+01  0.30614328383E+02 -0.16027639450E+02  0.34928962746E+02  0.00000000000E+00 0.  1.
</event>
<event>
 7    1  0.2394257E-009  0.7905334E+02  0.7561462E-02  0.1331760E+00
         -2   -1    0    0    0  501 -0.00000000000E+00  0.00000000000E+00  0.13563970540E+03  0.13563970540E+03  0.00000000000E+00 0.  1.
          2   -1    0    0  501    0  0.00000000000E+00 -0.00000000000E+00 -0.11037053892E+03  0.11037053892E+03  0.00000000000E+00 0. -1.
         25    2    1    2    0    0 -0.82260881328E+01  0.55382492288E+01  0.73806119956E+02  0.14557332540E+03  0.12508360802E+03 0.  0.
          5    1    3    3  502    0 -0.44752899841E+02  0.22975718889E+02  0.88851651883E+02  0.10218999043E+03  0.41800000000E+01 0.  1.
         -5    1    3    3    0  502  0.36526811708E+02 -0.17437469660E+02 -0.15045531927E+02  0.43383334965E+02  0.41800000000E+01 0.  1.
        -11    1    1    2    0    0  0.23591835270E+01  0.30415600796E+02  0.94668714239E+01  0.31942075281E+02  0.00000000000E+00 0.  1.
         11    1    1    2    0    0  0.58669046058E+01 -0.35953850025E+02 -0.58003824908E+02  0.68494843640E+02  0.00000000000E+00 0. -1.
</event>
<event>
 7    1  0.2394257E-009  0.1557460E+03  0.7561462E-02  0.1193585E+00
         -1   -1    0    0    0  501 -0.00000000000E+00  0.00000000000E+00  0.20974059241E+03  0.20974059241E+03  0.00000000000E+00 0.  1.
          1   -1    0    0  501    0  0.00000000000E+00 -0.00000000000E+00 -0.14544140651E+03  0.14544140651E+03  0.00000000000E+00 0. -1.
         25    2    1    2    0    0  0.12713875260E+03 -0.44874133650E+02  0.56779726359E+02  0.19248034205E+03  0.12508714749E+03 0.  0.
          5    1    3    3  502    0  0.52057803284E+02  0.14702964088E+02  0.77234153942E+02  0.94386328304E+02  0.41800000000E+01 0. -1.
         -5    1    3    3    0  502  0.75080949313E+02 -0.59577097738E+02 -0.20454427582E+02  0.98094013744E+02  0.41800000000E+01 0. -1.
        -11    1    1    2    0    0 -0.52435950449E+02  0.65401789806E+02 -0.60728605584E+01  0.84046431481E+02  0.00000000000E+00 0.  1.
         11    1    1    2    0    0 -0.74702802148E+02 -0.20527656155E+02  0.13592320103E+02  0.78655225394E+02  0.00000000000E+00 0. -1.
</event>
<event>
 7    1  0.2394257E-009  0.1056673E+03  0.7561462E-02  0.1268810E+00
          2   -1    0    0  501    0  0.00000000000E+00  0.00000000000E+00  0.18043386498E+03  0.18043386498E+03  0.00000000000E+00 0. -1.
         -2   -1    0    0    0  501 -0.00000000000E+00 -0.00000000000E+00 -0.97273008558E+02  0.97273008558E+02  0.00000000000E+00 0.  1.
         25    2    1    2    0    0 -0.75994824105E+02  0.56250130291E+00  0.29764598602E+02  0.14936374128E+03  0.12509223069E+03 0.  0.
          5    1    3    3  502    0 -0.57348422618E+02  0.49148028287E+02  0.52852647558E+02  0.92278085238E+02  0.41800000000E+01 0.  1.
         -5    1    3    3    0  502 -0.18646401487E+02 -0.48585526984E+02 -0.23088048956E+02  0.57085656039E+02  0.41800000000E+01 0.  1.
        -11    1    1    2    0    0  0.51164032622E+02 -0.16757144630E+02  0.74525977739E+02  0.91938465771E+02  0.00000000000E+00 0.  1.
         11    1    1    2    0    0  0.24830791483E+02  0.16194643327E+02 -0.21129719921E+02  0.36404666488E+02  0.00000000000E+00 0. -1.
</event>
<event>
 7    1  0.2394257E-009  0.2511008E+03  0.7561462E-02  0.1112611E+00
         -2   -1    0    0    0  501 -0.00000000000E+00  0.00000000000E+00  0.12918900389E+03  0.12918900389E+03  0.00000000000E+00 0.  1.
          2   -1    0    0  501    0  0.00000000000E+00 -0.00000000000E+00 -0.65523361415E+03  0.65523361415E+03  0.00000000000E+00 0. -1.
         25    2    1    2    0    0 -0.29757386661E+02  0.23025873318E+03 -0.76752346952E+02  0.27466980177E+03  0.12509193011E+03 0.  0.
          5    1    3    3  502    0 -0.48062773353E+02  0.23748877270E+03 -0.63312064243E+02  0.25047322655E+03  0.41800000000E+01 0.  1.
         -5    1    3    3    0  502  0.18305386692E+02 -0.72300395185E+01 -0.13440282709E+02  0.24196575226E+02  0.41800000000E+01 0.  1.
        -11    1    1    2    0    0 -0.14801945874E+02 -0.11860186452E+03 -0.20013455679E+03  0.23310800220E+03  0.00000000000E+00 0. -1.
         11    1    1    2    0    0  0.44559332535E+02 -0.11165686866E+03 -0.24915770651E+03  0.27664481407E+03  0.00000000000E+00 0.  1.
</event>
<event>
 7    1  0.2394257E-009  0.7023390E+02  0.7561462E-02  0.1359299E+00
          2   -1    0    0  501    0  0.00000000000E+00  0.00000000000E+00  0.43277032053E+02  0.43277032053E+02  0.00000000000E+00 0. -1.
         -2   -1    0    0    0  501 -0.00000000000E+00 -0.00000000000E+00 -0.36237138598E+03  0.36237138598E+03  0.00000000000E+00 0.  1.
         25    2    1    2    0    0  0.29542703648E+02 -0.25890336573E+02 -0.30967843798E+03  0.33629070095E+03  0.12509044619E+03 0.  0.
          5    1    3    3  502    0  0.48219840011E+02 -0.16588920418E+02 -0.37880979535E+02  0.63661497484E+02  0.41800000000E+01 0.  1.
         -5    1    3    3    0  502 -0.18677136363E+02 -0.93014161546E+01 -0.27179745844E+03  0.27262920346E+03  0.41800000000E+01 0.  1.
        -11    1    1    2    0    0 -0.45855180474E+02  0.14373263728E+02 -0.21322856948E+01  0.48102338080E+02  0.00000000000E+00 0. -1.
         11    1    1    2    0    0  0.16312476826E+02  0.11517072845E+02 -0.72836302571E+01  0.21255379009E+02  0.00000000000E+00 0.  1.
</event>
<event>
 7    1  0.2394257E-009  0.8858239E+02  0.7561462E-02  0.1306321E+00
         -1   -1    0    0    0  501 -0.00000000000E+00  0.00000000000E+00  0.19610515761E+03  0.19610515761E+03  0.00000000000E+00 0. -1.
          1   -1    0    0  501    0  0.00000000000E+00 -0.00000000000E+00 -0.66345417767E+02  0.66345417767E+02  0.00000000000E+00 0.  1.
         25    2    1    2    0    0 -0.14425485682E+02  0.22723557081E+02  0.97763579865E+02  0.16103003894E+03  0.12509396952E+03 0.  0.
          5    1    3    3  502    0  0.29755576832E+02 -0.40340618962E+02  0.45918857595E+02  0.68108544058E+02  0.41800000000E+01 0. -1.
         -5    1    3    3    0  502 -0.44181062514E+02  0.63064176043E+02  0.51844722269E+02  0.92921494887E+02  0.41800000000E+01 0. -1.
        -11    1    1    2    0    0  0.29208847335E+02 -0.12475325466E+02 -0.25781070476E+02  0.40907873362E+02  0.00000000000E+00 0.  1.
         11    1    1    2    0    0 -0.14783361652E+02 -0.10248231614E+02  0.57777230449E+02  0.60512663066E+02  0.00000000000E+00 0. -1.
</event>
<event>
 7    1  0.2394257E-009  0.1145678E+03  0.7561462E-02  0.1252337E+00
         -1   -1    0    0    0  501 -0.00000000000E+00  0.00000000000E+00  0.58597577784E+02  0.58597577784E+02  0.00000000000E+00 0.  1.
          1   -1    0    0  501    0  0.00000000000E+00 -0.00000000000E+00 -0.26184913890E+03  0.26184913890E+03  0.00000000000E+00 0. -1.
         25    2    1    2    0    0 -0.33939046692E+02 -0.47675232267E+02 -0.88189424958E+02  0.16385721611E+03  0.12508807271E+03 0.  0.
          5    1    3    3  502    0  0.24237562176E+02  0.21367087716E+02  0.62093901623E+01  0.33166862738E+02  0.41800000000E+01 0.  1.
         -5    1    3    3    0  502 -0.58176608868E+02 -0.69042319983E+02 -0.94398815120E+02  0.13069035337E+03  0.41800000000E+01 0.  1.
        -11    1    1    2    0    0  0.30109194460E+02 -0.21433487345E+02 -0.38062065255E+02  0.53053546369E+02  0.00000000000E+00 0.  1.
         11    1    1    2    0    0  0.38298522323E+01  0.69108719612E+02 -0.77000070902E+02  0.10353595421E+03  0.00000000000E+00 0. -1.
</event>
<event>
 7    1  0.2394257E-009  0.1216949E+03  0.7561462E-02  0.1240327E+00
         -1   -1    0    0    0  501 -0.00000000000E+00  0.00000000000E+00  0.70412287615E+02  0.70412287615E+02  0.00000000000E+00 0.  1.
          1   -1    0    0  501    0  0.00000000000E+00 -0.00000000000E+00 -0.26610019064E+03  0.26610019064E+03  0.00000000000E+00 0. -1.
         25    2    1    2    0    0 -0.25032857387E+02  0.94663892163E+02 -0.12324142067E+03  0.20105533431E+03  0.12508758235E+03 0.  0.
          5    1    3    3  502    0 -0.56377314537E+02  0.80034592673E+02 -0.13269591781E+03  0.16495337711E+03  0.41800000000E+01 0. -1.
         -5    1    3    3    0  502  0.31344457150E+02  0.14629299490E+02  0.94544971369E+01  0.36101957200E+02  0.41800000000E+01 0. -1.
        -11    1    1    2    0    0 -0.11291356871E+02 -0.25949844327E+01  0.18055976977E+01  0.11725564688E+02  0.00000000000E+00 0.  1.
         11    1    1    2    0    0  0.36324214258E+02 -0.92068907730E+02 -0.74252080051E+02  0.12373157925E+03  0.00000000000E+00 0. -1.
</event>
<event>
 7    1  0.2394257E-009  0.2060069E+03  0.7561462E-02  0.1144768E+00
         -2   -1    0    0    0  501 -0.00000000000E+00  0.00000000000E+00  0.40215169632E+03  0.40215169632E+03  0.00000000000E+00 0.  1.
          2   -1    0    0  501    0  0.00000000000E+00 -0.00000000000E+00 -0.11684967696E+03  0.11684967696E+03  0.00000000000E+00 0. -1.
         25    2    1    2    0    0 -0.61077012228E+02 -0.17337487912E+03  0.10503056218E+03  0.24590127894E+03  0.12508704913E+03 0.  0.
          5    1    3    3  502    0 -0.78176467111E+02 -0.18445405340E+03  0.87306080068E+02  0.21857420215E+03  0.41800000000E+01 0. -1.
         -5    1    3    3    0  502  0.17099454884E+02  0.11079174282E+02  0.17724482108E+02  0.27327076794E+02  0.41800000000E+01 0. -1.
        -11    1    1    2    0    0  0.12691670097E+02  0.11182427182E+03  0.54724958661E+02  0.12514218856E+03  0.00000000000E+00 0. -1.
         11    1    1    2    0    0  0.48385342131E+02  0.61550607305E+02  0.12554649852E+03  0.14795790578E+03  0.00000000000E+00 0.  1.
</event>
<event>
 7    1  0.2394257E-009  0.7061237E+02  0.7561462E-02  0.1358023E+00
         -2   -1    0    0    0  501 -0.00000000000E+00  0.00000000000E+00  0.17713121228E+03  0.17713121228E+03  0.00000000000E+00 0.  1.
          2   -1    0    0  501    0  0.00000000000E+00 -0.00000000000E+00 -0.87072116681E+02  0.87072116681E+02  0.00000000000E+00 0. -1.
         25    2    1    2    0    0  0.35833291795E+02 -0.16029140968E+02  0.99012474400E+02  0.16429063196E+03  0.12508790310E+03 0.  0.
          5    1    3    3  502    0  0.14917969680E+02 -0.34666910175E+02  0.12202469671E+03  0.12779608558E+03  0.41800000000E+01 0. -1.
         -5    1    3    3    0  502  0.20915322115E+02  0.18637769207E+02 -0.23012222314E+02  0.36494546387E+02  0.41800000000E+01 0. -1.
        -11    1    1    2    0    0  0.18298387744E+02 -0.57623328544E+00 -0.33518393703E+02  0.38192221135E+02  0.00000000000E+00 0. -1.
         11    1    1    2    0    0 -0.54131679539E+02  0.16605374253E+02  0.24565014907E+02  0.61720475866E+02  0.00000000000E+00 0.  1.
</event>
<event>
 7    1  0.2394257E-009  0.1505857E+03  0.7561462E-02  0.1199755E+00
          1   -1    0    0  501    0  0.00000000000E+00  0.00000000000E+00  0.66866254992E+03  0.66866254992E+03  0.00000000000E+00 0. -1.
         -1   -1    0    0    0  501 -0.00000000000E+00 -0.00000000000E+00 -0.46300613527E+02  0.46300613527E+02  0.00000000000E+00 0.  1.
         25    2    1    2    0    0  0.20089230451E+01 -0.12858307478E+03  0.20899299408E+03  0.27543240809E+03  0.12508915604E+03 0.  0.
          5    1    3    3  502    0  0.39326079780E+02 -0.27394457264E+02  0.10124148408E+02  0.49162664906E+02  0.41800000000E+01 0. -1.
         -5    1    3    3    0  502 -0.37317156735E+02 -0.10118861752E+03  0.19886884567E+03  0.22626974318E+03  0.41800000000E+01 0. -1.
        -11    1    1    2    0    0  0.25492988069E+02  0.10749026397E+03  0.35342555107E+03  0.37028862990E+03  0.00000000000E+00 0. -1.
         11    1    1    2    0    0 -0.27501911114E+02  0.21092810814E+02  0.59943391249E+02  0.69242125454E+02  0.00000000000E+00 0.  1.
</event>
<event>
 7    1  0.2394257E-009  0.1254139E+03  0.7561462E-02  0.1234424E+00
         -2   -1    0    0    0  501 -0.00000000000E+00  0.00000000000E+00  0.93170170031E+02  0.93170170031E+02  0.00000000000E+00 0. -1.
          2   -1    0    0  501    0  0.00000000000E+00 -0.00000000000E+00 -0.36101743242E+03  0.36101743242E+03  0.00000000000E+00 0.  1.
         25    2    1    2    0    0 -0.10874261730E+03  0.59640791782E+01 -0.26303284787E+03  0.31095801686E+03  0.12509229445E+03 0.  0.
          5    1    3    3  502    0 -0.59709535331E+02  0.42159697044E+02 -0.23028975337E+03  0.24164749445E+03  0.41800000000E+01 0. -1.
         -5    1    3    3    0  502 -0.49033081965E+02 -0.36195617866E+02 -0.32743094503E+02  0.69310522414E+02  0.41800000000E+01 0. -1.
        -11    1    1    2    0    0  0.78840087414E+02 -0.22980304552E+02  0.36157070547E+02  0.89728409834E+02  0.00000000000E+00 0. -1.
         11    1    1    2    0    0  0.29902529882E+02  0.17016225374E+02 -0.40971485062E+02  0.53501175759E+02  0.00000000000E+00 0.  1.
</event>
<event>
 7    1  0.2394257E-009  0.1283267E+03  0.7561462E-02  0.1229960E+00
          1   -1    0    0  501    0  0.00000000000E+00  0.00000000000E+00  0.65720404609E+02  0.65720404609E+02  0.00000000000E+00 0. -1.
         -1   -1    0    0    0  501 -0.00000000000E+00 -0.00000000000E+00 -0.38143270488E+03  0.38143270488E+03  0.00000000000E+00 0.  1.
         25    2    1    2    0    0  0.34835371556E+02 -0.73034743912E+02 -0.28106578845E+03  0.31810850265E+03  0.12508982809E+03 0.  0.
          5    1    3    3  502    0 -0.39689709476E+02 -0.49542564275E+02 -0.79070757985E+02  0.10148593933E+03  0.41800000000E+01 0. -1.
         -5    1    3    3    0  502  0.74525081032E+02 -0.23492179637E+02 -0.20199503047E+03  0.21662256332E+03  0.41800000000E+01 0. -1.
        -11    1    1    2    0    0 -0.22878629804E+02  0.90650792461E+02 -0.46775420972E+02  0.10454156055E+03  0.00000000000E+00 0.  1.
         11    1    1    2    0    0 -0.11956741752E+02 -0.17616048548E+02  0.12128909156E+02  0.24503046282E+02  0.00000000000E+00 0. -1.
</event>
<event>
 7    1  0.2394257E-009  0.1448374E+03  0.7561462E-02  0.1206964E+00
          1   -1    0    0  501    0  0.00000000000E+00  0.00000000000E+00  0.43535784744E+02  0.43535784744E+02  0.00000000000E+00 0. -1.
         -1   -1    0    0    0  501 -0.00000000000E+00 -0.00000000000E+00 -0.55596090277E+03  0.55596090277E+03  0.00000000000E+00 0.  1.
         25    2    1    2    0    0 -0.42786365738E+02 -0.99102763905E+02 -0.33009067446E+03  0.36913560749E+03  0.12509681230E+03 0.  0.
          5    1    3    3  502    0 -0.62319269580E+02 -0.11688076393E+03 -0.30465304372E+03  0.33222846625E+03  0.41800000000E+01 0. -1.
         -5    1    3    3    0  502  0.19532903842E+02  0.17778000021E+02 -0.25437630739E+02  0.36907141244E+02  0.41800000000E+01 0. -1.
        -11    1    1    2    0    0  0.34988253938E+02  0.11088963187E+03 -0.18230164921E+03  0.21622807328E+03  0.00000000000E+00 0.  1.
         11    1    1    2    0    0  0.77981118004E+01 -0.11786867967E+02 -0.32794359627E-01  0.14133006743E+02  0.00000000000E+00 0. -1.
</event>
<event>
 7    1  0.2394257E-009  0.1024064E+03  0.7561462E-02  0.1275315E+00
         -1   -1    0    0    0  501 -0.00000000000E+00  0.00000000000E+00  0.98596082735E+02  0.98596082735E+02  0.00000000000E+00 0.  1.
          1   -1    0    0  501    0  0.00000000000E+00 -0.00000000000E+00 -0.19297514949E+03  0.19297514949E+03  0.00000000000E+00 0. -1.
         25    2    1    2    0    0  0.79392715399E+02 -0.40031379141E+01 -0.62423687215E+02  0.16081971376E+03  0.12508810990E+03 0.  0.
          5    1    3    3  502    0  0.55195592600E+01 -0.12866893182E+02  0.35137146001E+02  0.38054091812E+02  0.41800000000E+01 0. -1.
         -5    1    3    3    0  502  0.73873156139E+02  0.88637552681E+01 -0.97560833216E+02  0.12276562195E+03  0.41800000000E+01 0. -1.
        -11    1    1    2    0    0 -0.74721549588E+02  0.36283059043E+02  0.27693265941E+01  0.83111007190E+02  0.00000000000E+00 0.  1.
         11    1    1    2    0    0 -0.46711658113E+01 -0.32279921129E+02 -0.34724706133E+02  0.47640511271E+02  0.00000000000E+00 0. -1.
</event>
<event>
 7    1  0.2394257E-009  0.1036972E+03  0.7561462E-02  0.1272708E+00
          1   -1    0    0  501    0  0.00000000000E+00  0.00000000000E+00  0.21201935515E+03  0.21201935515E+03  0.00000000000E+00 0. -1.
         -1   -1    0    0    0  501 -0.00000000000E+00 -0.00000000000E+00 -0.76029121186E+02  0.76029121186E+02  0.00000000000E+00 0.  1.
         25    2    1    2    0    0  0.33236560209E+02  0.43840631302E+02  0.32548297142E+02  0.14047694042E+03  0.12509080404E+03 0.  0.
          5    1    3    3  502    0 -0.35651041724E+02 -0.17418247878E+01  0.44184002038E+02  0.56953745844E+02  0.41800000000E+01 0.  1.
         -5    1    3    3    0  502  0.68887601933E+02  0.45582456090E+02 -0.11635704896E+02  0.83523194573E+02  0.41800000000E+01 0.  1.
        -11    1    1    2    0    0  0.34481295825E+01 -0.51213918739E+02  0.96801376539E+02  0.10956852454E+03  0.00000000000E+00 0. -1.
         11    1    1    2    0    0 -0.36684689791E+02  0.73732874367E+01  0.66405602790E+01  0.38003011375E+02  0.00000000000E+00 0.  1.
</event>
<event>
 7    1  0.2394257E-009  0.1176799E+03  0.7561462E-02  0.1246974E+00
         -3   -1    0    0    0  501 -0.00000000000E+00  0.00000000000E+00  0.13269713717E+03  0.13269713717E+03  0.00000000000E+00 0.  1.
          3   -1    0    0  501    0  0.00000000000E+00 -0.00000000000E+00 -0.13417088048E+03  0.13417088048E+03  0.00000000000E+00 0. -1.
         25    2    1    2    0    0  0.15055875215E+02  0.76397441888E+02 -0.12446775024E+02  0.14787219712E+03  0.12509203000E+03 0.  0.
          5    1    3    3  502    0 -0.52415228235E+02  0.12834183722E+02 -0.10051037173E+02  0.55050596464E+02  0.41800000000E+01 0.  1.
         -5    1    3    3    0  502  0.67471103450E+02  0.63563258165E+02 -0.23957378506E+01  0.92821600661E+02  0.41800000000E+01 0.  1.
        -11    1    1    2    0    0  0.14474520940E+02 -0.18894240103E+02 -0.33092264523E+02  0.40762753057E+02  0.00000000000E+00 0.  1.
         11    1    1    2    0    0 -0.29530396155E+02 -0.57503201785E+02  0.44065296245E+02  0.78233067470E+02  0.00000000000E+00 0. -1.
</event>
<event>
 7    1  0.2394257E-009  0.1248665E+03  0.7561462E-02  0.1235278E+00
         -1   -1    0    0    0  501 -0.00000000000E+00  0.00000000000E+00  0.37243090312E+02  0.37243090312E+02  0.00000000000E+00 0.  1.
          1   -1    0    0  501    0  0.00000000000E+00 -0.00000000000E+00 -0.49875443634E+03  0.49875443634E+03  0.00000000000E+00 0. -1.
         25    2    1    2    0    0 -0.23222698771E+01  0.82216399172E+02 -0.24919574133E+03  0.29070765546E+03  0.12508994450E+03 0.  0.
          5    1    3    3  502    0  0.45859996406E+02  0.54038244179E+02 -0.21182175716E+03  0.22340367121E+03  0.41800000000E+01 0. -1.
         -5    1    3    3    0  502 -0.48182266283E+02  0.28178154993E+02 -0.37373984169E+02  0.67303984248E+02  0.41800000000E+01 0. -1.
        -11    1    1    2    0    0  0.46741714568E+02 -0.42634152788E+02 -0.10508479243E+03  0.12265917196E+03  0.00000000000E+00 0.  1.
         11    1    1    2    0    0 -0.44419444691E+02 -0.39582246384E+02 -0.10723081226E+03  0.12263069923E+03  0.00000000000E+00 0. -1.
</event>
<event>
 7    1  0.2394257E-009  0.1453898E+03  0.7561462E-02  0.1206255E+00
         -1   -1    0    0    0  501 -0.00000000000E+00  0.00000000000E+00  0.18673937252E+03  0.18673937252E+03  0.00000000000E+00 0.  1.
          1   -1    0    0  501    0  0.00000000000E+00 -0.00000000000E+00 -0.16617804100E+03  0.16617804100E+03  0.00000000000E+00 0. -1.
         25    2    1    2    0    0  0.81825869597E+02 -0.77914114965E+02  0.91423030798E+02  0.19175916961E+03  0.12508927341E+03 0.  0.
          5    1    3    3  502    0 -0.24066470835E+02 -0.53609356477E+02  0.41857199915E+02  0.72267943828E+02  0.41800000000E+01 0.  1.
         -5    1    3    3    0  502  0.10589234043E+03 -0.24304758488E+02  0.49565830883E+02  0.11949122578E+03  0.41800000000E+01 0.  1.
        -11    1    1    2    0    0 -0.49931861466E+02  0.76326065270E+02 -0.86410093302E+02  0.12564061148E+03  0.00000000000E+00 0.  1.
         11    1    1    2    0    0 -0.31894008131E+02  0.15880496951E+01  0.15548394028E+02  0.35517632428E+02  0.00000000000E+00 0. -1.
</event>
<event>
 7    1  0.2394257E-009  0.1157097E+03  0.7561462E-02  0.1250347E+00
          1   -1    0    0  501    0  0.00000000000E+00  0.00000000000E+00  0.19117809800E+04  0.19117809800E+04  0.00000000000E+00 0. -1.
         -1   -1    0    0    0  501 -0.00000000000E+00 -0.00000000000E+00 -0.86829868874E+01  0.86829868874E+01  0.00000000000E+00 0.  1.
         25    2    1    2    0    0  0.36733127372E+02  0.18754228132E+02  0.14682056058E+04  0.14741018658E+04  0.12509023244E+03 0.  0.
          5    1    3    3  502    0  0.78736400034E+02 -0.11138498087E+02  0.94246793472E+03  0.94582597089E+03  0.41800000000E+01 0.  1.
         -5    1    3    3    0  502 -0.42003272662E+02  0.29892726219E+02  0.52573767108E+03  0.52827589495E+03  0.41800000000E+01 0.  1.
        -11    1    1    2    0    0  0.19306293251E+02  0.23111705991E+02  0.15151215099E+03  0.15447593926E+03  0.00000000000E+00 0.  1.
         11    1    1    2    0    0 -0.56039420623E+02 -0.41865934123E+02  0.28338023630E+03  0.29188616176E+03  0.00000000000E+00 0. -1.
</event>
<event>
 7    1  0.2394257E-009  0.1027359E+03  0.7561462E-02  0.1274646E+00
          2   -1    0    0  501    0  0.00000000000E+00  0.00000000000E+00  0.11226521458E+03  0.11226521458E+03  0.00000000000E+00 0. -1.
         -2   -1    0    0    0  501 -0.00000000000E+00 -0.00000000000E+00 -0.15657541813E+03  0.15657541813E+03  0.00000000000E+00 0.  1.
         25    2    1    2    0    0 -0.49130012615E+01 -0.20476927752E+02  0.48195163761E+02  0.13568848927E+03  0.12508057466E+03 0.  0.
          5    1    3    3  502    0 -0.26363007189E+02 -0.67707020987E+02  0.16073259227E+02  0.74532348019E+02  0.41800000000E+01 0. -1.
         -5    1    3    3    0  502  0.21450005928E+02  0.47230093235E+02  0.32121904534E+02  0.61156141247E+02  0.41800000000E+01 0. -1.
        -11    1    1    2    0    0 -0.25932042430E+02  0.37368496478E+02 -0.14754889890E+02  0.47818219637E+02  0.00000000000E+00 0. -1.
         11    1    1    2    0    0  0.30845043692E+02 -0.16891568725E+02 -0.77750477417E+02  0.85333923811E+02  0.00000000000E+00 0.  1.
</event>
<event>
 7    1  0.2394257E-009  0.1163851E+03  0.7561462E-02  0.1249182E+00
         -2   -1    0    0    0  501 -0.00000000000E+00  0.00000000000E+00  0.77839983871E+02  0.77839983871E+02  0.00000000000E+00 0.  1.
          2   -1    0    0  501    0  0.00000000000E+00 -0.00000000000E+00 -0.21235586412E+03  0.21235586412E+03  0.00000000000E+00 0. -1.
         25    2    1    2    0    0  0.60147544263E+01  0.64483107740E+02 -0.10246073680E+03  0.17418411287E+03  0.12509058372E+03 0.  0.
          5    1    3    3  502    0  0.49368783309E+02  0.78148350713E+02 -0.83906884293E+02  0.12490908340E+03  0.41800000000E+01 0.  1.
         -5    1    3    3    0  502 -0.43354028882E+02 -0.13665242973E+02 -0.18553852510E+02  0.49275029465E+02  0.41800000000E+01 0.  1.
        -11    1    1    2    0    0  0.25336814063E+02 -0.56972738159E+02 -0.49265824376E+02  0.79466776024E+02  0.00000000000E+00 0. -1.
         11    1    1    2    0    0 -0.31351568489E+02 -0.75103695815E+01  0.17210680926E+02  0.36544959104E+02  0.00000000000E+00 0.  1.
</event>
<event>
 7    1  0.4868595E-009  0.1102559E+03  0.7561462E-02  0.1260097E+00
         -2   -1    0    0    0  501 -0.00000000000E+00  0.00000000000E+00  0.49172330460E+02  0.49172330460E+02  0.00000000000E+00 0.  1.
          2   -1    0    0  501    0  0.00000000000E+00 -0.00000000000E+00 -0.45770509733E+03  0.45770509733E+03  0.00000000000E+00 0. -1.
         25    2    1    2    0    0 -0.61188793003E+01 -0.90429826705E+02 -0.30399701013E+03  0.34099581754E+03  0.12509584794E+03 0.  0.
          5    1    3    3  502    0 -0.11531107607E+02 -0.72969757791E+02 -0.31196619413E+03  0.32062116379E+03  0.41800000000E+01 0. -1.
         -5    1    3    3    0  502  0.54122283063E+01 -0.17460068914E+02  0.79691839993E+01  0.20374653748E+02  0.41800000000E+01 0. -1.
        -11    1    1    2    0    0 -0.37411642087E+02  0.14262642143E+02 -0.42799528508E+02  0.58607623779E+02  0.00000000000E+00 0. -1.
         11    1    1    2    0    0  0.43530521387E+02  0.76167184562E+02 -0.61736228236E+02  0.10727398647E+03  0.00000000000E+00 0.  1.
</event>
<event>
 7    1  0.2394257E-009  0.9682207E+02  0.7561462E-02  0.1287124E+00
         -2   -1    0    0    0  501 -0.00000000000E+00  0.00000000000E+00  0.62256503310E+02  0.62256503310E+02  0.00000000000E+00 0.  1.
          2   -1    0    0  501    0  0.00000000000E+00 -0.00000000000E+00 -0.44817763005E+03  0.44817763005E+03  0.00000000000E+00 0. -1.
         25    2    1    2    0    0  0.12041764485E+02 -0.42586004319E+02 -0.38601030260E+03  0.40817884583E+03  0.12508974624E+03 0.  0.
          5    1    3    3  502    0  0.59112053713E+02 -0.21518736507E+02 -0.30924071584E+03  0.31560193861E+03  0.41800000000E+01 0.  1.
         -5    1    3    3    0  502 -0.47070289228E+02 -0.21067267812E+02 -0.76769586757E+02  0.92576907228E+02  0.41800000000E+01 0.  1.
        -11    1    1    2    0    0 -0.34402285567E+02  0.45009714321E+01  0.32448901833E+02  0.47504812663E+02  0.00000000000E+00 0.  1.
         11    1    1    2    0    0  0.22360521082E+02  0.38085032887E+02 -0.32359725974E+02  0.54750474867E+02  0.00000000000E+00 0. -1.
</event>
<event>
 7    1  0.2394257E-009  0.5316181E+02  0.7561462E-02  0.1428997E+00
         -3   -1    0    0    0  501 -0.00000000000E+00  0.00000000000E+00  0.66166847743E+02  0.66166847743E+02  0.00000000000E+00 0.  1.
          3   -1    0    0  501    0  0.00000000000E+00 -0.00000000000E+00 -0.18455441557E+03  0.18455441557E+03  0.00000000000E+00 0. -1.
         25    2    1    2    0    0  0.12715767810E+02  0.18547289481E+02 -0.75415220546E+02  0.14777788490E+03  0.12508059433E+03 0.  0.
          5    1    3    3  502    0 -0.32670504511E+01  0.67062761701E+01 -0.10856050395E+03  0.10889675467E+03  0.41800000000E+01 0. -1.
         -5    1    3    3    0  502  0.15982818261E+02  0.11841013311E+02  0.33145283408E+02  0.38881130231E+02  0.41800000000E+01 0. -1.
        -11    1    1    2    0    0 -0.22754356393E+02  0.24387424887E+02  0.92335683177E+01  0.34608756281E+02  0.00000000000E+00 0.  1.
         11    1    1    2    0    0  0.10038588582E+02 -0.42934714367E+02 -0.52205915598E+02  0.68334622132E+02  0.00000000000E+00 0. -1.
</event>
<event>
 7    1  0.2394257E-009  0.1189897E+03  0.7561462E-02  0.1244773E+00
          2   -1    0    0  501    0  0.00000000000E+00  0.00000000000E+00  0.35590552162E+03  0.35590552162E+03  0.00000000000E+00 0.  1.
         -2   -1    0    0    0  501 -0.00000000000E+00 -0.00000000000E+00 -0.44482123569E+02  0.44482123569E+02  0.00000000000E+00 0. -1.
         25    2    1    2    0    0  0.35768962109E+02  0.35904396010E+02  0.23205539445E+03  0.26844989163E+03  0.12508834446E+03 0.  0.
          5    1    3    3  502    0 -0.22979414288E+02  0.63871398852E+02  0.96823278591E+02  0.11832087199E+03  0.41800000000E+01 0.  1.
         -5    1    3    3    0  502  0.58748376397E+02 -0.27967002842E+02  0.13523211585E+03  0.15012901963E+03  0.41800000000E+01 0.  1.
        -11    1    1    2    0    0  0.23919062177E+02 -0.38164966624E+02  0.27087070851E+02  0.52558497126E+02  0.00000000000E+00 0.  1.
         11    1    1    2    0    0 -0.59688024287E+02  0.22605706138E+01  0.52280932753E+02  0.79379256436E+02  0.00000000000E+00 0. -1.
</event>
<event>
 7    1  0.2394257E-009  0.1046635E+03  0.7561462E-02  0.1270784E+00
         -1   -1    0    0    0  501 -0.00000000000E+00  0.00000000000E+00  0.67316386602E+02  0.67316386602E+02  0.00000000000E+00 0.  1.
          1   -1    0    0  501    0  0.00000000000E+00 -0.00000000000E+00 -0.36689674288E+03  0.36689674288E+03  0.00000000000E+00 0. -1.
         25    2    1    2    0    0  0.35060656091E+02 -0.83598269693E+01 -0.30147025951E+03  0.32837562316E+03  0.12508835358E+03 0.  0.
          5    1    3    3  502    0  0.54977314062E+02  0.28291964782E+02 -0.71513434010E+02  0.94628663610E+02  0.41800000000E+01 0. -1.
         -5    1    3    3    0  502 -0.19916657971E+02 -0.36651791752E+02 -0.22995682550E+03  0.23374695955E+03  0.41800000000E+01 0. -1.
        -11    1    1    2    0    0  0.30250058424E+02 -0.17777159064E+02  0.48955053419E+01  0.35426817407E+02  0.00000000000E+00 0.  1.
         11    1    1    2    0    0 -0.65310714515E+02  0.26136986033E+02 -0.30056021058E+01  0.70410688914E+02  0.00000000000E+00 0. -1.
</event>
<event>
 7    1  0.2394257E-009  0.6867470E+02  0.7561462E-02  0.1364659E+00
          2   -1    0    0  501    0  0.00000000000E+00  0.00000000000E+00  0.26416842959E+03  0.26416842959E+03  0.00000000000E+00 0. -1.
         -2   -1    0    0    0  501 -0.00000000000E+00 -0.00000000000E+00 -0.46802593870E+02  0.46802593870E+02  0.00000000000E+00 0.  1.
         25    2    1    2    0    0 -0.33129447875E+01  0.21915271856E+02  0.16055616280E+03  0.20473634615E+03  0.12508970891E+03 0.  0.
          5    1    3    3  502    0  0.17951750733E+02  0.33190444369E+02  0.17314208896E+03  0.17725553961E+03  0.41800000000E+01 0.  1.
         -5    1    3    3    0  502 -0.21264695521E+02 -0.11275172512E+02 -0.12585926159E+02  0.27480806539E+02  0.41800000000E+01 0.  1.
        -11    1    1    2    0    0 -0.82790899608E+01 -0.46787427205E+02  0.52189012220E+01  0.47800037709E+02  0.00000000000E+00 0.  1.
         11    1    1    2    0    0  0.11592034748E+02  0.24872155349E+02  0.51590771690E+02  0.58434639597E+02  0.00000000000E+00 0. -1.
</event>
<event>
 7    1  0.2394257E-009  0.8413930E+02  0.7561462E-02  0.1317699E+00
         -2   -1    0    0    0  501 -0.00000000000E+00  0.00000000000E+00  0.23800516675E+02  0.23800516675E+02  0.00000000000E+00 0.  1.
          2   -1    0    0  501    0  0.00000000000E+00 -0.00000000000E+00 -0.58620306362E+03  0.58620306362E+03  0.00000000000E+00 0. -1.
         25    2    1    2    0    0  0.19546115077E+02 -0.29188266237E+02 -0.24306164483E+03  0.27560941563E+03  0.12509029258E+03 0.  0.
          5    1    3    3  502    0  0.41595431856E+02 -0.35354176638E+02 -0.32302284032E+02  0.63568920950E+02  0.41800000000E+01 0.  1.
         -5    1    3    3    0  502 -0.22049316779E+02  0.61659104007E+01 -0.21075936079E+03  0.21204049468E+03  0.41800000000E+01 0.  1.
        -11    1    1    2    0    0 -0.43491330837E+02 -0.97241276840E+01 -0.22740737598E+03  0.23173296953E+03  0.00000000000E+00 0. -1.
         11    1    1    2    0    0  0.23945215761E+02  0.38912393921E+02 -0.91933526139E+02  0.10266119514E+03  0.00000000000E+00 0.  1.
</event>
<event>
 7    1  0.2394257E-009  0.1953369E+03  0.7561462E-02  0.1153734E+00
         -1   -1    0    0    0  501 -0.00000000000E+00  0.00000000000E+00  0.11975072548E+03  0.11975072548E+03  0.00000000000E+00 0.  1.
          1   -1    0    0  501    0  0.00000000000E+00 -0.00000000000E+00 -0.50786624532E+03  0.50786624532E+03  0.00000000000E+00 0. -1.
         25    2    1    2    0    0  0.14829459444E+03 -0.98136978921E+02 -0.36509323089E+03  0.42492415781E+03  0.12508125069E+03 0.  0.
          5    1    3    3  502    0  0.11200330872E+03 -0.30565525210E+02 -0.11566353191E+03  0.16393449152E+03  0.41800000000E+01 0. -1.
         -5    1    3    3    0  502  0.36291285721E+02 -0.67571453711E+02 -0.24942969898E+03  0.26098966629E+03  0.41800000000E+01 0. -1.
        -11    1    1    2    0    0 -0.92088624915E+02  0.92946723382E+01 -0.30095072344E+02  0.97326353841E+02  0.00000000000E+00 0.  1.
         11    1    1    2    0    0 -0.56205969525E+02  0.88842306583E+02  0.70727834016E+01  0.10536645915E+03  0.00000000000E+00 0. -1.
</event>
<event>
 7    1  0.2394257E-009  0.1219282E+03  0.7561462E-02  0.1239950E+00
         -3   -1    0    0    0  501 -0.00000000000E+00  0.00000000000E+00  0.19022977690E+03  0.19022977690E+03  0.00000000000E+00 0.  1.
          3   -1    0    0  501    0  0.00000000000E+00 -0.00000000000E+00 -0.10066107424E+03  0.10066107424E+03  0.00000000000E+00 0. -1.
         25    2    1    2    0    0  0.52829444080E+02 -0.64439461458E+02  0.29286832449E+02  0.15312966014E+03  0.12509028701E+03 0.  0.
          5    1    3    3  502    0 -0.26230414307E+02 -0.16600294651E+02 -0.29909088381E+02  0.43308548636E+02  0.41800000000E+01 0. -1.
         -5    1    3    3    0  502  0.79059858387E+02 -0.47839166807E+02  0.59195920829E+02  0.10982111150E+03  0.41800000000E+01 0. -1.
        -11    1    1    2    0    0 -0.53118361909E+02  0.84587397642E+02  0.61962487650E+02  0.11754121867E+03  0.00000000000E+00 0.  1.
         11    1    1    2    0    0  0.28891782858E+00 -0.20147936184E+02 -0.16806174384E+01  0.20219972329E+02  0.00000000000E+00 0. -1.
</event>
<event>
 7    1  0.2394257E-009  0.1222759E+03  0.7561462E-02  0.1239389E+00
          2   -1    0    0  501    0  0.00000000000E+00  0.00000000000E+00  0.20392031153E+02  0.20392031153E+02  0.00000000000E+00 0.  1.
         -2   -1    0    0    0  501 -0.00000000000E+00 -0.00000000000E+00 -0.11805509568E+04  0.11805509568E+04  0.00000000000E+00 0. -1.
         25    2    1    2    0    0 -0.52356836872E+01 -0.10837190648E+03 -0.73485012213E+03  0.75327576214E+03  0.12509112415E+03 0.  0.
          5    1    3    3  502    0  0.23328888408E+02 -0.57209722373E+02 -0.63044075684E+03  0.63347471113E+03  0.41800000000E+01 0. -1.
         -5    1    3    3    0  502 -0.28564572095E+02 -0.51162184104E+02 -0.10440936529E+03  0.11980105101E+03  0.41800000000E+01 0. -1.
        -11    1    1    2    0    0  0.32446596200E+02  0.52118454394E+02 -0.31465124406E+03  0.32058465385E+03  0.00000000000E+00 0.  1.
         11    1    1    2    0    0 -0.27210912513E+02  0.56253452083E+02 -0.11065755944E+03  0.12708257194E+03  0.00000000000E+00 0. -1.
</event>
<event>
 7    1  0.2467818E-009  0.7214863E+02  0.7561462E-02  0.1352935E+00
          2   -1    0    0  501    0  0.00000000000E+00  0.00000000000E+00  0.12742327021E+04  0.12742327021E+04  0.00000000000E+00 0. -1.
         -2   -1    0    0    0  501 -0.00000000000E+00 -0.00000000000E+00 -0.14978080775E+02  0.14978080775E+02  0.00000000000E+00 0.  1.
         25    2    1    2    0    0 -0.31910892868E+02  0.60080141763E+02  0.93133362961E+03  0.94215645834E+03  0.12509409990E+03 0.  0.
          5    1    3    3  502    0 -0.11868816162E+02  0.11296930415E+02  0.10715834757E+02  0.20019763945E+02  0.41800000000E+01 0. -1.
         -5    1    3    3    0  502 -0.20042076706E+02  0.48783211348E+02  0.92061779485E+03  0.92213669439E+03  0.41800000000E+01 0. -1.
        -11    1    1    2    0    0  0.37136709875E+02 -0.44018917625E+02  0.32481492972E+03  0.32988109812E+03  0.00000000000E+00 0. -1.
         11    1    1    2    0    0 -0.52258170072E+01 -0.16061224138E+02  0.31060619900E+01  0.17173226409E+02  0.00000000000E+00 0.  1.
</event>
<event>
 7    1  0.2394257E-009  0.1321522E+03  0.7561462E-02  0.1224297E+00
          3   -1    0    0  501    0  0.00000000000E+00  0.00000000000E+00  0.30026293430E+02  0.30026293430E+02  0.00000000000E+00 0. -1.
         -3   -1    0    0    0  501 -0.00000000000E+00 -0.00000000000E+00 -0.66116866840E+03  0.66116866840E+03  0.00000000000E+00 0.  1.
         25    2    1    2    0    0  0.84483814810E+02 -0.24303159585E+02 -0.40617733269E+03  0.43400002288E+03  0.12509130962E+03 0.  0.
          5    1    3    3  502    0  0.32732932572E+02 -0.71993473193E+02 -0.25848025622E+03  0.27034056358E+03  0.41800000000E+01 0.  1.
         -5    1    3    3    0  502  0.51750882237E+02  0.47690313608E+02 -0.14769707647E+03  0.16365945931E+03  0.41800000000E+01 0.  1.
        -11    1    1    2    0    0 -0.20008539961E+02 -0.26018342297E+02 -0.25342985035E+02  0.41467610225E+02  0.00000000000E+00 0. -1.
         11    1    1    2    0    0 -0.64475274848E+02  0.50321501882E+02 -0.19962205725E+03  0.21572732872E+03  0.00000000000E+00 0.  1.
</event>
<event>
 7    1  0.2394257E-009  0.2676380E+03  0.7561462E-02  0.1102639E+00
          1   -1    0    0  501    0  0.00000000000E+00  0.00000000000E+00  0.42674204418E+03  0.42674204418E+03  0.00000000000E+00 0. -1.
         -1   -1    0    0    0  501 -0.00000000000E+00 -0.00000000000E+00 -0.27460490762E+03  0.27460490762E+03  0.00000000000E+00 0.  1.
         25    2    1    2    0    0 -0.19807767341E+02 -0.26103431454E+03  0.27371847944E+03  0.39887445353E+03  0.12509101755E+03 0.  0.
          5    1    3    3  502    0 -0.29638406480E+02 -0.46755251487E+02  0.60635006038E+01  0.55845564908E+02  0.41800000000E+01 0.  1.
         -5    1    3    3    0  502  0.98306391395E+01 -0.21427906306E+03  0.26765497884E+03  0.34302888862E+03  0.41800000000E+01 0.  1.
        -11    1    1    2    0    0  0.25597221320E+02  0.78064429186E+02  0.99958136191E+00  0.82160038988E+02  0.00000000000E+00 0.  1.
         11    1    1    2    0    0 -0.57894539796E+01  0.18296988536E+03 -0.12258092425E+03  0.22031245928E+03  0.00000000000E+00 0. -1.
</event>
<event>
 7    1  0.2394257E-009  0.1016119E+03  0.7561462E-02  0.1276942E+00
          2   -1    0    0  501    0  0.00000000000E+00  0.00000000000E+00  0.59565061238E+02  0.59565061238E+02  0.00000000000E+00 0. -1.
         -2   -1    0    0    0  501 -0.00000000000E+00 -0.00000000000E+00 -0.27316089937E+03  0.27316089937E+03  0.00000000000E+00 0.  1.
         25    2    1    2    0    0 -0.35983444108E+02 -0.55359067434E+02 -0.10347237127E+03  0.17525427210E+03  0.12509234060E+03 0.  0.
          5    1    3    3  502    0  0.34180011932E+02 -0.13030148058E+02  0.71694640009E+01  0.37509086741E+02  0.41800000000E+01 0.  1.
         -5    1    3    3    0  502 -0.70163456040E+02 -0.42328919376E+02 -0.11064183527E+03  0.13774518536E+03  0.41800000000E+01 0.  1.
        -11    1    1    2    0    0  0.38005215396E+02  0.10468396608E+02 -0.97233837053E+00  0.39432590161E+02  0.00000000000E+00 0. -1.
         11    1    1    2    0    0 -0.20217712886E+01  0.44890670826E+02 -0.10915112849E+03  0.11803909834E+03  0.00000000000E+00 0.  1.
</event>
<event>
 7    1  0.2394257E-009  0.9194702E+02  0.7561462E-02  0.1298204E+00
         -2   -1    0    0    0  501 -0.00000000000E+00  0.00000000000E+00  0.21773720392E+02  0.21773720392E+02  0.00000000000E+00 0.  1.
          2   -1    0    0  501    0  0.00000000000E+00 -0.00000000000E+00 -0.89249552759E+03  0.89249552759E+03  0.00000000000E+00 0. -1.
         25    2    1    2    0    0 -0.42433193694E+02 -0.51841433640E+02 -0.69585931834E+03  0.71017960243E+03  0.12508703616E+03 0.  0.
          5    1    3    3  502    0 -0.22830207652E+02 -0.54623022998E+02 -0.68431223122E+03  0.68688106337E+03  0.41800000000E+01 0. -1.
         -5    1    3    3    0  502 -0.19602986042E+02  0.27815893585E+01 -0.11547087120E+02  0.23298539055E+02  0.41800000000E+01 0. -1.
        -11    1    1    2    0    0  0.28185996960E+01  0.63070471923E+02 -0.11876676117E+03  0.13450417277E+03  0.00000000000E+00 0.  1.
         11    1    1    2    0    0  0.39614593998E+02 -0.11229038283E+02 -0.56095727684E+02  0.69585472785E+02  0.00000000000E+00 0. -1.
</event>
<event>
 7    1  0.2394257E-009  0.1567063E+03  0.7561462E-02  0.1192466E+00
          1   -1    0    0  501    0  0.00000000000E+00  0.00000000000E+00  0.52662489545E+02  0.52662489545E+02  0.00000000000E+00 0. -1.
         -1   -1    0    0    0  501 -0.00000000000E+00 -0.00000000000E+00 -0.53474387559E+03  0.53474387559E+03  0.00000000000E+00 0.  1.
         25    2    1    2    0    0  0.10560112177E+03 -0.65251708522E+02 -0.30533293741E+03  0.35254068882E+03  0.12508937694E+03 0.  0.
          5    1    3    3  502    0 -0.15196677692E+02  0.12420897438E+02 -0.99623057153E+02  0.10162403073E+03  0.41800000000E+01 0. -1.
         -5    1    3    3    0  502  0.12079779946E+03 -0.77672605960E+02 -0.20570988026E+03  0.25091665809E+03  0.41800000000E+01 0. -1.
        -11    1    1    2    0    0 -0.11985316651E+03  0.62442265135E+02 -0.17360054105E+03  0.22000219510E+03  0.00000000000E+00 0.  1.
         11    1    1    2    0    0  0.14252044739E+02  0.28094433872E+01 -0.31479075757E+01  0.14863481204E+02  0.00000000000E+00 0. -1.
</event>
<event>
 7    1  0.2394257E-009  0.1721553E+03  0.7561462E-02  0.1175619E+00
          2   -1    0    0  501    0  0.00000000000E+00  0.00000000000E+00  0.17449917935E+04  0.17449917935E+04  0.00000000000E+00 0. -1.
         -2   -1    0    0    0  501 -0.00000000000E+00 -0.00000000000E+00 -0.23358925701E+02  0.23358925701E+02  0.00000000000E+00 0.  1.
         25    2    1    2    0    0 -0.16166754400E+03 -0.42855565652E+02  0.10208928886E+04  0.10420378867E+04  0.12509065997E+03 0.  0.
          5    1    3    3  502    0 -0.10846082504E+03 -0.21117237408E+01  0.87166859382E+03  0.87840299396E+03  0.41800000000E+01 0. -1.
         -5    1    3    3    0  502 -0.53206718963E+02 -0.40743841911E+02  0.14922429474E+03  0.16363489278E+03  0.41800000000E+01 0. -1.
        -11    1    1    2    0    0  0.70312625073E+02  0.77618704622E+01  0.13745469457E+03  0.15458947227E+03  0.00000000000E+00 0.  1.
         11    1    1    2    0    0  0.91354918932E+02  0.35093695190E+02  0.56328528471E+03  0.57172336023E+03  0.00000000000E+00 0. -1.
</event>
<event>
 7    1  0.2394257E-009  0.2028578E+03  0.7561462E-02  0.1147350E+00
         -2   -1    0    0    0  501 -0.00000000000E+00  0.00000000000E+00  0.13996391039E+03  0.13996391039E+03  0.00000000000E+00 0.  1.
          2   -1    0    0  501    0  0.00000000000E+00 -0.00000000000E+00 -0.32262139013E+03  0.32262139013E+03  0.00000000000E+00 0. -1.
         25    2    1    2    0    0  0.11106120002E+03  0.13601170147E+03 -0.14893409829E+03  0.26203471015E+03  0.12508817133E+03 0.  0.
          5    1    3    3  502    0  0.13806105031E+03  0.11054411528E+03 -0.13345135268E+03  0.22160232618E+03  0.41800000000E+01 0.  1.
         -5    1    3    3    0  502 -0.26999850293E+02  0.25467586183E+02 -0.15482745607E+02  0.40432383968E+02  0.41800000000E+01 0.  1.
        -11    1    1    2    0    0 -0.10088964248E+01 -0.54477853217E+02 -0.32770618027E+02  0.63582763144E+02  0.00000000000E+00 0. -1.
         11    1    1    2    0    0 -0.11005230360E+03 -0.81533848248E+02 -0.95276341768E+00  0.13696782723E+03  0.00000000000E+00 0.  1.
</event>
<event>
 7    1  0.2394257E-009  0.7070632E+02  0.7561462E-02  0.1357708E+00
          2   -1    0    0  501    0  0.00000000000E+00  0.00000000000E+00  0.30745599063E+03  0.30745599063E+03  0.00000000000E+00 0. -1.
         -2   -1    0    0    0  501 -0.00000000000E+00 -0.00000000000E+00 -0.42561338312E+02  0.42561338312E+02  0.00000000000E+00 0.  1.
         25    2    1    2    0    0  0.31599710485E+02  0.25030005772E+02  0.15259990245E+03  0.20139459928E+03  0.12509201213E+03 0.  0.
          5    1    3    3  502    0 -0.71651936772E+01  0.66466231599E+01 -0.20454889149E+02  0.23051951978E+02  0.41800000000E+01 0. -1.
         -5    1    3    3    0  502  0.38764904163E+02  0.18383382612E+02  0.17305479160E+03  0.17834264730E+03  0.41800000000E+01 0. -1.
        -11    1    1    2    0    0  0.26201286016E+02 -0.88173570840E+01  0.69792713847E+02  0.75068475947E+02  0.00000000000E+00 0. -1.
         11    1    1    2    0    0 -0.57800996501E+02 -0.16212648688E+02  0.42502036023E+02  0.73554253719E+02  0.00000000000E+00 0.  1.
</event>
<event>
 7    1  0.2394257E-009  0.1434660E+03  0.7561462E-02  0.1208740E+00
         -2   -1    0    0    0  501 -0.00000000000E+00  0.00000000000E+00  0.27890030082E+02  0.27890030082E+02  0.00000000000E+00 0.  1.
          2   -1    0    0  501    0  0.00000000000E+00 -0.00000000000E+00 -0.10386396328E+04  0.10386396328E+04  0.00000000000E+00 0. -1.
         25    2    1    2    0    0 -0.33359677959E+02  0.90819136125E+02 -0.26412728300E+03  0.30785356122E+03  0.12509840099E+03 0.  0.
          5    1    3    3  502    0 -0.10057949770E+02  0.11734321124E+03 -0.23068738230E+03  0.25904581126E+03  0.41800000000E+01 0. -1.
         -5    1    3    3    0  502 -0.23301728189E+02 -0.26524075116E+02 -0.33439900700E+02  0.48807749961E+02  0.41800000000E+01 0. -1.
        -11    1    1    2    0    0  0.63931712602E+01 -0.10352498011E+03 -0.61807228280E+03  0.62671495986E+03  0.00000000000E+00 0.  1.
         11    1    1    2    0    0  0.26966506699E+02  0.12705843985E+02 -0.12855003690E+03  0.13196114179E+03  0.00000000000E+00 0. -1.
</event>
<event>
 7    1  0.2394257E-009  0.1043791E+03  0.7561462E-02  0.1271348E+00
          1   -1    0    0  501    0  0.00000000000E+00  0.00000000000E+00  0.30495276260E+02  0.30495276260E+02  0.00000000000E+00 0. -1.
         -1   -1    0    0    0  501 -0.00000000000E+00 -0.00000000000E+00 -0.39150796877E+03  0.39150796877E+03  0.00000000000E+00 0.  1.
         25    2    1    2    0    0  0.80622127789E+01  0.15426096877E+02 -0.17455975063E+03  0.21545717603E+03  0.12509086466E+03 0.  0.
          5    1    3    3  502    0 -0.43770599332E+02 -0.28381302253E+02 -0.44496869327E+02  0.68693576580E+02  0.41800000000E+01 0.  1.
         -5    1    3    3    0  502  0.51832812111E+02  0.43807399131E+02 -0.13006288131E+03  0.14676359945E+03  0.41800000000E+01 0.  1.
        -11    1    1    2    0    0 -0.87931924067E+01 -0.51552141134E+02 -0.12010865437E+03  0.13100012344E+03  0.00000000000E+00 0. -1.
         11    1    1    2    0    0  0.73097962776E+00  0.36126044257E+02 -0.66344287512E+02  0.75545945558E+02  0.00000000000E+00 0.  1.
</event>
<event>
 7    1  0.2394257E-009  0.1377007E+03  0.7561462E-02  0.1216457E+00
         -1   -1    0    0    0  501 -0.00000000000E+00  0.00000000000E+00  0.76033457545E+02  0.76033457545E+02  0.00000000000E+00 0.  1.
          1   -1    0    0  501    0  0.00000000000E+00 -0.00000000000E+00 -0.31399933981E+03  0.31399933981E+03  0.00000000000E+00 0. -1.
         25    2    1    2    0    0  0.85437545485E+02 -0.48583279155E+02 -0.18972744235E+03  0.24759464085E+03  0.12508674831E+03 0.  0.
          5    1    3    3  502    0  0.77697068254E+02 -0.86984836404E+02 -0.16093576466E+03  0.19879886550E+03  0.41800000000E+01 0. -1.
         -5    1    3    3    0  502  0.77404772308E+01  0.38401557249E+02 -0.28791677692E+02  0.48795775342E+02  0.41800000000E+01 0. -1.
        -11    1    1    2    0    0 -0.77357920657E+02  0.78325516823E+01  0.13271325639E+01  0.77764760882E+02  0.00000000000E+00 0. -1.
         11    1    1    2    0    0 -0.80796248286E+01  0.40750727472E+02 -0.49565572479E+02  0.64673395628E+02  0.00000000000E+00 0.  1.
</event>
<event>
 7    1  0.2394257E-009  0.1776571E+03  0.7561462E-02  0.1170090E+00
          2   -1    0    0  501    0  0.00000000000E+00  0.00000000000E+00  0.59570836289E+03  0.59570836289E+03  0.00000000000E+00 0.  1.
         -2   -1    0    0    0  501 -0.00000000000E+00 -0.00000000000E+00 -0.70552838116E+02  0.70552838116E+02  0.00000000000E+00 0. -1.
         25    2    1    2    0    0 -0.10611736002E+03  0.11634967091E+03  0.15669861774E+03  0.25495154035E+03  0.12509073149E+03 0.  0.
          5    1    3    3  502    0  0.11241492962E+02  0.25098252174E+02 -0.11793933232E+02  0.30213617581E+02  0.41800000000E+01 0.  1.
         -5    1    3    3    0  502 -0.11735885298E+03  0.91251418740E+02  0.16849255098E+03  0.22473792277E+03  0.41800000000E+01 0.  1.
        -11    1    1    2    0    0 -0.14356928383E+02 -0.19425668354E+02  0.25589467835E+02  0.35189470693E+02  0.00000000000E+00 0. -1.
         11    1    1    2    0    0  0.12047428840E+03 -0.96924002560E+02  0.34286743920E+03  0.37612018997E+03  0.00000000000E+00 0.  1.
</event>
<event>
 7    1  0.2394257E-009  0.1047277E+03  0.7561462E-02  0.1270657E+00
         -2   -1    0    0    0  501 -0.00000000000E+00  0.00000000000E+00  0.73762295833E+03  0.73762295833E+03  0.00000000000E+00 0.  1.
          2   -1    0    0  501    0  0.00000000000E+00 -0.00000000000E+00 -0.17694312631E+02  0.17694312631E+02  0.00000000000E+00 0. -1.
         25    2    1    2    0    0  0.64912131774E+01  0.21214280084E+02  0.35645091748E+03  0.37841374746E+03  0.12509007221E+03 0.  0.
          5    1    3    3  502    0 -0.49314225266E+02 -0.15806775373E+01  0.25943736137E+03  0.26412044266E+03  0.41800000000E+01 0.  1.
         -5    1    3    3    0  502  0.55805438444E+02  0.22794957622E+02  0.97013556107E+02  0.11429330480E+03  0.41800000000E+01 0.  1.
        -11    1    1    2    0    0 -0.91312381977E+01  0.38587370891E+02  0.13365769757E+03  0.13941572660E+03  0.00000000000E+00 0. -1.
         11    1    1    2    0    0  0.26400250202E+01 -0.59801650975E+02  0.22982003065E+03  0.23748779690E+03  0.00000000000E+00 0.  1.
</event>
<event>
 7    1  0.2394257E-009  0.1010775E+03  0.7561462E-02  0.1278046E+00
         -2   -1    0    0    0  501 -0.00000000000E+00  0.00000000000E+00  0.43396695498E+02  0.43396695498E+02  0.00000000000E+00 0.  1.
          2   -1    0    0  501    0  0.00000000000E+00 -0.00000000000E+00 -0.35807295477E+03  0.35807295477E+03  0.00000000000E+00 0. -1.
         25    2    1    2    0    0  0.56902712819E+02 -0.50019089224E+01 -0.13803771389E+03  0.19484848964E+03  0.12509430698E+03 0.  0.
          5    1    3    3  502    0 -0.69849864953E+01  0.25264586636E+02  0.11853378207E+02  0.29069990525E+02  0.41800000000E+01 0.  1.
         -5    1    3    3    0  502  0.63887699314E+02 -0.30266495559E+02 -0.14989109210E+03  0.16577849911E+03  0.41800000000E+01 0.  1.
        -11    1    1    2    0    0 -0.75299003069E+02 -0.15889217077E+02 -0.10854815203E+03  0.13306054408E+03  0.00000000000E+00 0. -1.
         11    1    1    2    0    0  0.18396290250E+02  0.20891125999E+02 -0.68090393346E+02  0.73560616545E+02  0.00000000000E+00 0.  1.
</event>
<event>
 7    1  0.2394257E-009  0.8720404E+02  0.7561462E-02  0.1309767E+00
          1   -1    0    0  501    0  0.00000000000E+00  0.00000000000E+00  0.63252700845E+02  0.63252700845E+02  0.00000000000E+00 0. -1.
         -1   -1    0    0    0  501 -0.00000000000E+00 -0.00000000000E+00 -0.24984846779E+03  0.24984846779E+03  0.00000000000E+00 0.  1.
         25    2    1    2    0    0 -0.53002277490E+02 -0.18925810705E+02 -0.14238162310E+03  0.19770082379E+03  0.12508261830E+03 0.  0.
          5    1    3    3  502    0  0.89631701427E+01 -0.11374342558E+02 -0.13368918066E+03  0.13453617919E+03  0.41800000000E+01 0. -1.
         -5    1    3    3    0  502 -0.61965447633E+02 -0.75514681476E+01 -0.86924424479E+01  0.63164644598E+02  0.41800000000E+01 0. -1.
        -11    1    1    2    0    0 -0.20189062038E+02  0.11423502387E+02 -0.33942600363E+02  0.41111978208E+02  0.00000000000E+00 0.  1.
         11    1    1    2    0    0  0.73191339528E+02  0.75023083181E+01 -0.10271543480E+02  0.74288366636E+02  0.00000000000E+00 0. -1.
</event>
<event>
 7    1  0.2394257E-009  0.1122120E+03  0.7561462E-02  0.1256528E+00
          1   -1    0    0  501    0  0.00000000000E+00  0.00000000000E+00  0.34604704121E+03  0.34604704121E+03  0.00000000000E+00 0. -1.
         -1   -1    0    0    0  501 -0.00000000000E+00 -0.00000000000E+00 -0.42844346433E+02  0.42844346433E+02  0.00000000000E+00 0.  1.
         25    2    1    2    0    0  0.35660984909E+02 -0.69781569465E+00  0.24065780662E+03  0.27356167923E+03  0.12509044595E+03 0.  0.
          5    1    3    3  502    0 -0.36270751997E+02  0.33391135641E+02  0.77028149447E+02  0.91549678301E+02  0.41800000000E+01 0. -1.
         -5    1    3    3    0  502  0.71931736906E+02 -0.34088951336E+02  0.16362965717E+03  0.18201200093E+03  0.41800000000E+01 0. -1.
        -11    1    1    2    0    0  0.80633327464E+01 -0.36776759738E+02  0.14545394488E+02  0.40362307821E+02  0.00000000000E+00 0. -1.
         11    1    1    2    0    0 -0.43724317655E+02  0.37474575432E+02  0.47999493670E+02  0.74967400588E+02  0.00000000000E+00 0.  1.
</event>
<event>
 7    1  0.2394257E-009  0.5976517E+02  0.7561462E-02  0.1398820E+00
          2   -1    0    0  501    0  0.00000000000E+00  0.00000000000E+00  0.13254707656E+03  0.13254707656E+03  0.00000000000E+00 0. -1.
         -2   -1    0    0    0  501 -0.00000000000E+00 -0.00000000000E+00 -0.97512638625E+02  0.97512638625E+02  0.00000000000E+00 0.  1.
         25    2    1    2    0    0 -0.18481028546E+02 -0.89181242507E+01  0.46066028838E+02  0.13487779728E+03  0.12509540291E+03 0.  0.
          5    1    3    3  502    0  0.86378782674E+01  0.21468046082E+02 -0.36096049662E+02  0.43080008644E+02  0.41800000000E+01 0.  1.
         -5    1    3    3    0  502 -0.27118906814E+02 -0.30386170332E+02  0.82162078501E+02  0.91797788632E+02  0.41800000000E+01 0.  1.
        -11    1    1    2    0    0 -0.10038952758E+01 -0.20097460887E+02  0.33191499111E+02  0.38814834189E+02  0.00000000000E+00 0. -1.
         11    1    1    2    0    0  0.19484923822E+02  0.29015585138E+02 -0.44223090012E+02  0.56367083723E+02  0.00000000000E+00 0.  1.
</event>
<event>
 7    1  0.2394257E-009  0.1377326E+03  0.7561462E-02  0.1216413E+00
         -2   -1    0    0    0  501 -0.00000000000E+00  0.00000000000E+00  0.74645784900E+02  0.74645784900E+02  0.00000000000E+00 0.  1.
          2   -1    0    0  501    0  0.00000000000E+00 -0.00000000000E+00 -0.25830209906E+03  0.25830209906E+03  0.00000000000E+00 0. -1.
         25    2    1    2    0    0  0.56427483926E+01 -0.84498058302E+02 -0.80820237660E+02  0.17132187068E+03  0.12509000797E+03 0.  0.
          5    1    3    3  502    0 -0.50147956075E+02 -0.80179439245E+02 -0.45624314180E+02  0.10508382568E+03  0.41800000000E+01 0.  1.
         -5    1    3    3    0  502  0.55790704468E+02 -0.43186190563E+01 -0.35195923480E+02  0.66238044998E+02  0.41800000000E+01 0.  1.
        -11    1    1    2    0    0  0.61616805658E+01 -0.19280490746E+02 -0.16993773321E+02  0.26428998515E+02  0.00000000000E+00 0.  1.
         11    1    1    2    0    0 -0.11804428958E+02  0.10377854905E+03 -0.85842303182E+02  0.13519701476E+03  0.00000000000E+00 0. -1.
</event>
<event>
 7    1  0.2394257E-009  0.9371030E+02  0.7561462E-02  0.1294108E+00
         -2   -1    0    0    0  501 -0.00000000000E+00  0.00000000000E+00  0.33372917131E+02  0.33372917131E+02  0.00000000000E+00 0.  1.
          2   -1    0    0  501    0  0.00000000000E+00 -0.00000000000E+00 -0.11331805886E+04  0.11331805886E+04  0.00000000000E+00 0. -1.
         25    2    1    2    0    0  0.33330704928E+02  0.68782354861E+02 -0.10028246189E+04  0.10134828401E+04  0.12509317645E+03 0.  0.
          5    1    3    3  502    0  0.27395688059E+02  0.58990456250E+02 -0.19572945280E+03  0.20629563434E+03  0.41800000000E+01 0. -1.
         -5    1    3    3    0  502  0.59350168691E+01  0.97918986115E+01 -0.80709516607E+03  0.80718720579E+03  0.41800000000E+01 0. -1.
        -11    1    1    2    0    0  0.26289034215E+02 -0.20484539495E+02 -0.56792691843E+01  0.33808043078E+02  0.00000000000E+00 0.  1.
         11    1    1    2    0    0 -0.59619739143E+02 -0.48297815366E+02 -0.91303783404E+02  0.11926262251E+03  0.00000000000E+00 0. -1.
</event>
<event>
 7    1  0.2394257E-009  0.1148064E+03  0.7561462E-02  0.1251919E+00
         -3   -1    0    0    0  501 -0.00000000000E+00  0.00000000000E+00  0.86992222492E+03  0.86992222492E+03  0.00000000000E+00 0. -1.
          3   -1    0    0  501    0  0.00000000000E+00 -0.00000000000E+00 -0.24536335290E+02  0.24536335290E+02  0.00000000000E+00 0.  1.
         25    2    1    2    0    0  0.45199758357E+00  0.97099598204E+02  0.43607451489E+03  0.46393583831E+03  0.12508774224E+03 0.  0.
          5    1    3    3  502    0  0.15402629550E+02  0.50170959294E+02  0.43591467347E+02  0.68352429211E+02  0.41800000000E+01 0. -1.
         -5    1    3    3    0  502 -0.14950631966E+02  0.46928638909E+02  0.39248304754E+03  0.39558340910E+03  0.41800000000E+01 0. -1.
        -11    1    1    2    0    0 -0.41492117931E+02 -0.52689425545E+02  0.15092406327E+03  0.16515400174E+03  0.00000000000E+00 0. -1.
         11    1    1    2    0    0  0.41040120347E+02 -0.44410172658E+02  0.25838731147E+03  0.26536872017E+03  0.00000000000E+00 0.  1.
</event>
<event>
 7    1  0.2394257E-009  0.1276356E+03  0.7561462E-02  0.1231007E+00
          2   -1    0    0  501    0  0.00000000000E+00  0.00000000000E+00  0.40666423095E+04  0.40666423095E+04  0.00000000000E+00 0. -1.
         -2   -1    0    0    0  501 -0.00000000000E+00 -0.00000000000E+00 -0.80015814712E+01  0.80015814712E+01  0.00000000000E+00 0.  1.
         25    2    1    2    0    0  0.21028917269E+02 -0.89307663901E+02  0.34733739309E+04  0.34768364009E+04  0.12508725290E+03 0.  0.
          5    1    3    3  502    0  0.56027184663E+02 -0.81386829635E+02  0.31310670784E+04  0.31326285102E+04  0.41800000000E+01 0. -1.
         -5    1    3    3    0  502 -0.34998267394E+02 -0.79208342656E+01  0.34230685253E+03  0.34420789071E+03  0.41800000000E+01 0. -1.
        -11    1    1    2    0    0 -0.42321467502E+02  0.18282835370E+02  0.17977099313E+03  0.18558819642E+03  0.00000000000E+00 0. -1.
         11    1    1    2    0    0  0.21292550233E+02  0.71024828531E+02  0.40549580399E+03  0.41221929360E+03  0.00000000000E+00 0.  1.
</event>
<event>
 7    1  0.2394257E-009  0.8613997E+02  0.7561462E-02  0.1312478E+00
          1   -1    0    0  501    0  0.00000000000E+00  0.00000000000E+00  0.16503973587E+03  0.16503973587E+03  0.00000000000E+00 0. -1.
         -1   -1    0    0    0  501 -0.00000000000E+00 -0.00000000000E+00 -0.71757619523E+02  0.71757619523E+02  0.00000000000E+00 0.  1.
         25    2    1    2    0    0 -0.79192404593E+01  0.25789031456E+01  0.42600505222E+02  0.13240575183E+03  0.12508842856E+03 0.  0.
          5    1    3    3  502    0  0.54120073696E+02  0.96920503789E+00  0.44468030911E+02  0.70176918630E+02  0.41800000000E+01 0.  1.
         -5    1    3    3    0  502 -0.62039314155E+02  0.16096981078E+01 -0.18675256894E+01  0.62228833197E+02  0.41800000000E+01 0.  1.
        -11    1    1    2    0    0  0.19466165346E+02  0.21549710394E+02 -0.15565049427E+02  0.32948328866E+02  0.00000000000E+00 0.  1.
         11    1    1    2    0    0 -0.11546924887E+02 -0.24128613540E+02  0.66246660555E+02  0.71443274703E+02  0.00000000000E+00 0. -1.
</event>
<event>
 7    1  0.2394257E-009  0.7038116E+02  0.7561462E-02  0.1358802E+00
          1   -1    0    0  501    0  0.00000000000E+00  0.00000000000E+00  0.42856396697E+02  0.42856396697E+02  0.00000000000E+00 0. -1.
         -1   -1    0    0    0  501 -0.00000000000E+00 -0.00000000000E+00 -0.35373470151E+03  0.35373470151E+03  0.00000000000E+00 0.  1.
         25    2    1    2    0    0  0.44327532755E+01  0.57062072222E+02 -0.14229860248E+03  0.19791817783E+03  0.12508790292E+03 0.  0.
          5    1    3    3  502    0 -0.53170190838E+00  0.27715591395E+02 -0.16040081944E+03  0.16283222037E+03  0.41800000000E+01 0. -1.
         -5    1    3    3    0  502  0.49644551838E+01  0.29346480827E+02  0.18102216955E+02  0.35085957460E+02  0.41800000000E+01 0. -1.
        -11    1    1    2    0    0 -0.49402497473E+01  0.12327887827E+02  0.29797757749E+01  0.13611096558E+02  0.00000000000E+00 0. -1.
         11    1    1    2    0    0  0.50749647188E+00 -0.69389960049E+02 -0.17155947811E+03  0.18506182382E+03  0.00000000000E+00 0.  1.
</event>
<event>
 7    1  0.2394257E-009  0.1570519E+03  0.7561462E-02  0.1192066E+00
         -2   -1    0    0    0  501 -0.00000000000E+00  0.00000000000E+00  0.42409141355E+02  0.42409141355E+02  0.00000000000E+00 0.  1.
          2   -1    0    0  501    0  0.00000000000E+00 -0.00000000000E+00 -0.83060980047E+03  0.83060980047E+03  0.00000000000E+00 0. -1.
         25    2    1    2    0    0  0.50872704847E+02  0.11539226621E+03 -0.61610778160E+03  0.64120176790E+03  0.12508997329E+03 0.  0.
          5    1    3    3  502    0  0.79220771419E+02  0.10659104786E+03 -0.36730138895E+03  0.39059616592E+03  0.41800000000E+01 0.  1.
         -5    1    3    3    0  502 -0.28348066572E+02  0.88012183520E+01 -0.24880639264E+03  0.25060560198E+03  0.41800000000E+01 0.  1.
        -11    1    1    2    0    0 -0.70302840567E+02 -0.59565040193E+02 -0.78138698100E+02  0.12081448401E+03  0.00000000000E+00 0.  1.
         11    1    1    2    0    0  0.19430135720E+02 -0.55827226014E+02 -0.93954179419E+02  0.11100268992E+03  0.00000000000E+00 0. -1.
</event>
<event>
 7    1  0.3230947E-009  0.9480508E+02  0.7561462E-02  0.1291616E+00
          1   -1    0    0  501    0  0.00000000000E+00  0.00000000000E+00  0.37000001964E+03  0.37000001964E+03  0.00000000000E+00 0. -1.
         -1   -1    0    0    0  501 -0.00000000000E+00 -0.00000000000E+00 -0.36180343460E+02  0.36180343460E+02  0.00000000000E+00 0.  1.
         25    2    1    2    0    0 -0.37516320515E+02  0.44816662144E+01  0.16356349770E+03  0.20935415781E+03  0.12509430833E+03 0.  0.
          5    1    3    3  502    0  0.10580976693E+02 -0.46769481984E+02  0.11253842027E+03  0.12239979555E+03  0.41800000000E+01 0.  1.
         -5    1    3    3    0  502 -0.48097297208E+02  0.51251148198E+02  0.51025077435E+02  0.86954362269E+02  0.41800000000E+01 0.  1.
        -11    1    1    2    0    0  0.87059761709E+01  0.27014046275E+02  0.86400333527E+01  0.29668213522E+02  0.00000000000E+00 0.  1.
         11    1    1    2    0    0  0.28810344344E+02 -0.31495712489E+02  0.16161614512E+03  0.16715799176E+03  0.00000000000E+00 0. -1.
</event>
<event>
 7    1  0.2394257E-009  0.1516152E+03  0.7561462E-02  0.1198502E+00
         -1   -1    0    0    0  501 -0.00000000000E+00  0.00000000000E+00  0.13886045261E+03  0.13886045261E+03  0.00000000000E+00 0.  1.
          1   -1    0    0  501    0  0.00000000000E+00 -0.00000000000E+00 -0.31026487863E+03  0.31026487863E+03  0.00000000000E+00 0. -1.
         25    2    1    2    0    0  0.35286925646E+02 -0.12706555997E+03 -0.21682989046E+03  0.28293632588E+03  0.12508772704E+03 0.  0.
          5    1    3    3  502    0  0.27566311749E+01  0.13263366451E+02  0.77033626850E+01  0.16134748269E+02  0.41800000000E+01 0. -1.
         -5    1    3    3    0  502  0.32530294471E+02 -0.14032892642E+03 -0.22453325315E+03  0.26680157761E+03  0.41800000000E+01 0. -1.
        -11    1    1    2    0    0  0.11839344592E+02  0.69716215146E+02  0.57301919622E+02  0.91016650823E+02  0.00000000000E+00 0.  1.
         11    1    1    2    0    0 -0.47126270237E+02  0.57349344823E+02 -0.11876455179E+02  0.75172354531E+02  0.00000000000E+00 0. -1.
</event>
<event>
 7    1  0.2394257E-009  0.1683225E+03  0.7561462E-02  0.1179609E+00
          2   -1    0    0  501    0  0.00000000000E+00  0.00000000000E+00  0.10141884608E+04  0.10141884608E+04  0.00000000000E+00 0. -1.
         -2   -1    0    0    0  501 -0.00000000000E+00 -0.00000000000E+00 -0.43387823548E+02  0.43387823548E+02  0.00000000000E+00 0.  1.
         25    2    1    2    0    0 -0.15821802968E+03  0.28684176176E+02  0.30533419754E+03  0.36705991480E+03  0.12509309328E+03 0.  0.
          5    1    3    3  502    0 -0.11760835688E+03  0.48819005306E+02  0.29359997353E+03  0.32005224221E+03  0.41800000000E+01 0. -1.
         -5    1    3    3    0  502 -0.40609672797E+02 -0.20134829130E+02  0.11734224006E+02  0.47007672584E+02  0.41800000000E+01 0. -1.
        -11    1    1    2    0    0  0.11679441210E+03 -0.71026991703E+01  0.59204422262E+03  0.60349626724E+03  0.00000000000E+00 0. -1.
         11    1    1    2    0    0  0.41423617581E+02 -0.21581477006E+02  0.73422217092E+02  0.87020102310E+02  0.00000000000E+00 0.  1.
</event>
<event>
 7    1  0.2394257E-009  0.1636935E+03  0.7561462E-02  0.1184589E+00
         -2   -1    0    0    0  501 -0.00000000000E+00  0.00000000000E+00  0.13432648542E+03  0.13432648542E+03  0.00000000000E+00 0.  1.
          2   -1    0    0  501    0  0.00000000000E+00 -0.00000000000E+00 -0.27263272524E+03  0.27263272524E+03  0.00000000000E+00 0. -1.
         25    2    1    2    0    0  0.14076614886E+03  0.70824520780E+02 -0.79077541288E+02  0.21617505884E+03  0.12508867702E+03 0.  0.
          5    1    3    3  502    0  0.14232106792E+03  0.63500083027E+02 -0.20814153302E+02  0.15728397342E+03  0.41800000000E+01 0. -1.
         -5    1    3    3    0  502 -0.15549190612E+01  0.73244377532E+01 -0.58263387986E+02  0.58891085415E+02  0.41800000000E+01 0. -1.
        -11    1    1    2    0    0 -0.31554792391E+02 -0.36899462342E+02  0.19097939918E+02  0.52172852644E+02  0.00000000000E+00 0.  1.
         11    1    1    2    0    0 -0.10921135647E+03 -0.33925058438E+02 -0.78326638449E+02  0.13861129919E+03  0.00000000000E+00 0. -1.
</event>
<event>
 7    1  0.2394257E-009  0.2238012E+03  0.7561462E-02  0.1131080E+00
         -1   -1    0    0    0  501 -0.00000000000E+00  0.00000000000E+00  0.13277834215E+04  0.13277834215E+04  0.00000000000E+00 0.  1.
          1   -1    0    0  501    0  0.00000000000E+00 -0.00000000000E+00 -0.42604583014E+02  0.42604583014E+02  0.00000000000E+00 0. -1.
         25    2    1    2    0    0 -0.13718397660E+03  0.15047351665E+03  0.49081840387E+03  0.54590465496E+03  0.12508982409E+03 0.  0.
          5    1    3    3  502    0 -0.10891726547E+03  0.27422864274E+02  0.24373641193E+03  0.26840248714E+03  0.41800000000E+01 0. -1.
         -5    1    3    3    0  502 -0.28266711125E+02  0.12305065237E+03  0.24708199194E+03  0.27750216783E+03  0.41800000000E+01 0. -1.
        -11    1    1    2    0    0  0.11682494199E+03 -0.97613133208E+02  0.68037012235E+03  0.69719430163E+03  0.00000000000E+00 0.  1.
         11    1    1    2    0    0  0.20359034611E+02 -0.52860383438E+02  0.11399031224E+03  0.12728904789E+03  0.00000000000E+00 0. -1.
</event>
<event>
 7    1  0.2394257E-009  0.1045528E+03  0.7561462E-02  0.1271003E+00
         -1   -1    0    0    0  501 -0.00000000000E+00  0.00000000000E+00  0.53214785062E+02  0.53214785062E+02  0.00000000000E+00 0.  1.
          1   -1    0    0  501    0  0.00000000000E+00 -0.00000000000E+00 -0.30661289525E+03  0.30661289525E+03  0.00000000000E+00 0. -1.
         25    2    1    2    0    0  0.26939202482E+02  0.57223237674E+02 -0.11469434203E+03  0.18111495347E+03  0.12509042616E+03 0.  0.
          5    1    3    3  502    0 -0.48785114282E+02  0.13628900236E+02 -0.56778854256E+02  0.76203969633E+02  0.41800000000E+01 0. -1.
         -5    1    3    3    0  502  0.75724316763E+02  0.43594337438E+02 -0.57915487778E+02  0.10491098384E+03  0.41800000000E+01 0. -1.
        -11    1    1    2    0    0 -0.27971531437E+02 -0.22055147080E+02 -0.13903748958E+03  0.14352790527E+03  0.00000000000E+00 0. -1.
         11    1    1    2    0    0  0.10323289553E+01 -0.35168090594E+02  0.33372141775E+00  0.35184821573E+02  0.00000000000E+00 0.  1.
</event>
<event>
 7    1  0.2394257E-009  0.1066516E+03  0.7561462E-02  0.1266899E+00
          2   -1    0    0  501    0  0.00000000000E+00  0.00000000000E+00  0.11577752940E+04  0.11577752940E+04  0.00000000000E+00 0.  1.
         -2   -1    0    0    0  501 -0.00000000000E+00 -0.00000000000E+00 -0.14305800553E+02  0.14305800553E+02  0.00000000000E+00 0. -1.
         25    2    1    2    0    0 -0.41266754165E+02 -0.47947170419E+02  0.73388109706E+03  0.74714759949E+03  0.12508474984E+03 0.  0.
          5    1    3    3  502    0  0.17669861566E+02  0.14382231911E+02  0.29293501601E+02  0.37345069803E+02  0.41800000000E+01 0. -1.
         -5    1    3    3    0  502 -0.58936615731E+02 -0.62329402330E+02  0.70458759546E+03  0.70980252969E+03  0.41800000000E+01 0. -1.
        -11    1    1    2    0    0  0.66613017639E+02  0.39969016628E+02  0.36372592501E+03  0.37192924721E+03  0.00000000000E+00 0.  1.
         11    1    1    2    0    0 -0.25346263474E+02  0.79781537916E+01  0.45862471405E+02  0.53004247880E+02  0.00000000000E+00 0. -1.
</event>
<event>
 7    1  0.2394257E-009  0.1050878E+03  0.7561462E-02  0.1269947E+00
         -2   -1    0    0    0  501 -0.00000000000E+00  0.00000000000E+00  0.10608473560E+03  0.10608473560E+03  0.00000000000E+00 0.  1.
          2   -1    0    0  501    0  0.00000000000E+00 -0.00000000000E+00 -0.11909681264E+03  0.11909681264E+03  0.00000000000E+00 0. -1.
         25    2    1    2    0    0 -0.15199207016E+02  0.36656220732E+01  0.18263802901E+02  0.12737839358E+03  0.12508891228E+03 0.  0.
          5    1    3    3  502    0  0.30173837922E+02  0.50887099038E+02  0.16674388053E+00  0.59308157508E+02  0.41800000000E+01 0. -1.
         -5    1    3    3    0  502 -0.45373044938E+02 -0.47221476965E+02  0.18097059021E+02  0.68070236072E+02  0.41800000000E+01 0. -1.
        -11    1    1    2    0    0 -0.29421099696E+02 -0.22274546729E+02 -0.32888713759E+02  0.49431002741E+02  0.00000000000E+00 0. -1.
         11    1    1    2    0    0  0.44620306712E+02  0.18608924655E+02  0.16128338131E+01  0.48372151915E+02  0.00000000000E+00 0.  1.
</event>
<event>
 7    1  0.2394257E-009  0.2546910E+03  0.7561462E-02  0.1110376E+00
         -1   -1    0    0    0  501 -0.00000000000E+00  0.00000000000E+00  0.17892463349E+03  0.17892463349E+03  0.00000000000E+00 0.  1.
          1   -1    0    0  501    0  0.00000000000E+00 -0.00000000000E+00 -0.40342845229E+03  0.40342845229E+03  0.00000000000E+00 0. -1.
         25    2    1    2    0    0  0.21900856771E+03 -0.11110753514E+03 -0.11010244310E+03  0.29678450173E+03  0.12509538517E+03 0.  0.
          5    1    3    3  502    0  0.73737292380E+01 -0.39258789365E+02 -0.52212069118E+02  0.65872581450E+02  0.41800000000E+01 0. -1.
         -5    1    3    3    0  502  0.21163483848E+03 -0.71848745772E+02 -0.57890373985E+02  0.23091192028E+03  0.41800000000E+01 0. -1.
        -11    1    1    2    0    0 -0.70878886326E+02  0.32285083109E+02  0.73850074659E+01  0.78234784166E+02  0.00000000000E+00 0.  1.
         11    1    1    2    0    0 -0.14812968139E+03  0.78822452027E+02 -0.12178638316E+03  0.20733379988E+03  0.00000000000E+00 0. -1.
</event>
<event>
 7    1  0.2394257E-009  0.9003510E+02  0.7561462E-02  0.1302767E+00
          2   -1    0    0  501    0  0.00000000000E+00  0.00000000000E+00  0.20183035329E+02  0.20183035329E+02  0.00000000000E+00 0. -1.
         -2   -1    0    0    0  501 -0.00000000000E+00 -0.00000000000E+00 -0.59340452256E+03  0.59340452256E+03  0.00000000000E+00 0.  1.
         25    2    1    2    0    0 -0.14146496874E+02  0.61485886403E+01 -0.35096498960E+03  0.37290863219E+03  0.12508595254E+03 0.  0.
          5    1    3    3  502    0 -0.15840632455E+02 -0.48738350048E+02 -0.27087065508E+03  0.27570770135E+03  0.41800000000E+01 0. -1.
         -5    1    3    3    0  502  0.16941355816E+01  0.54886938688E+02 -0.80094334526E+02  0.97200930845E+02  0.41800000000E+01 0. -1.
        -11    1    1    2    0    0  0.25319291720E+01 -0.38821628928E+02 -0.18782663357E+03  0.19181338279E+03  0.00000000000E+00 0.  1.
         11    1    1    2    0    0  0.11614567702E+02  0.32673040287E+02 -0.34429864059E+02  0.48865542908E+02  0.00000000000E+00 0. -1.
</event>
<event>
 7    1  0.2394257E-009  0.1116653E+03  0.7561462E-02  0.1257517E+00
          1   -1    0    0  501    0  0.00000000000E+00  0.00000000000E+00  0.89762625979E+02  0.89762625979E+02  0.00000000000E+00 0. -1.
         -1   -1    0    0    0  501 -0.00000000000E+00 -0.00000000000E+00 -0.16107246652E+03  0.16107246652E+03  0.00000000000E+00 0.  1.
         25    2    1    2    0    0 -0.34651364311E+02  0.38486838894E+02 -0.29575383345E+02  0.13857860613E+03  0.12508945983E+03 0.  0.
          5    1    3    3  502    0 -0.73935623531E+02  0.65383930305E+01 -0.43191543608E+02  0.85977955603E+02  0.41800000000E+01 0.  1.
         -5    1    3    3    0  502  0.39284259220E+02  0.31948445864E+02  0.13616160263E+02  0.52600650527E+02  0.41800000000E+01 0.  1.
        -11    1    1    2    0    0 -0.11579969339E+02 -0.49350195917E+02 -0.26654001653E+01  0.50760633221E+02  0.00000000000E+00 0.  1.
         11    1    1    2    0    0  0.46231333650E+02  0.10863357023E+02 -0.39069057026E+02  0.61495853143E+02  0.00000000000E+00 0. -1.
</event>
<event>
 7    1  0.2394257E-009  0.1210985E+03  0.7561462E-02  0.1241296E+00
          2   -1    0    0  501    0  0.00000000000E+00  0.00000000000E+00  0.90210568660E+03  0.90210568660E+03  0.00000000000E+00 0. -1.
         -2   -1    0    0    0  501 -0.00000000000E+00 -0.00000000000E+00 -0.17503118583E+02  0.17503118583E+02  0.00000000000E+00 0.  1.
         25    2    1    2    0    0  0.54789262318E+02  0.31350136891E+02  0.52468799529E+03  0.54307400480E+03  0.12508872031E+03 0.  0.
          5    1    3    3  502    0  0.90972088400E+02  0.43701295507E+02  0.35568505921E+03  0.36974999370E+03  0.41800000000E+01 0.  1.
         -5    1    3    3    0  502 -0.36182826082E+02 -0.12351158616E+02  0.16900293608E+03  0.17332401110E+03  0.41800000000E+01 0.  1.
        -11    1    1    2    0    0  0.19365636326E+02 -0.19765246469E+02  0.45226100638E+02  0.53019741769E+02  0.00000000000E+00 0.  1.
         11    1    1    2    0    0 -0.74154898644E+02 -0.11584890422E+02  0.31468847209E+03  0.32351505861E+03  0.00000000000E+00 0. -1.
</event>
<event>
 7    1  0.2394257E-009  0.1197577E+03  0.7561462E-02  0.1243497E+00
         -1   -1    0    0    0  501 -0.00000000000E+00  0.00000000000E+00  0.38922662494E+02  0.38922662494E+02  0.00000000000E+00 0.  1.
          1   -1    0    0  501    0  0.00000000000E+00 -0.00000000000E+00 -0.55094311746E+03  0.55094311746E+03  0.00000000000E+00 0. -1.
         25    2    1    2    0    0  0.37958331092E+02  0.69799451425E+02 -0.39104853991E+03  0.41818535253E+03  0.12508888914E+03 0.  0.
          5    1    3    3  502    0 -0.80365478604E+01  0.94809797910E+02 -0.23655764309E+03  0.25501073465E+03  0.41800000000E+01 0. -1.
         -5    1    3    3    0  502  0.45994878952E+02 -0.25010346484E+02 -0.15449089681E+03  0.16317461788E+03  0.41800000000E+01 0. -1.
        -11    1    1    2    0    0 -0.12033244821E+02 -0.64084738243E+02 -0.21394414622E+02  0.68624876201E+02  0.00000000000E+00 0.  1.
         11    1    1    2    0    0 -0.25925086271E+02 -0.57147131823E+01 -0.99577500437E+02  0.10305555122E+03  0.00000000000E+00 0. -1.
</event>
<event>
 7    1  0.2394257E-009  0.1023098E+03  0.7561462E-02  0.1275512E+00
         -4   -1    0    0    0  501 -0.00000000000E+00  0.00000000000E+00  0.15465812888E+03  0.15465812888E+03  0.00000000000E+00 0.  1.
          4   -1    0    0  501    0  0.00000000000E+00 -0.00000000000E+00 -0.11851661173E+03  0.11851661173E+03  0.00000000000E+00 0. -1.
         25    2    1    2    0    0  0.82891909348E+01  0.80637929252E+02  0.31567723923E+02  0.15236495015E+03  0.12508945008E+03 0.  0.
          5    1    3    3  502    0 -0.41294824980E+02  0.32769560017E+02  0.57947594688E+02  0.78450639028E+02  0.41800000000E+01 0. -1.
         -5    1    3    3    0  502  0.49584015914E+02  0.47868369235E+02 -0.26379870765E+02  0.73914311124E+02  0.41800000000E+01 0. -1.
        -11    1    1    2    0    0 -0.12932634177E+01 -0.69664603416E+02  0.41883153618E+02  0.81295928904E+02  0.00000000000E+00 0.  1.
         11    1    1    2    0    0 -0.69959275171E+01 -0.10973325836E+02 -0.37309360391E+02  0.39513861549E+02  0.00000000000E+00 0. -1.
</event>
<event>
 7    1  0.2394257E-009  0.9579857E+02  0.7561462E-02  0.1289388E+00
         -1   -1    0    0    0  501 -0.00000000000E+00  0.00000000000E+00  0.13004138817E+03  0.13004138817E+03  0.00000000000E+00 0.  1.
          1   -1    0    0  501    0  0.00000000000E+00 -0.00000000000E+00 -0.93982864743E+02  0.93982864743E+02  0.00000000000E+00 0. -1.
         25    2    1    2    0    0  0.11845701784E+02 -0.20416860277E+02  0.33654690561E+02  0.13167327131E+03  0.12509213942E+03 0.  0.
          5    1    3    3  502    0 -0.19928677306E+01  0.45409539335E+02 -0.15557048638E+02  0.48223354785E+02  0.41800000000E+01 0. -1.
         -5    1    3    3    0  502  0.13838569515E+02 -0.65826399612E+02  0.49211739199E+02  0.83449916520E+02  0.41800000000E+01 0. -1.
        -11    1    1    2    0    0  0.13799266877E+02 -0.23759793254E+02  0.24389665912E+02  0.36739669910E+02  0.00000000000E+00 0.  1.
         11    1    1    2    0    0 -0.25644968661E+02  0.44176653531E+02 -0.21985833041E+02  0.55611311703E+02  0.00000000000E+00 0. -1.
</event>
<event>
 7    1  0.2394257E-009  0.7604539E+02  0.7561462E-02  0.1340664E+00
          2   -1    0    0  501    0  0.00000000000E+00  0.00000000000E+00  0.34317520436E+03  0.34317520436E+03  0.00000000000E+00 0. -1.
         -2   -1    0    0    0  501 -0.00000000000E+00 -0.00000000000E+00 -0.48504832787E+02  0.48504832787E+02  0.00000000000E+00 0.  1.
         25    2    1    2    0    0  0.66179308434E+02  0.16865909410E+02  0.16897562660E+03  0.22105258736E+03  0.12508926504E+03 0.  0.
          5    1    3    3  502    0  0.55475409983E+02 -0.19070347042E+01  0.18540837787E+03  0.19358434048E+03  0.41800000000E+01 0.  1.
         -5    1    3    3    0  502  0.10703898451E+02  0.18772944114E+02 -0.16432751267E+02  0.27468246885E+02  0.41800000000E+01 0.  1.
        -11    1    1    2    0    0 -0.32375024155E+02 -0.23449639657E+02 -0.33513890799E+00  0.39976744580E+02  0.00000000000E+00 0.  1.
         11    1    1    2    0    0 -0.33804284279E+02  0.65837302472E+01  0.12602988388E+03  0.13065070520E+03  0.00000000000E+00 0. -1.
</event>
<event>
 7    1  0.2394257E-009  0.1675964E+03  0.7561462E-02  0.1180378E+00
          1   -1    0    0  501    0  0.00000000000E+00  0.00000000000E+00  0.28094141274E+03  0.28094141274E+03  0.00000000000E+00 0. -1.
         -1   -1    0    0    0  501 -0.00000000000E+00 -0.00000000000E+00 -0.15100940281E+03  0.15100940281E+03  0.00000000000E+00 0.  1.
         25    2    1    2    0    0 -0.14493046387E+03 -0.78262419430E+02  0.12979046500E+03  0.24417972368E+03  0.12509327320E+03 0.  0.
          5    1    3    3  502    0 -0.90686389403E+02 -0.54161223185E+02  0.48846958685E+01  0.10582434490E+03  0.41800000000E+01 0.  1.
         -5    1    3    3    0  502 -0.54244074465E+02 -0.24101196244E+02  0.12490576913E+03  0.13835537878E+03  0.41800000000E+01 0.  1.
        -11    1    1    2    0    0  0.12512413031E+03  0.82298687497E+02  0.28992283442E+02  0.15254400824E+03  0.00000000000E+00 0. -1.
         11    1    1    2    0    0  0.19806333554E+02 -0.40362680670E+01 -0.28850738505E+02  0.35227083630E+02  0.00000000000E+00 0.  1.
</event>
<event>
 7    1  0.2394257E-009  0.1182458E+03  0.7561462E-02  0.1246019E+00
         -2   -1    0    0    0  501 -0.00000000000E+00  0.00000000000E+00  0.32218243749E+02  0.32218243749E+02  0.00000000000E+00 0.  1.
          2   -1    0    0  501    0  0.00000000000E+00 -0.00000000000E+00 -0.57958419701E+03  0.57958419701E+03  0.00000000000E+00 0. -1.
         25    2    1    2    0    0 -0.57295514502E+02  0.59096766180E+02 -0.27966198736E+03  0.31722786641E+03  0.12508992083E+03 0.  0.
          5    1    3    3  502    0 -0.27854227952E+02  0.91941683605E+02 -0.13369290460E+03  0.16468271415E+03  0.41800000000E+01 0. -1.
         -5    1    3    3    0  502 -0.29441286549E+02 -0.32844917425E+02 -0.14596908277E+03  0.15254515226E+03  0.41800000000E+01 0. -1.
        -11    1    1    2    0    0  0.64017116242E+02 -0.39296630681E+02 -0.26248719319E+03  0.27302370399E+03  0.00000000000E+00 0. -1.
         11    1    1    2    0    0 -0.67216017406E+01 -0.19800135499E+02 -0.52167727095E+01  0.21550870359E+02  0.00000000000E+00 0.  1.
</event>
<event>
 7    1  0.2394257E-009  0.1453751E+03  0.7561462E-02  0.1206274E+00
          1   -1    0    0  501    0  0.00000000000E+00  0.00000000000E+00  0.33308061420E+03  0.33308061420E+03  0.00000000000E+00 0. -1.
         -1   -1    0    0    0  501 -0.00000000000E+00 -0.00000000000E+00 -0.68688094304E+02  0.68688094304E+02  0.00000000000E+00 0.  1.
         25    2    1    2    0    0 -0.81216577751E+02 -0.65315207843E+02  0.15659480663E+03  0.22590380872E+03  0.12509351882E+03 0.  0.
          5    1    3    3  502    0  0.25289936100E+02 -0.38897923293E+02  0.20144395230E+02  0.50753308893E+02  0.41800000000E+01 0. -1.
         -5    1    3    3    0  502 -0.10650651385E+03 -0.26417284550E+02  0.13645041141E+03  0.17515049982E+03  0.41800000000E+01 0. -1.
        -11    1    1    2    0    0  0.16854310426E+02  0.67878025079E+02  0.33548338296E+02  0.77569227603E+02  0.00000000000E+00 0.  1.
         11    1    1    2    0    0  0.64362267325E+02 -0.25628172363E+01  0.74249374967E+02  0.98295672185E+02  0.00000000000E+00 0. -1.
</event>
<event>
 7    1  0.2394257E-009  0.1174027E+03  0.7561462E-02  0.1247444E+00
         -1   -1    0    0    0  501 -0.00000000000E+00  0.00000000000E+00  0.51826305702E+02  0.51826305702E+02  0.00000000000E+00 0.  1.
          1   -1    0    0  501    0  0.00000000000E+00 -0.00000000000E+00 -0.39409564213E+03  0.39409564213E+03  0.00000000000E+00 0. -1.
         25    2    1    2    0    0  0.73841992194E+02  0.42808668262E+02 -0.23455882128E+03  0.27919625365E+03  0.12508990975E+03 0.  0.
          5    1    3    3  502    0 -0.12768909301E+02  0.42554865152E+02 -0.15576729708E+03  0.16203359167E+03  0.41800000000E+01 0. -1.
         -5    1    3    3    0  502  0.86610901495E+02  0.25380310965E+00 -0.78791524207E+02  0.11716266197E+03  0.41800000000E+01 0. -1.
        -11    1    1    2    0    0 -0.45867299320E+02  0.69436684705E+01 -0.98543134879E+02  0.10891635832E+03  0.00000000000E+00 0.  1.
         11    1    1    2    0    0 -0.27974692874E+02 -0.49752336732E+02 -0.91673802688E+01  0.57809335861E+02  0.00000000000E+00 0. -1.
</event>
<event>
 7    1  0.2394257E-009  0.1203351E+03  0.7561462E-02  0.1242545E+00
         -1   -1    0    0    0  501 -0.00000000000E+00  0.00000000000E+00  0.15578805080E+03  0.15578805080E+03  0.00000000000E+00 0.  1.
          1   -1    0    0  501    0  0.00000000000E+00 -0.00000000000E+00 -0.12611075992E+03  0.12611075992E+03  0.00000000000E+00 0. -1.
         25    2    1    2    0    0  0.80125439319E+02 -0.28938342454E+02  0.64028789496E+01  0.15147677522E+03  0.12508678140E+03 0.  0.
          5    1    3    3  502    0 -0.81182640414E+01 -0.32304013500E+02 -0.39520767396E+02  0.51853822953E+02  0.41800000000E+01 0. -1.
         -5    1    3    3    0  502  0.88243703361E+02  0.33656710457E+01  0.45923646346E+02  0.99622952266E+02  0.41800000000E+01 0. -1.
        -11    1    1    2    0    0 -0.70715006166E+02  0.55897384070E+02  0.38551923665E+02  0.98037648183E+02  0.00000000000E+00 0.  1.
         11    1    1    2    0    0 -0.94104331532E+01 -0.26959041616E+02 -0.15277511738E+02  0.32384387317E+02  0.00000000000E+00 0. -1.
</event>
<event>
 7    1  0.2394257E-009  0.1193752E+03  0.7561462E-02  0.1244131E+00
          2   -1    0    0  501    0  0.00000000000E+00  0.00000000000E+00  0.35630698269E+03  0.35630698269E+03  0.00000000000E+00 0. -1.
         -2   -1    0    0    0  501 -0.00000000000E+00 -0.00000000000E+00 -0.79630913873E+02  0.79630913873E+02  0.00000000000E+00 0.  1.
         25    2    1    2    0    0  0.68725625617E+02 -0.81921570579E+02  0.54292210024E+02  0.17329029083E+03  0.12509006948E+03 0.  0.
          5    1    3    3  502    0  0.34943703212E+02 -0.20154777555E+02  0.86668869298E+02  0.95688258203E+02  0.41800000000E+01 0.  1.
         -5    1    3    3    0  502  0.33781922405E+02 -0.61766793024E+02 -0.32376659274E+02  0.77602032625E+02  0.41800000000E+01 0.  1.
        -11    1    1    2    0    0 -0.27197318005E+02 -0.82279135886E+01  0.13663281270E+02  0.31529001312E+02  0.00000000000E+00 0.  1.
         11    1    1    2    0    0 -0.41528307613E+02  0.90149484167E+02  0.20872057753E+03  0.23111860443E+03  0.00000000000E+00 0. -1.
</event>
<event>
 7    1  0.2394257E-009  0.1280642E+03  0.7561462E-02  0.1230357E+00
          1   -1    0    0  501    0  0.00000000000E+00  0.00000000000E+00  0.28519418359E+03  0.28519418359E+03  0.00000000000E+00 0. -1.
         -1   -1    0    0    0  501 -0.00000000000E+00 -0.00000000000E+00 -0.64118278560E+02  0.64118278560E+02  0.00000000000E+00 0.  1.
         25    2    1    2    0    0 -0.23193945217E+02 -0.75440874752E+02  0.14606612201E+03  0.20787717091E+03  0.12509325125E+03 0.  0.
          5    1    3    3  502    0 -0.72969905536E+02 -0.46439929355E+02  0.10914785497E+03  0.13932695646E+03  0.41800000000E+01 0.  1.
         -5    1    3    3    0  502  0.49775960319E+02 -0.29000945398E+02  0.36918267045E+02  0.68550214451E+02  0.41800000000E+01 0.  1.
        -11    1    1    2    0    0  0.37785866276E+02  0.30302158473E+01  0.25982097630E+01  0.37996112858E+02  0.00000000000E+00 0.  1.
         11    1    1    2    0    0 -0.14591921059E+02  0.72410658905E+02  0.72411573261E+02  0.10343917839E+03  0.00000000000E+00 0. -1.
</event>
<event>
 7    1  0.2394257E-009  0.1076435E+03  0.7561462E-02  0.1264997E+00
          2   -1    0    0  501    0  0.00000000000E+00  0.00000000000E+00  0.17149262993E+03  0.17149262993E+03  0.00000000000E+00 0. -1.
         -2   -1    0    0    0  501 -0.00000000000E+00 -0.00000000000E+00 -0.13906840212E+03  0.13906840212E+03  0.00000000000E+00 0.  1.
         25    2    1    2    0    0 -0.25258013109E+01  0.86400910980E+02 -0.51890600004E+02  0.16067269088E+03  0.12510628336E+03 0.  0.
          5    1    3    3  502    0  0.13831588422E+02  0.12765090342E+02  0.38386216376E+02  0.42956191374E+02  0.41800000000E+01 0. -1.
         -5    1    3    3    0  502 -0.16357389733E+02  0.73635820638E+02 -0.90276816380E+02  0.11771649950E+03  0.41800000000E+01 0. -1.
        -11    1    1    2    0    0 -0.14153703161E+02  0.13271071992E+02  0.28394404078E+02  0.34390272577E+02  0.00000000000E+00 0.  1.
         11    1    1    2    0    0  0.16679504472E+02 -0.99671982972E+02  0.55920423735E+02  0.11549806860E+03  0.00000000000E+00 0. -1.
</event>
<event>
 7    1  0.2394257E-009  0.5892406E+02  0.7561462E-02  0.1402403E+00
          2   -1    0    0  501    0  0.00000000000E+00  0.00000000000E+00  0.56593897563E+03  0.56593897563E+03  0.00000000000E+00 0. -1.
         -2   -1    0    0    0  501 -0.00000000000E+00 -0.00000000000E+00 -0.22132589317E+02  0.22132589317E+02  0.00000000000E+00 0.  1.
         25    2    1    2    0    0  0.69559367729E+00  0.19653376307E+02  0.33872722614E+03  0.36161957794E+03  0.12508335769E+03 0.  0.
          5    1    3    3  502    0  0.26225019035E+02 -0.94475472952E+01  0.89814366507E+01  0.29582873045E+02  0.41800000000E+01 0.  1.
         -5    1    3    3    0  502 -0.25529425358E+02  0.29100923602E+02  0.32974578949E+03  0.33203670490E+03  0.41800000000E+01 0.  1.
        -11    1    1    2    0    0  0.76874789954E+01  0.14038481749E+02 -0.23147742572E+01  0.16172027794E+02  0.00000000000E+00 0.  1.
         11    1    1    2    0    0 -0.83830726727E+01 -0.33691858056E+02  0.20739393443E+03  0.21027995921E+03  0.00000000000E+00 0. -1.
</event>
<event>
 7    1  0.2394257E-009  0.1477953E+03  0.7561462E-02  0.1203209E+00
          3   -1    0    0  501    0  0.00000000000E+00  0.00000000000E+00  0.59647001290E+02  0.59647001290E+02  0.00000000000E+00 0. -1.
         -3   -1    0    0    0  501 -0.00000000000E+00 -0.00000000000E+00 -0.54912446433E+03  0.54912446433E+03  0.00000000000E+00 0.  1.
         25    2    1    2    0    0 -0.26322879200E+02  0.11948745432E+03 -0.12878788094E+03  0.21726407370E+03  0.12508882337E+03 0.  0.
          5    1    3    3  502    0  0.30418803426E+02 -0.89896428545E+01 -0.39299689946E+02  0.50675983566E+02  0.41800000000E+01 0. -1.
         -5    1    3    3    0  502 -0.56741682625E+02  0.12847709718E+03 -0.89488190995E+02  0.16658809013E+03  0.41800000000E+01 0. -1.
        -11    1    1    2    0    0  0.16704919025E+02 -0.45388530280E+02 -0.26858795180E+03  0.27290778819E+03  0.00000000000E+00 0.  1.
         11    1    1    2    0    0  0.96179601745E+01 -0.74098924043E+02 -0.92101630294E+02  0.11859960373E+03  0.00000000000E+00 0. -1.
</event>
<event>
 7    1  0.2394257E-009  0.1070316E+03  0.7561462E-02  0.1266168E+00
          2   -1    0    0  501    0  0.00000000000E+00  0.00000000000E+00  0.19688377467E+03  0.19688377467E+03  0.00000000000E+00 0. -1.
         -2   -1    0    0    0  501 -0.00000000000E+00 -0.00000000000E+00 -0.64508578366E+02  0.64508578366E+02  0.00000000000E+00 0.  1.
         25    2    1    2    0    0 -0.18994839080E+02 -0.35748728918E+00  0.10739823354E+03  0.16595378509E+03  0.12508135957E+03 0.  0.
          5    1    3    3  502    0  0.32987450808E+02  0.42966261369E+02  0.69721327347E+02  0.88390086627E+02  0.41800000000E+01 0.  1.
         -5    1    3    3    0  502 -0.51982289888E+02 -0.43323748658E+02  0.37676906190E+02  0.77563698467E+02  0.41800000000E+01 0.  1.
        -11    1    1    2    0    0 -0.36043019429E+02  0.62566973924E+01  0.70525491597E+01  0.37255656771E+02  0.00000000000E+00 0.  1.
         11    1    1    2    0    0  0.55037858509E+02 -0.58992101032E+01  0.17924413606E+02  0.58182911170E+02  0.00000000000E+00 0. -1.
</event>
<event>
 7    1  0.2394257E-009  0.9577857E+02  0.7561462E-02  0.1289432E+00
         -1   -1    0    0    0  501 -0.00000000000E+00  0.00000000000E+00  0.79541766912E+02  0.79541766912E+02  0.00000000000E+00 0.  1.
          1   -1    0    0  501    0  0.00000000000E+00 -0.00000000000E+00 -0.23748286712E+03  0.23748286712E+03  0.00000000000E+00 0. -1.
         25    2    1    2    0    0 -0.19078394225E+02 -0.25845429600E+01 -0.18156425585E+03  0.22132281714E+03  0.12509014908E+03 0.  0.
          5    1    3    3  502    0  0.33693964125E+02 -0.36500276232E+02 -0.32409462613E+02  0.59459221743E+02  0.41800000000E+01 0. -1.
         -5    1    3    3    0  502 -0.52772358350E+02  0.33915733272E+02 -0.14915479324E+03  0.16186359540E+03  0.41800000000E+01 0. -1.
        -11    1    1    2    0    0  0.39363548814E+02 -0.23460307553E+02 -0.11760458207E+02  0.47309442852E+02  0.00000000000E+00 0. -1.
         11    1    1    2    0    0 -0.20285154589E+02  0.26044850513E+02  0.35383613858E+02  0.48392374033E+02  0.00000000000E+00 0.  1.
</event>
<event>
 7    1  0.2394257E-009  0.1060734E+03  0.7561462E-02  0.1268019E+00
         -1   -1    0    0    0  501 -0.00000000000E+00  0.00000000000E+00  0.11966168666E+03  0.11966168666E+03  0.00000000000E+00 0.  1.
          1   -1    0    0  501    0  0.00000000000E+00 -0.00000000000E+00 -0.14293110275E+03  0.14293110275E+03  0.00000000000E+00 0. -1.
         25    2    1    2    0    0  0.36655572942E+02  0.38364847815E+01 -0.72249547038E+02  0.14907542213E+03  0.12508051324E+03 0.  0.
          5    1    3    3  502    0  0.66773534337E+02  0.26350418835E+02 -0.82929462671E+02  0.10976255117E+03  0.41800000000E+01 0. -1.
         -5    1    3    3    0  502 -0.30117961395E+02 -0.22513934053E+02  0.10679915633E+02  0.39312870959E+02  0.41800000000E+01 0. -1.
        -11    1    1    2    0    0 -0.53670467254E+02  0.32175981322E+02  0.29742314980E+02  0.69285049828E+02  0.00000000000E+00 0. -1.
         11    1    1    2    0    0  0.17014894312E+02 -0.36012466104E+02  0.19237815969E+02  0.44232317445E+02  0.00000000000E+00 0.  1.
</event>
<event>
 7    1  0.2394257E-009  0.1414117E+03  0.7561462E-02  0.1211442E+00
          1   -1    0    0  501    0  0.00000000000E+00  0.00000000000E+00  0.46866927356E+03  0.46866927356E+03  0.00000000000E+00 0. -1.
         -1   -1    0    0    0  501 -0.00000000000E+00 -0.00000000000E+00 -0.68301217411E+02  0.68301217411E+02  0.00000000000E+00 0.  1.
         25    2    1    2    0    0 -0.25860968248E+02 -0.13521702501E+03  0.23906350744E+03  0.30291306479E+03  0.12511007433E+03 0.  0.
          5    1    3    3  502    0 -0.20998097112E+02 -0.24641850037E+02  0.16839090207E+03  0.17152582650E+03  0.41800000000E+01 0.  1.
         -5    1    3    3    0  502 -0.48628711365E+01 -0.11057517498E+03  0.70672605368E+02  0.13138723829E+03  0.41800000000E+01 0.  1.
        -11    1    1    2    0    0  0.13228268639E+02  0.11370399741E+03  0.59051104981E+02  0.12880457724E+03  0.00000000000E+00 0.  1.
         11    1    1    2    0    0  0.12632699610E+02  0.21513027604E+02  0.10225344373E+03  0.10525284894E+03  0.00000000000E+00 0. -1.
</event>
<event>
 7    1  0.2394257E-009  0.1182065E+03  0.7561462E-02  0.1246085E+00
         -2   -1    0    0    0  501 -0.00000000000E+00  0.00000000000E+00  0.10441030055E+03  0.10441030055E+03  0.00000000000E+00 0.  1.
          2   -1    0    0  501    0  0.00000000000E+00 -0.00000000000E+00 -0.14597050466E+03  0.14597050466E+03  0.00000000000E+00 0. -1.
         25    2    1    2    0    0  0.43766855186E+02  0.17587815718E+02  0.11958137086E+02  0.13422202066E+03  0.12509070674E+03 0.  0.
          5    1    3    3  502    0  0.18524732323E+02  0.71517521652E+02  0.68862238452E+01  0.74315638258E+02  0.41800000000E+01 0.  1.
         -5    1    3    3    0  502  0.25242122863E+02 -0.53929705934E+02  0.50719132406E+01  0.59906382404E+02  0.41800000000E+01 0.  1.
        -11    1    1    2    0    0 -0.47055193940E+02 -0.50861551384E+02 -0.31424999147E+02  0.76082976134E+02  0.00000000000E+00 0.  1.
         11    1    1    2    0    0  0.32883387544E+01  0.33273735666E+02 -0.22093342046E+02  0.40075808410E+02  0.00000000000E+00 0. -1.
</event>
<event>
 7    1  0.2394257E-009  0.7359011E+02  0.7561462E-02  0.1348293E+00
         -1   -1    0    0    0  501 -0.00000000000E+00  0.00000000000E+00  0.59383594231E+02  0.59383594231E+02  0.00000000000E+00 0.  1.
          1   -1    0    0  501    0  0.00000000000E+00 -0.00000000000E+00 -0.22583019465E+03  0.22583019465E+03  0.00000000000E+00 0. -1.
         25    2    1    2    0    0  0.29355971395E+02 -0.11902920747E+02 -0.63223155752E+02  0.14369489600E+03  0.12509037987E+03 0.  0.
          5    1    3    3  502    0  0.21419377249E+02  0.12642988369E+02 -0.97433444966E+02  0.10064483829E+03  0.41800000000E+01 0. -1.
         -5    1    3    3    0  502  0.79365941466E+01 -0.24545909116E+02  0.34210289214E+02  0.43050057713E+02  0.41800000000E+01 0. -1.
        -11    1    1    2    0    0  0.90909333366E+01 -0.34434798363E+02 -0.28888668089E+02  0.45857993318E+02  0.00000000000E+00 0. -1.
         11    1    1    2    0    0 -0.38446904732E+02  0.46337719110E+02 -0.74334776580E+02  0.95660899562E+02  0.00000000000E+00 0.  1.
</event>
<event>
 7    1  0.2394257E-009  0.1256247E+03  0.7561462E-02  0.1234096E+00
          2   -1    0    0  501    0  0.00000000000E+00  0.00000000000E+00  0.79453528419E+03  0.79453528419E+03  0.00000000000E+00 0. -1.
         -2   -1    0    0    0  501 -0.00000000000E+00 -0.00000000000E+00 -0.20220179479E+02  0.20220179479E+02  0.00000000000E+00 0.  1.
         25    2    1    2    0    0  0.56534969470E+02  0.36856530366E+02  0.46015307421E+03  0.48160451295E+03  0.12508976211E+03 0.  0.
          5    1    3    3  502    0  0.30265550098E+02  0.82500140440E+02  0.31827249174E+03  0.33020770448E+03  0.41800000000E+01 0.  1.
         -5    1    3    3    0  502  0.26269419372E+02 -0.45643610074E+02  0.14188058247E+03  0.15139680848E+03  0.41800000000E+01 0.  1.
        -11    1    1    2    0    0  0.23694006514E+02 -0.56360739490E+01  0.82032505615E+02  0.85571626440E+02  0.00000000000E+00 0. -1.
         11    1    1    2    0    0 -0.80228975985E+02 -0.31220456417E+02  0.23212952489E+03  0.24757932428E+03  0.00000000000E+00 0.  1.
</event>
<event>
 7    1  0.2394257E-009  0.9460829E+02  0.7561462E-02  0.1292061E+00
         -3   -1    0    0    0  501 -0.00000000000E+00  0.00000000000E+00  0.92836913149E+02  0.92836913149E+02  0.00000000000E+00 0.  1.
          3   -1    0    0  501    0  0.00000000000E+00 -0.00000000000E+00 -0.14215446216E+03  0.14215446216E+03  0.00000000000E+00 0. -1.
         25    2    1    2    0    0 -0.49597727468E+02 -0.37771622801E+02 -0.15218428263E+02  0.14058804783E+03  0.12508704399E+03 0.  0.
          5    1    3    3  502    0 -0.12039456376E+02 -0.57273049698E+02  0.39912185232E+02  0.70962001533E+02  0.41800000000E+01 0. -1.
         -5    1    3    3    0  502 -0.37558271092E+02  0.19501426897E+02 -0.55130613494E+02  0.69626046295E+02  0.41800000000E+01 0. -1.
        -11    1    1    2    0    0  0.55001183829E+02  0.54762732575E+01 -0.22176745353E+02  0.59556089746E+02  0.00000000000E+00 0.  1.
         11    1    1    2    0    0 -0.54034563608E+01  0.32295349544E+02 -0.11922375398E+02  0.34847237737E+02  0.00000000000E+00 0. -1.
</event>
<event>
 7    1  0.2394257E-009  0.9041911E+02  0.7561462E-02  0.1301840E+00
         -1   -1    0    0    0  501 -0.00000000000E+00  0.00000000000E+00  0.91803033841E+02  0.91803033841E+02  0.00000000000E+00 0. -1.
          1   -1    0    0  501    0  0.00000000000E+00 -0.00000000000E+00 -0.15704416482E+03  0.15704416482E+03  0.00000000000E+00 0.  1.
         25    2    1    2    0    0  0.17359735189E+01  0.40108411634E+02 -0.61728538728E+02  0.14514664428E+03  0.12508172355E+03 0.  0.
          5    1    3    3  502    0 -0.15416396493E+02 -0.13895109047E+02 -0.82102447765E+02  0.84788110400E+02  0.41800000000E+01 0. -1.
         -5    1    3    3    0  502  0.17152370012E+02  0.54003520681E+02  0.20373909037E+02  0.60358533882E+02  0.41800000000E+01 0. -1.
        -11    1    1    2    0    0 -0.48108256547E+02 -0.16856028127E+02 -0.81299673721E+01  0.51620019389E+02  0.00000000000E+00 0.  1.
         11    1    1    2    0    0  0.46372283029E+02 -0.23252383507E+02  0.46173751181E+01  0.52080534992E+02  0.00000000000E+00 0. -1.
</event>
<event>
 7    1  0.2394257E-009  0.1378387E+03  0.7561462E-02  0.1216267E+00
         -2   -1    0    0    0  501 -0.00000000000E+00  0.00000000000E+00  0.11801443072E+03  0.11801443072E+03  0.00000000000E+00 0.  1.
          2   -1    0    0  501    0  0.00000000000E+00 -0.00000000000E+00 -0.19730323238E+03  0.19730323238E+03  0.00000000000E+00 0. -1.
         25    2    1    2    0    0  0.35702115617E+02  0.89875950191E+02  0.49503559413E+01  0.15819451783E+03  0.12509465202E+03 0.  0.
          5    1    3    3  502    0  0.72344919509E+02  0.75292785243E+02  0.33036209322E+02  0.10959769347E+03  0.41800000000E+01 0. -1.
         -5    1    3    3    0  502 -0.36642803892E+02  0.14583164948E+02 -0.28085853380E+02  0.48596824352E+02  0.41800000000E+01 0. -1.
        -11    1    1    2    0    0  0.10613926695E+02 -0.84187933584E+02 -0.63877763786E+02  0.10621032110E+03  0.00000000000E+00 0.  1.
         11    1    1    2    0    0 -0.46316042312E+02 -0.56880166069E+01 -0.20361393809E+02  0.50912824182E+02  0.00000000000E+00 0. -1.
</event>
<event>
 7    1  0.2394257E-009  0.1693750E+03  0.7561462E-02  0.1178501E+00
         -1   -1    0    0    0  501 -0.00000000000E+00  0.00000000000E+00  0.36232035121E+03  0.36232035121E+03  0.00000000000E+00 0.  1.
          1   -1    0    0  501    0  0.00000000000E+00 -0.00000000000E+00 -0.15229759298E+03  0.15229759298E+03  0.00000000000E+00 0. -1.
         25    2    1    2    0    0 -0.95340522849E+02 -0.93740738360E+02  0.28466187276E+03  0.33846237039E+03  0.12508898050E+03 0.  0.
          5    1    3    3  502    0  0.22747004676E+02  0.10465125422E+02  0.44650483712E+02  0.51362273777E+02  0.41800000000E+01 0.  1.
         -5    1    3    3    0  502 -0.11808752752E+03 -0.10420586378E+03  0.24001138905E+03  0.28710009662E+03  0.41800000000E+01 0.  1.
        -11    1    1    2    0    0  0.27554890975E+02 -0.12129342895E+02 -0.29817521521E+00  0.30107837588E+02  0.00000000000E+00 0.  1.
         11    1    1    2    0    0  0.67785631874E+02  0.10587008126E+03 -0.74340939311E+02  0.14604773621E+03  0.00000000000E+00 0. -1.
</event>
<event>
 7    1  0.2522794E-009  0.4077091E+02  0.7561462E-02  0.1502614E+00
         -2   -1    0    0    0  501 -0.00000000000E+00  0.00000000000E+00  0.14854119365E+03  0.14854119365E+03  0.00000000000E+00 0.  1.
          2   -1    0    0  501    0  0.00000000000E+00 -0.00000000000E+00 -0.11149092994E+03  0.11149092994E+03  0.00000000000E+00 0. -1.
         25    2    1    2    0    0  0.12005276680E+02 -0.46829940896E+01 -0.48125649717E+02  0.13464686445E+03  0.12509053859E+03 0.  0.
          5    1    3    3  502    0 -0.23706942800E+00 -0.59613334520E+01 -0.90259657444E+02  0.90553143845E+02  0.41800000000E+01 0.  1.
         -5    1    3    3    0  502  0.12242346108E+02  0.12783393623E+01  0.42134007727E+02  0.44093720606E+02  0.41800000000E+01 0.  1.
        -11    1    1    2    0    0 -0.36463122171E+02  0.49568188950E+01  0.32794084849E-01  0.36798510941E+02  0.00000000000E+00 0. -1.
         11    1    1    2    0    0  0.24457845491E+02 -0.27382480536E+00  0.85143119335E+02  0.88586748198E+02  0.00000000000E+00 0.  1.
</event>
<event>
 7    1  0.2394257E-009  0.1168555E+03  0.7561462E-02  0.1248376E+00
         -2   -1    0    0    0  501 -0.00000000000E+00  0.00000000000E+00  0.12841688885E+03  0.12841688885E+03  0.00000000000E+00 0.  1.
          2   -1    0    0  501    0  0.00000000000E+00 -0.00000000000E+00 -0.15279551684E+03  0.15279551684E+03  0.00000000000E+00 0. -1.
         25    2    1    2    0    0 -0.36991122208E+02 -0.65188268697E+02  0.34469884753E+02  0.14984153368E+03  0.12508580560E+03 0.  0.
          5    1    3    3  502    0  0.20625398564E+02 -0.74861974193E+02 -0.69949694251E+01  0.78077680827E+02  0.41800000000E+01 0.  1.
         -5    1    3    3    0  502 -0.57616520772E+02  0.96737054963E+01  0.41464854179E+02  0.71763852850E+02  0.41800000000E+01 0.  1.
        -11    1    1    2    0    0 -0.49523543319E+01  0.53643633423E+02 -0.68163325348E+02  0.86881552373E+02  0.00000000000E+00 0. -1.
         11    1    1    2    0    0  0.41943476540E+02  0.11544635274E+02  0.93148126106E+01  0.44489319638E+02  0.00000000000E+00 0.  1.
</event>
<event>
 7    1  0.2394257E-009  0.1017400E+03  0.7561462E-02  0.1276679E+00
          1   -1    0    0  501    0  0.00000000000E+00  0.00000000000E+00  0.48398598686E+03  0.48398598686E+03  0.00000000000E+00 0. -1.
         -1   -1    0    0    0  501 -0.00000000000E+00 -0.00000000000E+00 -0.32593495296E+02  0.32593495296E+02  0.00000000000E+00 0.  1.
         25    2    1    2    0    0 -0.27062115745E+02 -0.55505969841E+02  0.22266090990E+03  0.26275232593E+03  0.12509050000E+03 0.  0.
          5    1    3    3  502    0 -0.42777241259E+02  0.15007328312E+02  0.24302095310E+02  0.51605973582E+02  0.41800000000E+01 0. -1.
         -5    1    3    3    0  502  0.15715125515E+02 -0.70513298153E+02  0.19835881459E+03  0.21114635235E+03  0.41800000000E+01 0. -1.
        -11    1    1    2    0    0 -0.12357063228E+02  0.42221832360E+02  0.36549591839E+02  0.57194866929E+02  0.00000000000E+00 0.  1.
         11    1    1    2    0    0  0.39419178973E+02  0.13284137481E+02  0.19218198983E+03  0.19663228930E+03  0.00000000000E+00 0. -1.
</event>
<event>
 7    1  0.2394257E-009  0.7040370E+02  0.7561462E-02  0.1358726E+00
         -1   -1    0    0    0  501 -0.00000000000E+00  0.00000000000E+00  0.31359499387E+02  0.31359499387E+02  0.00000000000E+00 0.  1.
          1   -1    0    0  501    0  0.00000000000E+00 -0.00000000000E+00 -0.43102222975E+03  0.43102222975E+03  0.00000000000E+00 0. -1.
         25    2    1    2    0    0  0.33187685614E+02 -0.15465584173E+02 -0.18312406514E+03  0.22477298839E+03  0.12509143179E+03 0.  0.
          5    1    3    3  502    0 -0.13865687477E+00 -0.25230718588E+02 -0.18775563340E+03  0.18948946847E+03  0.41800000000E+01 0. -1.
         -5    1    3    3    0  502  0.33326342489E+02  0.97651344149E+01  0.46315682582E+01  0.35283519926E+02  0.41800000000E+01 0. -1.
        -11    1    1    2    0    0 -0.55180434652E+02  0.36809805412E+01 -0.71255294168E+02  0.90198375446E+02  0.00000000000E+00 0.  1.
         11    1    1    2    0    0  0.21992749038E+02  0.11784603632E+02 -0.14528337106E+03  0.14741036530E+03  0.00000000000E+00 0. -1.
</event>
<event>
 7    1  0.2394257E-009  0.1968189E+03  0.7561462E-02  0.1152451E+00
         -2   -1    0    0    0  501 -0.00000000000E+00  0.00000000000E+00  0.99913333872E+02  0.99913333872E+02  0.00000000000E+00 0. -1.
          2   -1    0    0  501    0  0.00000000000E+00 -0.00000000000E+00 -0.45897122823E+03  0.45897122823E+03  0.00000000000E+00 0.  1.
         25    2    1    2    0    0  0.11342020249E+03 -0.12509026088E+03 -0.85948683440E+02  0.22703697668E+03  0.12508755691E+03 0.  0.
          5    1    3    3  502    0  0.64322963492E+02 -0.14068495942E+03 -0.45179894658E+02  0.16120917071E+03  0.41800000000E+01 0.  1.
         -5    1    3    3    0  502  0.49097238996E+02  0.15594698540E+02 -0.40768788782E+02  0.65827805966E+02  0.41800000000E+01 0.  1.
        -11    1    1    2    0    0 -0.10892669438E+03  0.64792269753E+02 -0.16602421610E+03  0.20887102072E+03  0.00000000000E+00 0. -1.
         11    1    1    2    0    0 -0.44935081129E+01  0.60297991131E+02 -0.10708499482E+03  0.12297656470E+03  0.00000000000E+00 0.  1.
</event>
<event>
 7    1  0.2394257E-009  0.9981110E+02  0.7561462E-02  0.1280694E+00
         -1   -1    0    0    0  501 -0.00000000000E+00  0.00000000000E+00  0.22905012349E+03  0.22905012349E+03  0.00000000000E+00 0.  1.
          1   -1    0    0  501    0  0.00000000000E+00 -0.00000000000E+00 -0.67921828396E+02  0.67921828396E+02  0.00000000000E+00 0. -1.
         25    2    1    2    0    0  0.56857752382E+02  0.16741876966E+02  0.10151717817E+03  0.17165518699E+03  0.12508665520E+03 0.  0.
          5    1    3    3  502    0  0.63813805975E+02  0.56306511800E+02  0.31534829650E+02  0.90854515491E+02  0.41800000000E+01 0. -1.
         -5    1    3    3    0  502 -0.69560535922E+01 -0.39564634834E+02  0.69982348517E+02  0.80800671501E+02  0.41800000000E+01 0. -1.
        -11    1    1    2    0    0 -0.19075076006E+02  0.15327211240E+02 -0.19957826058E+02  0.31576838822E+02  0.00000000000E+00 0. -1.
         11    1    1    2    0    0 -0.37782676377E+02 -0.32069088207E+02  0.79568942988E+02  0.93739926076E+02  0.00000000000E+00 0.  1.
</event>
<event>
 7    1  0.2394257E-009  0.9057682E+02  0.7561462E-02  0.1301461E+00
         -1   -1    0    0    0  501 -0.00000000000E+00  0.00000000000E+00  0.25109534383E+03  0.25109534383E+03  0.00000000000E+00 0.  1.
          1   -1    0    0  501    0  0.00000000000E+00 -0.00000000000E+00 -0.58781937432E+02  0.58781937432E+02  0.00000000000E+00 0. -1.
         25    2    1    2    0    0  0.54013140872E+02 -0.62254353715E+01  0.11018165149E+03  0.17533633395E+03  0.12508660298E+03 0.  0.
          5    1    3    3  502    0  0.44504915867E+02  0.23816379158E+02 -0.94762295113E+01  0.51528426895E+02  0.41800000000E+01 0. -1.
         -5    1    3    3    0  502  0.95082250049E+01 -0.30041814529E+02  0.11965788101E+03  0.12380790706E+03  0.41800000000E+01 0. -1.
        -11    1    1    2    0    0 -0.64331784002E+02 -0.22532971068E+02  0.30789141858E+02  0.74794949525E+02  0.00000000000E+00 0. -1.
         11    1    1    2    0    0  0.10318643131E+02  0.28758406440E+02  0.51342613047E+02  0.59745997787E+02  0.00000000000E+00 0.  1.
</event>
<event>
 7    1  0.2394257E-009  0.9352996E+02  0.7561462E-02  0.1294522E+00
         -1   -1    0    0    0  501 -0.00000000000E+00  0.00000000000E+00  0.95198833372E+02  0.95198833372E+02  0.00000000000E+00 0.  1.
          1   -1    0    0  501    0  0.00000000000E+00 -0.00000000000E+00 -0.17413450427E+03  0.17413450427E+03  0.00000000000E+00 0. -1.
         25    2    1    2    0    0 -0.56523785873E+02  0.36024142993E+02 -0.18339970845E+02  0.14309431565E+03  0.12508777476E+03 0.  0.
          5    1    3    3  502    0 -0.58842919200E+02  0.16248376210E+02 -0.66768980443E+02  0.90565269385E+02  0.41800000000E+01 0. -1.
         -5    1    3    3    0  502  0.23191333268E+01  0.19775766783E+02  0.48429009598E+02  0.52529046269E+02  0.41800000000E+01 0. -1.
        -11    1    1    2    0    0  0.14781362640E+02 -0.56946965963E+02 -0.52494891592E+02  0.78848964845E+02  0.00000000000E+00 0. -1.
         11    1    1    2    0    0  0.41742423233E+02  0.20922822970E+02 -0.81008084621E+01  0.47390057145E+02  0.00000000000E+00 0.  1.
</event>
<event>
 7    1  0.2394257E-009  0.9035404E+02  0.7561462E-02  0.1301997E+00
          3   -1    0    0  501    0  0.00000000000E+00  0.00000000000E+00  0.31678975516E+02  0.31678975516E+02  0.00000000000E+00 0. -1.
         -3   -1    0    0    0  501 -0.00000000000E+00 -0.00000000000E+00 -0.53121832694E+03  0.53121832694E+03  0.00000000000E+00 0.  1.
         25    2    1    2    0    0 -0.38821946656E+02 -0.52954238886E+02 -0.22125913589E+03  0.26251160141E+03  0.12508173609E+03 0.  0.
          5    1    3    3  502    0 -0.39740987101E+00 -0.25883380650E+02 -0.21299740388E+03  0.21460539087E+03  0.41800000000E+01 0.  1.
         -5    1    3    3    0  502 -0.38424536785E+02 -0.27070858237E+02 -0.82617320046E+01  0.47906210542E+02  0.41800000000E+01 0.  1.
        -11    1    1    2    0    0 -0.19239897311E+02  0.44683862816E+02 -0.80167962533E+02  0.93774855166E+02  0.00000000000E+00 0.  1.
         11    1    1    2    0    0  0.58061843967E+02  0.82703760702E+01 -0.19811225300E+03  0.20661084588E+03  0.00000000000E+00 0. -1.
</event>
<event>
 7    1  0.2394257E-009  0.1565871E+03  0.7561462E-02  0.1192605E+00
         -2   -1    0    0    0  501 -0.00000000000E+00  0.00000000000E+00  0.35551122861E+03  0.35551122861E+03  0.00000000000E+00 0.  1.
          2   -1    0    0  501    0  0.00000000000E+00 -0.00000000000E+00 -0.98907722368E+02  0.98907722368E+02  0.00000000000E+00 0. -1.
         25    2    1    2    0    0 -0.14574040594E+03 -0.10991290811E+02  0.82551655142E+02  0.20934131603E+03  0.12509171209E+03 0.  0.
          5    1    3    3  502    0 -0.24747867293E+02  0.93198905325E+01 -0.31803800271E+02  0.41572483770E+02  0.41800000000E+01 0.  1.
         -5    1    3    3    0  502 -0.12099253865E+03 -0.20311181343E+02  0.11435545541E+03  0.16776883226E+03  0.41800000000E+01 0.  1.
        -11    1    1    2    0    0  0.65270720468E+02 -0.31689337599E+02  0.39553704746E+02  0.82637622346E+02  0.00000000000E+00 0.  1.
         11    1    1    2    0    0  0.80469685472E+02  0.42680628410E+02  0.13449814635E+03  0.16244001260E+03  0.00000000000E+00 0. -1.
</event>
<event>
 7    1  0.2394257E-009  0.1318574E+03  0.7561462E-02  0.1224725E+00
         -2   -1    0    0    0  501 -0.00000000000E+00  0.00000000000E+00  0.13696756201E+03  0.13696756201E+03  0.00000000000E+00 0.  1.
          2   -1    0    0  501    0  0.00000000000E+00 -0.00000000000E+00 -0.14263416952E+03  0.14263416952E+03  0.00000000000E+00 0. -1.
         25    2    1    2    0    0  0.86679322005E+02  0.20117152793E+02 -0.11577995990E+02  0.15394590486E+03  0.12508911596E+03 0.  0.
          5    1    3    3  502    0  0.10838412733E+03 -0.52949491259E+00 -0.36825383040E+02  0.11454684918E+03  0.41800000000E+01 0. -1.
         -5    1    3    3    0  502 -0.21704805320E+02  0.20646647706E+02  0.25247387050E+02  0.39399055678E+02  0.41800000000E+01 0. -1.
        -11    1    1    2    0    0 -0.39808363413E+02 -0.54057233449E+02  0.88395690740E+01  0.67712836798E+02  0.00000000000E+00 0.  1.
         11    1    1    2    0    0 -0.46870958592E+02  0.33940080655E+02 -0.29281805984E+01  0.57942989876E+02  0.00000000000E+00 0. -1.
</event>
<event>
 7    1  0.2394257E-009  0.8566159E+02  0.7561462E-02  0.1313711E+00
          2   -1    0    0  501    0  0.00000000000E+00  0.00000000000E+00  0.26514025116E+03  0.26514025116E+03  0.00000000000E+00 0. -1.
         -2   -1    0    0    0  501 -0.00000000000E+00 -0.00000000000E+00 -0.89319746083E+02  0.89319746083E+02  0.00000000000E+00 0.  1.
         25    2    1    2    0    0  0.39444260771E+02 -0.50746364102E+02 -0.71602016966E+01  0.14081450386E+03  0.12508562200E+03 0.  0.
          5    1    3    3  502    0  0.42063498327E+02 -0.46352589115E+02 -0.60449203450E+02  0.87117615939E+02  0.41800000000E+01 0. -1.
         -5    1    3    3    0  502 -0.26192375551E+01 -0.43937749871E+01  0.53289001753E+02  0.53696887916E+02  0.41800000000E+01 0. -1.
        -11    1    1    2    0    0 -0.27741033360E+02 -0.17462167856E+02  0.25173246348E+02  0.41330189569E+02  0.00000000000E+00 0.  1.
         11    1    1    2    0    0 -0.11703227411E+02  0.68208531959E+02  0.15780746043E+03  0.17231530382E+03  0.00000000000E+00 0. -1.
</event>
<event>
 7    1  0.2394257E-009  0.9177828E+02  0.7561462E-02  0.1298602E+00
         -2   -1    0    0    0  501 -0.00000000000E+00  0.00000000000E+00  0.64538108403E+02  0.64538108403E+02  0.00000000000E+00 0.  1.
          2   -1    0    0  501    0  0.00000000000E+00 -0.00000000000E+00 -0.39355001831E+03  0.39355001831E+03  0.00000000000E+00 0. -1.
         25    2    1    2    0    0  0.87484549716E+02 -0.30552687628E+01 -0.28207480615E+03  0.32074049311E+03  0.12508151961E+03 0.  0.
          5    1    3    3  502    0  0.21784952688E+02 -0.14572690273E+02 -0.24065425377E+03  0.24211338196E+03  0.41800000000E+01 0. -1.
         -5    1    3    3    0  502  0.65699597028E+02  0.11517421510E+02 -0.41420552377E+02  0.78627111146E+02  0.41800000000E+01 0. -1.
        -11    1    1    2    0    0 -0.24516852129E+02 -0.89159726664E+01  0.28313581837E+02  0.38499734069E+02  0.00000000000E+00 0.  1.
         11    1    1    2    0    0 -0.62967697587E+02  0.11971241429E+02 -0.75250685596E+02  0.98847899539E+02  0.00000000000E+00 0. -1.
</event>
<event>
 7    1  0.2394257E-009  0.1179408E+03  0.7561462E-02  0.1246533E+00
          1   -1    0    0  501    0  0.00000000000E+00  0.00000000000E+00  0.21909189379E+04  0.21909189379E+04  0.00000000000E+00 0. -1.
         -1   -1    0    0    0  501 -0.00000000000E+00 -0.00000000000E+00 -0.15167109938E+02  0.15167109938E+02  0.00000000000E+00 0.  1.
         25    2    1    2    0    0 -0.28285558075E+02  0.75887944464E+02  0.18848860467E+04  0.18907681707E+04  0.12509921385E+03 0.  0.
          5    1    3    3  502    0  0.27343071363E+02  0.40130396923E+01  0.11404998013E+04  0.11408422403E+04  0.41800000000E+01 0. -1.
         -5    1    3    3    0  502 -0.55628629438E+02  0.71874904772E+02  0.74438624539E+03  0.74992593039E+03  0.41800000000E+01 0. -1.
        -11    1    1    2    0    0  0.58344065860E+02 -0.56242464259E+02  0.15650658949E+03  0.17624289308E+03  0.00000000000E+00 0.  1.
         11    1    1    2    0    0 -0.30058507785E+02 -0.19645480205E+02  0.13435919180E+03  0.13907498411E+03  0.00000000000E+00 0. -1.
</event>
<event>
 7    1  0.2394257E-009  0.1836568E+03  0.7561462E-02  0.1164310E+00
         -1   -1    0    0    0  501 -0.00000000000E+00  0.00000000000E+00  0.10677662998E+03  0.10677662998E+03  0.00000000000E+00 0.  1.
          1   -1    0    0  501    0  0.00000000000E+00 -0.00000000000E+00 -0.37181256515E+03  0.37181256515E+03  0.00000000000E+00 0. -1.
         25    2    1    2    0    0  0.86737149998E+02  0.12961058726E+03 -0.71275349119E+02  0.21224934222E+03  0.12508944944E+03 0.  0.
          5    1    3    3  502    0  0.65465621741E+02 -0.53623225517E+00 -0.39364224776E+02  0.76505227058E+02  0.41800000000E+01 0. -1.
         -5    1    3    3    0  502  0.21271528257E+02  0.13014681951E+03 -0.31911124343E+02  0.13574411516E+03  0.41800000000E+01 0. -1.
        -11    1    1    2    0    0  0.11294764360E+02 -0.17700394684E+02 -0.69167308262E+02  0.72284107563E+02  0.00000000000E+00 0. -1.
         11    1    1    2    0    0 -0.98031914358E+02 -0.11191019257E+03 -0.12459327779E+03  0.19405574535E+03  0.00000000000E+00 0.  1.
</event>
<event>
 7    1  0.2394257E-009  0.1058821E+03  0.7561462E-02  0.1268391E+00
         -1   -1    0    0    0  501 -0.00000000000E+00  0.00000000000E+00  0.33732689520E+02  0.33732689520E+02  0.00000000000E+00 0.  1.
          1   -1    0    0  501    0  0.00000000000E+00 -0.00000000000E+00 -0.42396940280E+03  0.42396940280E+03  0.00000000000E+00 0. -1.
         25    2    1    2    0    0 -0.47924223807E+02 -0.13399298105E+02 -0.22828644689E+03  0.26502570706E+03  0.12509057178E+03 0.  0.
          5    1    3    3  502    0 -0.31847066102E+02  0.51062654309E+02 -0.15336880659E+03  0.16480623022E+03  0.41800000000E+01 0.  1.
         -5    1    3    3    0  502 -0.16077157705E+02 -0.64461952414E+02 -0.74917640304E+02  0.10021947684E+03  0.41800000000E+01 0.  1.
        -11    1    1    2    0    0  0.39455375066E+02 -0.24229591983E+02 -0.29918802470E+02  0.55126531638E+02  0.00000000000E+00 0.  1.
         11    1    1    2    0    0  0.84688487412E+01  0.37628890088E+02 -0.13203146392E+03  0.13754985363E+03  0.00000000000E+00 0. -1.
</event>
<event>
 7    1  0.2394257E-009  0.3519697E+03  0.7561462E-02  0.1061809E+00
          2   -1    0    0  501    0  0.00000000000E+00  0.00000000000E+00  0.36095894028E+03  0.36095894028E+03  0.00000000000E+00 0.  1.
         -2   -1    0    0    0  501 -0.00000000000E+00 -0.00000000000E+00 -0.35221277042E+03  0.35221277042E+03  0.00000000000E+00 0. -1.
         25    2    1    2    0    0 -0.10707270505E+03  0.32247543747E+03  0.52349956306E+01  0.36211917764E+03  0.12509165318E+03 0.  0.
          5    1    3    3  502    0 -0.36200937764E+02  0.12392350291E+02 -0.19317610304E+02  0.43066468495E+02  0.41800000000E+01 0.  1.
         -5    1    3    3    0  502 -0.70871767289E+02  0.31008308718E+03  0.24552605934E+02  0.31905270915E+03  0.41800000000E+01 0.  1.
        -11    1    1    2    0    0  0.69766511831E+02 -0.28872492864E+03 -0.15086859924E+02  0.29741732285E+03  0.00000000000E+00 0. -1.
         11    1    1    2    0    0  0.37306193223E+02 -0.33750508838E+02  0.18598034157E+02  0.53635210208E+02  0.00000000000E+00 0.  1.
</event>
<event>
 7    1  0.2394257E-009  0.1147973E+03  0.7561462E-02  0.1251935E+00
         -1   -1    0    0    0  501 -0.00000000000E+00  0.00000000000E+00  0.87456648767E+02  0.87456648767E+02  0.00000000000E+00 0.  1.
          1   -1    0    0  501    0  0.00000000000E+00 -0.00000000000E+00 -0.17598735300E+03  0.17598735300E+03  0.00000000000E+00 0. -1.
         25    2    1    2    0    0 -0.11278065417E+02 -0.56897725757E+02 -0.61450199937E+02  0.15095751858E+03  0.12508996518E+03 0.  0.
          5    1    3    3  502    0 -0.57486673036E+02 -0.46885226550E+02 -0.12685152059E+01  0.74310319447E+02  0.41800000000E+01 0.  1.
         -5    1    3    3    0  502  0.46208607620E+02 -0.10012499207E+02 -0.60181684731E+02  0.76647199138E+02  0.41800000000E+01 0.  1.
        -11    1    1    2    0    0 -0.48776511994E+01  0.79719366576E+02 -0.12145947476E+02  0.80786712575E+02  0.00000000000E+00 0.  1.
         11    1    1    2    0    0  0.16155716616E+02 -0.22821640819E+02 -0.14934556817E+02  0.31699770604E+02  0.00000000000E+00 0. -1.
</event>
<event>
 7    1  0.2394257E-009  0.1012508E+03  0.7561462E-02  0.1277687E+00
         -2   -1    0    0    0  501 -0.00000000000E+00  0.00000000000E+00  0.35964310052E+02  0.35964310052E+02  0.00000000000E+00 0.  1.
          2   -1    0    0  501    0  0.00000000000E+00 -0.00000000000E+00 -0.35848525411E+03  0.35848525411E+03  0.00000000000E+00 0. -1.
         25    2    1    2    0    0 -0.12745499492E+02  0.27749049913E+02 -0.20337039772E+03  0.24070477811E+03  0.12508722560E+03 0.  0.
          5    1    3    3  502    0 -0.58804341780E+02  0.29313451281E+02 -0.56635912071E+02  0.86846577217E+02  0.41800000000E+01 0. -1.
         -5    1    3    3    0  502  0.46058842287E+02 -0.15644013679E+01 -0.14673448565E+03  0.15385820089E+03  0.41800000000E+01 0. -1.
        -11    1    1    2    0    0 -0.36568658611E+02 -0.92641913113E+01 -0.23187844129E+02  0.44280561747E+02  0.00000000000E+00 0.  1.
         11    1    1    2    0    0  0.49314158103E+02 -0.18484858601E+02 -0.95962702212E+02  0.10946422431E+03  0.00000000000E+00 0. -1.
</event>
<event>
 7    1  0.2394257E-009  0.1721801E+03  0.7561462E-02  0.1175593E+00
          2   -1    0    0  501    0  0.00000000000E+00  0.00000000000E+00  0.21338323468E+03  0.21338323468E+03  0.00000000000E+00 0. -1.
         -2   -1    0    0    0  501 -0.00000000000E+00 -0.00000000000E+00 -0.19400006978E+03  0.19400006978E+03  0.00000000000E+00 0.  1.
         25    2    1    2    0    0  0.15124812015E+02  0.13839046129E+03  0.11143348743E+03  0.21782011877E+03  0.12508997684E+03 0.  0.
          5    1    3    3  502    0 -0.55273622881E+02  0.63377543390E+02  0.49651165340E+02  0.97747618959E+02  0.41800000000E+01 0.  1.
         -5    1    3    3    0  502  0.70398434896E+02  0.75012917896E+02  0.61782322090E+02  0.12007249981E+03  0.41800000000E+01 0.  1.
        -11    1    1    2    0    0  0.29637503329E+02 -0.60434642921E+02 -0.69777938286E+02  0.96951989872E+02  0.00000000000E+00 0.  1.
         11    1    1    2    0    0 -0.44762315344E+02 -0.77955818364E+02 -0.22272384242E+02  0.92611195822E+02  0.00000000000E+00 0. -1.
</event>
<event>
 7    1  0.2394257E-009  0.9023128E+02  0.7561462E-02  0.1302293E+00
         -2   -1    0    0    0  501 -0.00000000000E+00  0.00000000000E+00  0.11375328713E+03  0.11375328713E+03  0.00000000000E+00 0.  1.
          2   -1    0    0  501    0  0.00000000000E+00 -0.00000000000E+00 -0.11539675702E+03  0.11539675702E+03  0.00000000000E+00 0. -1.
         25    2    1    2    0    0  0.40465164491E+02 -0.57506499967E+01  0.93742096363E+01  0.13193124270E+03  0.12508987761E+03 0.  0.
          5    1    3    3  502    0 -0.23686189776E+02 -0.57775633115E+00 -0.42717394669E+02  0.49026702885E+02  0.41800000000E+01 0.  1.
         -5    1    3    3    0  502  0.64151354266E+02 -0.51728936655E+01  0.52091604305E+02  0.82904539816E+02  0.41800000000E+01 0.  1.
        -11    1    1    2    0    0 -0.10149381407E+02  0.42828391646E+02  0.96434339935E+01  0.45058593998E+02  0.00000000000E+00 0. -1.
         11    1    1    2    0    0 -0.30315783084E+02 -0.37077741649E+02 -0.20661113522E+02  0.52160207455E+02  0.00000000000E+00 0.  1.
</event>
<event>
 7    1  0.2394257E-009  0.1057971E+03  0.7561462E-02  0.1268557E+00
         -1   -1    0    0    0  501 -0.00000000000E+00  0.00000000000E+00  0.16869856168E+02  0.16869856168E+02  0.00000000000E+00 0.  1.
          1   -1    0    0  501    0  0.00000000000E+00 -0.00000000000E+00 -0.70638874173E+03  0.70638874173E+03  0.00000000000E+00 0. -1.
         25    2    1    2    0    0  0.15281592381E+02 -0.72845257072E+01 -0.40833190394E+03  0.42739701032E+03  0.12508664705E+03 0.  0.
          5    1    3    3  502    0 -0.35719129726E+02 -0.44380938468E+02 -0.13029070161E+03  0.14226265587E+03  0.41800000000E+01 0. -1.
         -5    1    3    3    0  502  0.51000722106E+02  0.37096412761E+02 -0.27804120233E+03  0.28513435445E+03  0.41800000000E+01 0. -1.
        -11    1    1    2    0    0 -0.85098660572E+01 -0.41323481639E+02 -0.14899647202E+03  0.15485475979E+03  0.00000000000E+00 0. -1.
         11    1    1    2    0    0 -0.67717263236E+01  0.48608007346E+02 -0.13219050960E+03  0.14100682779E+03  0.00000000000E+00 0.  1.
</event>
<event>
 7    1  0.2394257E-009  0.1332959E+03  0.7561462E-02  0.1222646E+00
         -1   -1    0    0    0  501 -0.00000000000E+00  0.00000000000E+00  0.36102211469E+02  0.36102211469E+02  0.00000000000E+00 0.  1.
          1   -1    0    0  501    0  0.00000000000E+00 -0.00000000000E+00 -0.54480821546E+03  0.54480821546E+03  0.00000000000E+00 0. -1.
         25    2    1    2    0    0  0.76308804956E+02 -0.46665028129E+02 -0.29332314699E+03  0.33118889566E+03  0.12508779911E+03 0.  0.
          5    1    3    3  502    0 -0.28424386038E+02  0.14622327168E+02 -0.56314464858E+02  0.64888747296E+02  0.41800000000E+01 0.  1.
         -5    1    3    3    0  502  0.10473319099E+03 -0.61287355297E+02 -0.23700868213E+03  0.26630014836E+03  0.41800000000E+01 0.  1.
        -11    1    1    2    0    0 -0.39375131984E+02  0.61589369379E+02 -0.78963972575E+02  0.10760557794E+03  0.00000000000E+00 0.  1.
         11    1    1    2    0    0 -0.36933672972E+02 -0.14924341250E+02 -0.13641888443E+03  0.14211595333E+03  0.00000000000E+00 0. -1.
</event>
<event>
 7    1  0.2394257E-009  0.1143995E+03  0.7561462E-02  0.1252633E+00
         -2   -1    0    0    0  501 -0.00000000000E+00  0.00000000000E+00  0.17123702810E+02  0.17123702810E+02  0.00000000000E+00 0. -1.
          2   -1    0    0  501    0  0.00000000000E+00 -0.00000000000E+00 -0.85796447986E+03  0.85796447986E+03  0.00000000000E+00 0.  1.
         25    2    1    2    0    0 -0.38514485855E+02  0.76697212218E+01 -0.46959308580E+03  0.48755351973E+03  0.12509427695E+03 0.  0.
          5    1    3    3  502    0 -0.48718411265E+02 -0.43403393748E+02 -0.36302343127E+03  0.36886423280E+03  0.41800000000E+01 0. -1.
         -5    1    3    3    0  502  0.10203925410E+02  0.51073114969E+02 -0.10656965453E+03  0.11868928694E+03  0.41800000000E+01 0. -1.
        -11    1    1    2    0    0 -0.30533474607E+02  0.20303655772E+02 -0.12181363369E+03  0.12721278576E+03  0.00000000000E+00 0.  1.
         11    1    1    2    0    0  0.69047960462E+02 -0.27973376994E+02 -0.24943405756E+03  0.26032187718E+03  0.00000000000E+00 0. -1.
</event>
<event>
 7    1  0.2394257E-009  0.1142307E+03  0.7561462E-02  0.1252930E+00
          1   -1    0    0  501    0  0.00000000000E+00  0.00000000000E+00  0.64964220888E+02  0.64964220888E+02  0.00000000000E+00 0. -1.
         -1   -1    0    0    0  501 -0.00000000000E+00 -0.00000000000E+00 -0.20215231283E+03  0.20215231283E+03  0.00000000000E+00 0.  1.
         25    2    1    2    0    0 -0.19862150066E+02  0.33177756052E+02 -0.74376710275E+02  0.15058148339E+03  0.12509044571E+03 0.  0.
          5    1    3    3  502    0  0.22507279608E+02 -0.39742109126E+02 -0.19245558137E+02  0.49738081800E+02  0.41800000000E+01 0.  1.
         -5    1    3    3    0  502 -0.42369429674E+02  0.72919865178E+02 -0.55131152138E+02  0.10084340159E+03  0.41800000000E+01 0.  1.
        -11    1    1    2    0    0  0.58908248816E+01 -0.64024702351E+02 -0.41260750412E+02  0.76395771175E+02  0.00000000000E+00 0. -1.
         11    1    1    2    0    0  0.13971325185E+02  0.30846946298E+02 -0.21550631259E+02  0.40139279154E+02  0.00000000000E+00 0.  1.
</event>
<event>
 7    1  0.2394257E-009  0.9888106E+02  0.7561462E-02  0.1282667E+00
          2   -1    0    0  501    0  0.00000000000E+00  0.00000000000E+00  0.41615184910E+03  0.41615184910E+03  0.00000000000E+00 0. -1.
         -2   -1    0    0    0  501 -0.00000000000E+00 -0.00000000000E+00 -0.32784084126E+02  0.32784084126E+02  0.00000000000E+00 0.  1.
         25    2    1    2    0    0  0.26280919380E+02  0.20420289902E+02  0.24637399892E+03  0.27830795737E+03  0.12508995494E+03 0.  0.
          5    1    3    3  502    0  0.14875943114E+02  0.60065607673E+02  0.56299140658E+02  0.83762978382E+02  0.41800000000E+01 0. -1.
         -5    1    3    3    0  502  0.11404976267E+02 -0.39645317771E+02  0.19007485826E+03  0.19454497899E+03  0.41800000000E+01 0. -1.
        -11    1    1    2    0    0 -0.55661200082E+02 -0.30181048469E+02  0.11906060270E+03  0.13484988690E+03  0.00000000000E+00 0. -1.
         11    1    1    2    0    0  0.29380280702E+02  0.97607585673E+01  0.17933163358E+02  0.35778088964E+02  0.00000000000E+00 0.  1.
</event>
<event>
 7    1  0.2394257E-009  0.1068788E+03  0.7561462E-02  0.1266461E+00
         -2   -1    0    0    0  501 -0.00000000000E+00  0.00000000000E+00  0.26818859567E+03  0.26818859567E+03  0.00000000000E+00 0. -1.
          2   -1    0    0  501    0  0.00000000000E+00 -0.00000000000E+00 -0.55347756379E+02  0.55347756379E+02  0.00000000000E+00 0.  1.
         25    2    1    2    0    0  0.57242269302E+02  0.31908413180E+01  0.12393086988E+03  0.18518706488E+03  0.12509408310E+03 0.  0.
          5    1    3    3  502    0  0.30569946654E+02 -0.58563960877E+02  0.39241910191E+02  0.76952316842E+02  0.41800000000E+01 0.  1.
         -5    1    3    3    0  502  0.26672322648E+02  0.61754802195E+02  0.84688959687E+02  0.10823474804E+03  0.41800000000E+01 0.  1.
        -11    1    1    2    0    0 -0.68328980029E+02  0.93423224832E+00  0.24087632810E+02  0.72456444545E+02  0.00000000000E+00 0.  1.
         11    1    1    2    0    0  0.11086710727E+02 -0.41250735664E+01  0.64822336606E+02  0.65892842629E+02  0.00000000000E+00 0. -1.
</event>
<event>
 7    1  0.2394257E-009  0.7751722E+02  0.7561462E-02  0.1336249E+00
         -1   -1    0    0    0  501 -0.00000000000E+00  0.00000000000E+00  0.29860051461E+02  0.29860051461E+02  0.00000000000E+00 0.  1.
          1   -1    0    0  501    0  0.00000000000E+00 -0.00000000000E+00 -0.40787255580E+03  0.40787255580E+03  0.00000000000E+00 0. -1.
         25    2    1    2    0    0  0.25934661070E+02  0.11889983618E+02 -0.19188204869E+03  0.23082641851E+03  0.12509251183E+03 0.  0.
          5    1    3    3  502    0  0.32103127451E+02 -0.35893868669E+02 -0.20070266021E+02  0.52338022301E+02  0.41800000000E+01 0.  1.
         -5    1    3    3    0  502 -0.61684663817E+01  0.47783852288E+02 -0.17181178267E+03  0.17848839621E+03  0.41800000000E+01 0.  1.
        -11    1    1    2    0    0 -0.41452238371E+02 -0.68073416151E+01 -0.18588825451E+03  0.19057563100E+03  0.00000000000E+00 0. -1.
         11    1    1    2    0    0  0.15517577301E+02 -0.50826420034E+01 -0.24220113599E+00  0.16330557750E+02  0.00000000000E+00 0.  1.
</event>
<event>
 7    1  0.2394257E-009  0.3037884E+03  0.7561462E-02  0.1083362E+00
         -1   -1    0    0    0  501 -0.00000000000E+00  0.00000000000E+00  0.15784580823E+04  0.15784580823E+04  0.00000000000E+00 0.  1.
          1   -1    0    0  501    0  0.00000000000E+00 -0.00000000000E+00 -0.62759116995E+02  0.62759116995E+02  0.00000000000E+00 0. -1.
         25    2    1    2    0    0  0.16309372953E+03 -0.24051807392E+03  0.64035204468E+03  0.71424566606E+03  0.12509045473E+03 0.  0.
          5    1    3    3  502    0  0.68724422597E+02 -0.16700315470E+02  0.10913664034E+03  0.13011619985E+03  0.41800000000E+01 0.  1.
         -5    1    3    3    0  502  0.94369306932E+02 -0.22381775845E+03  0.53121540434E+03  0.58412946621E+03  0.41800000000E+01 0.  1.
        -11    1    1    2    0    0 -0.12557822747E+03  0.14885198889E+03  0.45158249613E+03  0.49178608828E+03  0.00000000000E+00 0. -1.
         11    1    1    2    0    0 -0.37515502055E+02  0.91666085026E+02  0.42376442453E+03  0.43518544500E+03  0.00000000000E+00 0.  1.
</event>
<event>
 7    1  0.2394257E-009  0.1313678E+03  0.7561462E-02  0.1225440E+00
          2   -1    0    0  501    0  0.00000000000E+00  0.00000000000E+00  0.10183847734E+04  0.10183847734E+04  0.00000000000E+00 0. -1.
         -2   -1    0    0    0  501 -0.00000000000E+00 -0.00000000000E+00 -0.17230512904E+02  0.17230512904E+02  0.00000000000E+00 0.  1.
         25    2    1    2    0    0  0.36512712117E+02 -0.66971417583E+02  0.52151972486E+03  0.54170961625E+03  0.12509250977E+03 0.  0.
          5    1    3    3  502    0  0.75794874072E+02 -0.11279844221E+02  0.31415183158E+03  0.32338977026E+03  0.41800000000E+01 0. -1.
         -5    1    3    3    0  502 -0.39282161955E+02 -0.55691573362E+02  0.20736789328E+03  0.21831984600E+03  0.41800000000E+01 0. -1.
        -11    1    1    2    0    0  0.69605278478E+01 -0.19621480988E+02  0.95020571231E+02  0.97274664847E+02  0.00000000000E+00 0.  1.
         11    1    1    2    0    0 -0.43473239965E+02  0.86592898571E+02  0.38461396437E+03  0.39663100517E+03  0.00000000000E+00 0. -1.
</event>
<event>
 7    1  0.2394257E-009  0.8893108E+02  0.7561462E-02  0.1305461E+00
         -1   -1    0    0    0  501 -0.00000000000E+00  0.00000000000E+00  0.26705803551E+03  0.26705803551E+03  0.00000000000E+00 0.  1.
          1   -1    0    0  501    0  0.00000000000E+00 -0.00000000000E+00 -0.60073310809E+02  0.60073310809E+02  0.00000000000E+00 0. -1.
         25    2    1    2    0    0  0.13788931337E+02 -0.95929035446E+01  0.19506812223E+03  0.23233358404E+03  0.12508062814E+03 0.  0.
          5    1    3    3  502    0 -0.27553182527E+02 -0.41659020352E+02  0.28425590860E+02  0.57620642653E+02  0.41800000000E+01 0.  1.
         -5    1    3    3    0  502  0.41342113864E+02  0.32066116807E+02  0.16664253137E+03  0.17471294139E+03  0.41800000000E+01 0.  1.
        -11    1    1    2    0    0 -0.35932776120E+02  0.28714739699E+02  0.34780555069E+02  0.57666174544E+02  0.00000000000E+00 0.  1.
         11    1    1    2    0    0  0.22143844783E+02 -0.19121836154E+02 -0.22863952596E+02  0.37131587739E+02  0.00000000000E+00 0. -1.
</event>
<event>
 7    1  0.2394257E-009  0.2252068E+03  0.7561462E-02  0.1130060E+00
         -2   -1    0    0    0  501 -0.00000000000E+00  0.00000000000E+00  0.23268779492E+02  0.23268779492E+02  0.00000000000E+00 0.  1.
          2   -1    0    0  501    0  0.00000000000E+00 -0.00000000000E+00 -0.25182511220E+04  0.25182511220E+04  0.00000000000E+00 0. -1.
         25    2    1    2    0    0 -0.19988277076E+03  0.36659400384E+02 -0.16689753280E+04  0.16859489113E+04  0.12509217499E+03 0.  0.
          5    1    3    3  502    0 -0.18178260198E+03 -0.16236609227E+02 -0.12846509577E+04  0.12975569727E+04  0.41800000000E+01 0. -1.
         -5    1    3    3    0  502 -0.18100168772E+02  0.52896009611E+02 -0.38432437028E+03  0.38839193856E+03  0.41800000000E+01 0. -1.
        -11    1    1    2    0    0  0.65157792568E+02  0.16086421917E+02 -0.15116929796E+03  0.16539790672E+03  0.00000000000E+00 0.  1.
         11    1    1    2    0    0  0.13472497819E+03 -0.52745822301E+02 -0.67483771658E+03  0.69017308354E+03  0.00000000000E+00 0. -1.
</event>
<event>
 7    1  0.2394257E-009  0.3964813E+03  0.7561462E-02  0.1045005E+00
         -2   -1    0    0    0  501 -0.00000000000E+00  0.00000000000E+00  0.36028494644E+03  0.36028494644E+03  0.00000000000E+00 0. -1.
          2   -1    0    0  501    0  0.00000000000E+00 -0.00000000000E+00 -0.45597281369E+03  0.45597281369E+03  0.00000000000E+00 0.  1.
         25    2    1    2    0    0 -0.30896272845E+03  0.22961416984E+03 -0.11449203555E+03  0.42063911787E+03  0.12509279241E+03 0.  0.
          5    1    3    3  502    0 -0.17134865349E+03  0.61669623752E+02 -0.18134160830E+02  0.18305688661E+03  0.41800000000E+01 0. -1.
         -5    1    3    3    0  502 -0.13761407496E+03  0.16794454608E+03 -0.96357874722E+02  0.23758223125E+03  0.41800000000E+01 0. -1.
        -11    1    1    2    0    0  0.15147577943E+03 -0.16337301025E+03 -0.66058170426E+01  0.22288851261E+03  0.00000000000E+00 0.  1.
         11    1    1    2    0    0  0.15748694902E+03 -0.66241159584E+02  0.25409985346E+02  0.17273012965E+03  0.00000000000E+00 0. -1.
</event>
<event>
 7    1  0.4244054E-009  0.1784863E+03  0.7561462E-02  0.1169276E+00
          1   -1    0    0  501    0  0.00000000000E+00  0.00000000000E+00  0.82403204448E+03  0.82403204448E+03  0.00000000000E+00 0. -1.
         -1   -1    0    0    0  501 -0.00000000000E+00 -0.00000000000E+00 -0.41602213078E+02  0.41602213078E+02  0.00000000000E+00 0.  1.
         25    2    1    2    0    0 -0.13214527380E+03 -0.62125627755E+02  0.48933630079E+03  0.52575645335E+03  0.12509143036E+03 0.  0.
          5    1    3    3  502    0 -0.41801779856E+02  0.34102181987E+02  0.88540032931E+02  0.10376491433E+03  0.41800000000E+01 0.  1.
         -5    1    3    3    0  502 -0.90343493939E+02 -0.96227809742E+02  0.40079626786E+03  0.42199153901E+03  0.41800000000E+01 0.  1.
        -11    1    1    2    0    0  0.71246697904E+02  0.80205286685E+02  0.16352984161E+03  0.19557860075E+03  0.00000000000E+00 0.  1.
         11    1    1    2    0    0  0.60898575891E+02 -0.18079658930E+02  0.12956368900E+03  0.14429920346E+03  0.00000000000E+00 0. -1.
</event>
<event>
 7    1  0.2394257E-009  0.1136992E+03  0.7561462E-02  0.1253869E+00
         -2   -1    0    0    0  501 -0.00000000000E+00  0.00000000000E+00  0.39520061021E+02  0.39520061021E+02  0.00000000000E+00 0.  1.
          2   -1    0    0  501    0  0.00000000000E+00 -0.00000000000E+00 -0.43895609188E+03  0.43895609188E+03  0.00000000000E+00 0. -1.
         25    2    1    2    0    0 -0.70847725479E+02 -0.15461881152E+02 -0.21492726984E+03  0.25903656399E+03  0.12509092767E+03 0.  0.
          5    1    3    3  502    0 -0.76336570219E+02 -0.56216416476E+02 -0.10465384883E+03  0.14127086717E+03  0.41800000000E+01 0.  1.
         -5    1    3    3    0  502  0.54888447400E+01  0.40754535324E+02 -0.11027342101E+03  0.11776569682E+03  0.41800000000E+01 0.  1.
        -11    1    1    2    0    0  0.35051903947E+02 -0.20353253201E+02 -0.16151333784E+02  0.43632057815E+02  0.00000000000E+00 0.  1.
         11    1    1    2    0    0  0.35795821532E+02  0.35815134353E+02 -0.16835742723E+03  0.17580753110E+03  0.00000000000E+00 0. -1.
</event>
<event>
 7    1  0.2394257E-009  0.2009723E+03  0.7561462E-02  0.1148921E+00
          1   -1    0    0  501    0  0.00000000000E+00  0.00000000000E+00  0.33663768303E+03  0.33663768303E+03  0.00000000000E+00 0. -1.
         -1   -1    0    0    0  501 -0.00000000000E+00 -0.00000000000E+00 -0.14274999590E+03  0.14274999590E+03  0.00000000000E+00 0.  1.
         25    2    1    2    0    0  0.73808614505E+02 -0.16235474003E+03  0.29228926769E+02  0.21979252867E+03  0.12509057643E+03 0.  0.
          5    1    3    3  502    0  0.10442937321E+03 -0.13976482011E+03  0.41881901239E+02  0.17947497035E+03  0.41800000000E+01 0. -1.
         -5    1    3    3    0  502 -0.30620758708E+02 -0.22589919917E+02 -0.12652974470E+02  0.40317558317E+02  0.41800000000E+01 0. -1.
        -11    1    1    2    0    0 -0.20985581685E+02  0.11891744675E+03  0.14446547246E+03  0.18828708536E+03  0.00000000000E+00 0.  1.
         11    1    1    2    0    0 -0.52823032820E+02  0.43437293277E+02  0.20193287896E+02  0.71308064899E+02  0.00000000000E+00 0. -1.
</event>
<event>
 7    1  0.2394257E-009  0.1117376E+03  0.7561462E-02  0.1257386E+00
          1   -1    0    0  501    0  0.00000000000E+00  0.00000000000E+00  0.34094965841E+03  0.34094965841E+03  0.00000000000E+00 0. -1.
         -1   -1    0    0    0  501 -0.00000000000E+00 -0.00000000000E+00 -0.44573917958E+02  0.44573917958E+02  0.00000000000E+00 0.  1.
         25    2    1    2    0    0 -0.33797319836E+02  0.17352614738E+02  0.95224631817E+02  0.16173686041E+03  0.12509080479E+03 0.  0.
          5    1    3    3  502    0  0.41794992796E+02  0.33006904797E+02  0.39457326447E+02  0.66412575597E+02  0.41800000000E+01 0.  1.
         -5    1    3    3    0  502 -0.75592312632E+02 -0.15654290059E+02  0.55767305370E+02  0.95324284810E+02  0.41800000000E+01 0.  1.
        -11    1    1    2    0    0  0.13014262044E+02 -0.51308924908E+02  0.14935787824E+03  0.15846057107E+03  0.00000000000E+00 0. -1.
         11    1    1    2    0    0  0.20783057792E+02  0.33956310170E+02  0.51793230395E+02  0.65326144891E+02  0.00000000000E+00 0.  1.
</event>
<event>
 7    1  0.2394257E-009  0.1965126E+03  0.7561462E-02  0.1152715E+00
          1   -1    0    0  501    0  0.00000000000E+00  0.00000000000E+00  0.42907400060E+03  0.42907400060E+03  0.00000000000E+00 0. -1.
         -1   -1    0    0    0  501 -0.00000000000E+00 -0.00000000000E+00 -0.11566573604E+03  0.11566573604E+03  0.00000000000E+00 0.  1.
         25    2    1    2    0    0  0.91734867273E+02 -0.16214012039E+03  0.94309570798E+02  0.24340950070E+03  0.12509670408E+03 0.  0.
          5    1    3    3  502    0  0.24449590024E+02  0.19987780231E+01  0.56845552134E+02  0.62053740930E+02  0.41800000000E+01 0. -1.
         -5    1    3    3    0  502  0.67285277248E+02 -0.16413889841E+03  0.37464018664E+02  0.18135575977E+03  0.41800000000E+01 0. -1.
        -11    1    1    2    0    0 -0.89310824414E+02  0.12581938005E+03  0.11910786077E+03  0.19491952763E+03  0.00000000000E+00 0.  1.
         11    1    1    2    0    0 -0.24240428588E+01  0.36320740333E+02  0.99990832990E+02  0.10641070832E+03  0.00000000000E+00 0. -1.
</event>
<event>
 7    1  0.2394257E-009  0.1237362E+03  0.7561462E-02  0.1237058E+00
         -3   -1    0    0    0  501 -0.00000000000E+00  0.00000000000E+00  0.35300757787E+03  0.35300757787E+03  0.00000000000E+00 0.  1.
          3   -1    0    0  501    0  0.00000000000E+00 -0.00000000000E+00 -0.46577120314E+02  0.46577120314E+02  0.00000000000E+00 0. -1.
         25    2    1    2    0    0 -0.26080277298E+02  0.63856104695E+02  0.16176375657E+03  0.21581017472E+03  0.12509490638E+03 0.  0.
          5    1    3    3  502    0 -0.27407275294E+02  0.99497577704E+02  0.96674900799E+02  0.14147238442E+03  0.41800000000E+01 0.  1.
         -5    1    3    3    0  502  0.13269979956E+01 -0.35641473009E+02  0.65088855767E+02  0.74337790302E+02  0.41800000000E+01 0.  1.
        -11    1    1    2    0    0 -0.21048571819E+02 -0.56857620982E+02  0.10721996930E+03  0.12317448297E+03  0.00000000000E+00 0.  1.
         11    1    1    2    0    0  0.47128849117E+02 -0.69984837131E+01  0.37446731691E+02  0.60600040493E+02  0.00000000000E+00 0. -1.
</event>
<event>
 7    1  0.2394257E-009  0.2590298E+03  0.7561462E-02  0.1107728E+00
         -1   -1    0    0    0  501 -0.00000000000E+00  0.00000000000E+00  0.40940611735E+03  0.40940611735E+03  0.00000000000E+00 0.  1.
          1   -1    0    0  501    0  0.00000000000E+00 -0.00000000000E+00 -0.17489017156E+03  0.17489017156E+03  0.00000000000E+00 0. -1.
         25    2    1    2    0    0  0.58447993019E+02  0.23646017178E+03  0.17728218737E+03  0.32619919154E+03  0.12508939953E+03 0.  0.
          5    1    3    3  502    0 -0.32143506866E+02  0.11661371267E+03  0.10108959548E+03  0.15769762753E+03  0.41800000000E+01 0. -1.
         -5    1    3    3    0  502  0.90591499885E+02  0.11984645911E+03  0.76192591894E+02  0.16850156400E+03  0.41800000000E+01 0. -1.
        -11    1    1    2    0    0  0.52858431767E+01 -0.35984433437E+02 -0.91584600951E+01  0.37505959249E+02  0.00000000000E+00 0.  1.
         11    1    1    2    0    0 -0.63733836196E+02 -0.20047573834E+03  0.66392218521E+02  0.22059113812E+03  0.00000000000E+00 0. -1.
</event>
<event>
 7    1  0.2394257E-009  0.5604682E+02  0.7561462E-02  0.1415212E+00
          1   -1    0    0  501    0  0.00000000000E+00  0.00000000000E+00  0.23382805544E+03  0.23382805544E+03  0.00000000000E+00 0. -1.
         -1   -1    0    0    0  501 -0.00000000000E+00 -0.00000000000E+00 -0.65233225194E+02  0.65233225194E+02  0.00000000000E+00 0.  1.
         25    2    1    2    0    0 -0.23162877712E+02  0.27112361058E+02  0.15036990323E+03  0.19882257227E+03  0.12509080071E+03 0.  0.
          5    1    3    3  502    0 -0.30646832931E+02  0.13590960605E+01 -0.12733106780E+02  0.33476557754E+02  0.41800000000E+01 0. -1.
         -5    1    3    3    0  502  0.74839552190E+01  0.25753264998E+02  0.16310301001E+03  0.16534601452E+03  0.41800000000E+01 0. -1.
        -11    1    1    2    0    0  0.70645452779E+01 -0.35251118091E+02 -0.31214065819E+02  0.47611627063E+02  0.00000000000E+00 0.  1.
         11    1    1    2    0    0  0.16098332434E+02  0.81387570334E+01  0.49438992838E+02  0.52627081299E+02  0.00000000000E+00 0. -1.
</event>
<event>
 7    1  0.2394257E-009  0.1744918E+03  0.7561462E-02  0.1173243E+00
          1   -1    0    0  501    0  0.00000000000E+00  0.00000000000E+00  0.14132682075E+03  0.14132682075E+03  0.00000000000E+00 0. -1.
         -1   -1    0    0    0  501 -0.00000000000E+00 -0.00000000000E+00 -0.34920653235E+03  0.34920653235E+03  0.00000000000E+00 0.  1.
         25    2    1    2    0    0 -0.81380549123E+02  0.13742542636E+03  0.12894040458E+02  0.20328065014E+03  0.12509286493E+03 0.  0.
          5    1    3    3  502    0  0.64606464204E+01  0.43981534742E+00  0.37821794057E+02  0.38599143713E+02  0.41800000000E+01 0. -1.
         -5    1    3    3    0  502 -0.87841195543E+02  0.13698561101E+03 -0.24927753598E+02  0.16468150642E+03  0.41800000000E+01 0. -1.
        -11    1    1    2    0    0  0.18880483294E+02  0.77696067835E+01 -0.52726475982E+02  0.56541318595E+02  0.00000000000E+00 0.  1.
         11    1    1    2    0    0  0.62500065829E+02 -0.14519503314E+03 -0.16804727608E+03  0.23071138437E+03  0.00000000000E+00 0. -1.
</event>
<event>
 7    1  0.2394257E-009  0.1275580E+03  0.7561462E-02  0.1231125E+00
          1   -1    0    0  501    0  0.00000000000E+00  0.00000000000E+00  0.77075803655E+03  0.77075803655E+03  0.00000000000E+00 0. -1.
         -1   -1    0    0    0  501 -0.00000000000E+00 -0.00000000000E+00 -0.22599751722E+02  0.22599751722E+02  0.00000000000E+00 0.  1.
         25    2    1    2    0    0  0.55921449846E+02 -0.49458630921E+02  0.38988102155E+03  0.41620619367E+03  0.12508804882E+03 0.  0.
          5    1    3    3  502    0  0.90207850066E+02 -0.49044765526E+02  0.34240633686E+03  0.35749463934E+03  0.41800000000E+01 0. -1.
         -5    1    3    3    0  502 -0.34286400220E+02 -0.41386539444E+00  0.47474684690E+02  0.58711554323E+02  0.41800000000E+01 0. -1.
        -11    1    1    2    0    0  0.13975847220E+02 -0.16556120322E+02  0.64351396427E+02  0.67900895780E+02  0.00000000000E+00 0. -1.
         11    1    1    2    0    0 -0.69897297067E+02  0.66014751243E+02  0.29392586685E+03  0.30925069882E+03  0.00000000000E+00 0.  1.
</event>
<event>
 7    1  0.2394257E-009  0.1027761E+03  0.7561462E-02  0.1274564E+00
          1   -1    0    0  501    0  0.00000000000E+00  0.00000000000E+00  0.28142700821E+03  0.28142700821E+03  0.00000000000E+00 0. -1.
         -1   -1    0    0    0  501 -0.00000000000E+00 -0.00000000000E+00 -0.52910415923E+02  0.52910415923E+02  0.00000000000E+00 0.  1.
         25    2    1    2    0    0 -0.27328258121E+02 -0.21483962300E+02  0.18857477244E+03  0.22894204362E+03  0.12508245363E+03 0.  0.
          5    1    3    3  502    0  0.34644565015E+02 -0.49857128183E+02  0.10059887398E+03  0.11757374265E+03  0.41800000000E+01 0. -1.
         -5    1    3    3    0  502 -0.61972823136E+02  0.28373165883E+02  0.87975898460E+02  0.11136830096E+03  0.41800000000E+01 0. -1.
        -11    1    1    2    0    0  0.29353906416E+02  0.44496997621E+02 -0.63256174068E+01  0.53680984107E+02  0.00000000000E+00 0.  1.
         11    1    1    2    0    0 -0.20256482950E+01 -0.23013035322E+02  0.46267437253E+02  0.51714396406E+02  0.00000000000E+00 0. -1.
</event>
<event>
 7    1  0.2394257E-009  0.1180625E+03  0.7561462E-02  0.1246328E+00
          2   -1    0    0  501    0  0.00000000000E+00  0.00000000000E+00  0.36494666796E+03  0.36494666796E+03  0.00000000000E+00 0.  1.
         -2   -1    0    0    0  501 -0.00000000000E+00 -0.00000000000E+00 -0.14848557069E+03  0.14848557069E+03  0.00000000000E+00 0. -1.
         25    2    1    2    0    0  0.66530243613E+02  0.45110148681E+02  0.32050306695E+03  0.35331596339E+03  0.12509498485E+03 0.  0.
          5    1    3    3  502    0 -0.27590322335E+02  0.15328510238E+02  0.17215216493E+03  0.17507149797E+03  0.41800000000E+01 0.  1.
         -5    1    3    3    0  502  0.94120565948E+02  0.29781638442E+02  0.14835090202E+03  0.17824446542E+03  0.41800000000E+01 0.  1.
        -11    1    1    2    0    0 -0.18757827592E+02 -0.53751846470E+02 -0.15280675966E+02  0.58945874774E+02  0.00000000000E+00 0.  1.
         11    1    1    2    0    0 -0.47772416022E+02  0.86416977898E+01 -0.88761293709E+02  0.10117040048E+03  0.00000000000E+00 0. -1.
</event>
<event>
 7    1  0.2394257E-009  0.1126905E+03  0.7561462E-02  0.1255667E+00
         -2   -1    0    0    0  501 -0.00000000000E+00  0.00000000000E+00  0.19920617189E+02  0.19920617189E+02  0.00000000000E+00 0.  1.
          2   -1    0    0  501    0  0.00000000000E+00 -0.00000000000E+00 -0.82122455544E+03  0.82122455544E+03  0.00000000000E+00 0. -1.
         25    2    1    2    0    0  0.54838966859E+02  0.19124212955E+02 -0.33192419488E+03  0.35943657164E+03  0.12509168669E+03 0.  0.
          5    1    3    3  502    0  0.21199939749E+01 -0.41218713275E+02 -0.20589873219E+03  0.21003627548E+03  0.41800000000E+01 0. -1.
         -5    1    3    3    0  502  0.52718972884E+02  0.60342926229E+02 -0.12602546268E+03  0.14940029616E+03  0.41800000000E+01 0. -1.
        -11    1    1    2    0    0 -0.68332055922E+02  0.12327774486E+02 -0.37360830195E+03  0.38000579887E+03  0.00000000000E+00 0. -1.
         11    1    1    2    0    0  0.13493089063E+02 -0.31451987441E+02 -0.95771441426E+02  0.10170280212E+03  0.00000000000E+00 0.  1.
</event>
<event>
 7    1  0.2394257E-009  0.8164940E+02  0.7561462E-02  0.1324435E+00
         -3   -1    0    0    0  501 -0.00000000000E+00  0.00000000000E+00  0.10178275772E+03  0.10178275772E+03  0.00000000000E+00 0.  1.
          3   -1    0    0  501    0  0.00000000000E+00 -0.00000000000E+00 -0.15153622414E+03  0.15153622414E+03  0.00000000000E+00 0. -1.
         25    2    1    2    0    0  0.83699626343E+01 -0.39331063689E+02  0.15122158027E+02  0.13226498756E+03  0.12509339881E+03 0.  0.
          5    1    3    3  502    0  0.60059506250E+01  0.10966544644E+02 -0.48934689505E+02  0.50679510468E+02  0.41800000000E+01 0. -1.
         -5    1    3    3    0  502  0.23640120093E+01 -0.50297608333E+02  0.64056847532E+02  0.81585477093E+02  0.41800000000E+01 0. -1.
        -11    1    1    2    0    0 -0.31090321864E+02 -0.19379228773E+02 -0.11157721902E+02  0.38296963059E+02  0.00000000000E+00 0. -1.
         11    1    1    2    0    0  0.22720359230E+02  0.58710292463E+02 -0.53717902544E+02  0.82757031232E+02  0.00000000000E+00 0.  1.
</event>
<event>
 7    1  0.2394257E-009  0.1070379E+03  0.7561462E-02  0.1266156E+00
          1   -1    0    0  501    0  0.00000000000E+00  0.00000000000E+00  0.11057870369E+03  0.11057870369E+03  0.00000000000E+00 0. -1.
         -1   -1    0    0    0  501 -0.00000000000E+00 -0.00000000000E+00 -0.12790056081E+03  0.12790056081E+03  0.00000000000E+00 0.  1.
         25    2    1    2    0    0  0.25170339588E+02  0.43473991356E+02 -0.71009931587E+01  0.13498507585E+03  0.12508801973E+03 0.  0.
          5    1    3    3  502    0  0.16346422185E+02  0.78308193871E+02 -0.36824180911E+02  0.88163889691E+02  0.41800000000E+01 0. -1.
         -5    1    3    3    0  502  0.88239174035E+01 -0.34834202515E+02  0.29723187753E+02  0.46821186160E+02  0.41800000000E+01 0. -1.
        -11    1    1    2    0    0 -0.93638747680E+01 -0.67985766825E+02  0.80184139233E+01  0.69094439743E+02  0.00000000000E+00 0. -1.
         11    1    1    2    0    0 -0.15806464820E+02  0.24511775470E+02 -0.18239277889E+02  0.34399748905E+02  0.00000000000E+00 0.  1.
</event>
<event>
 7    1  0.2394257E-009  0.2936474E+03  0.7561462E-02  0.1088460E+00
         -2   -1    0    0    0  501 -0.00000000000E+00  0.00000000000E+00  0.31126385223E+02  0.31126385223E+02  0.00000000000E+00 0.  1.
          2   -1    0    0  501    0  0.00000000000E+00 -0.00000000000E+00 -0.33523746012E+04  0.33523746012E+04  0.00000000000E+00 0. -1.
         25    2    1    2    0    0 -0.28186549734E+03  0.48782240855E+02 -0.22299821217E+04  0.22517316740E+04  0.12508958031E+03 0.  0.
          5    1    3    3  502    0 -0.17795093454E+02  0.14846550314E+02 -0.46998124756E+02  0.52567875531E+02  0.41800000000E+01 0.  1.
         -5    1    3    3    0  502 -0.26407040388E+03  0.33935690540E+02 -0.21829839970E+04  0.21991637985E+04  0.41800000000E+01 0.  1.
        -11    1    1    2    0    0  0.19190666990E+03  0.62604118076E+01 -0.77276166718E+03  0.79625872490E+03  0.00000000000E+00 0.  1.
         11    1    1    2    0    0  0.89958827437E+02 -0.55042652662E+02 -0.31850442709E+03  0.33551058750E+03  0.00000000000E+00 0. -1.
</event>
<event>
 7    1  0.2394257E-009  0.1222179E+03  0.7561462E-02  0.1239482E+00
          1   -1    0    0  501    0  0.00000000000E+00  0.00000000000E+00  0.21746368661E+03  0.21746368661E+03  0.00000000000E+00 0. -1.
         -1   -1    0    0    0  501 -0.00000000000E+00 -0.00000000000E+00 -0.71066318041E+02  0.71066318041E+02  0.00000000000E+00 0.  1.
         25    2    1    2    0    0  0.14855384645E+02  0.69615391758E+02  0.71085382182E+02  0.16053264556E+03  0.12510241208E+03 0.  0.
          5    1    3    3  502    0  0.28307795313E+02  0.10338720252E+03  0.55169276078E+02  0.12062904436E+03  0.41800000000E+01 0.  1.
         -5    1    3    3    0  502 -0.13452410669E+02 -0.33771810765E+02  0.15916106103E+02  0.39903601199E+02  0.41800000000E+01 0.  1.
        -11    1    1    2    0    0 -0.10809535264E+02  0.13534591690E+02  0.26989196905E+01  0.17530413354E+02  0.00000000000E+00 0.  1.
         11    1    1    2    0    0 -0.40458493803E+01 -0.83149983448E+02  0.72613066697E+02  0.11046694573E+03  0.00000000000E+00 0. -1.
</event>
<event>
 7    1  0.2394257E-009  0.1464200E+03  0.7561462E-02  0.1204942E+00
          2   -1    0    0  501    0  0.00000000000E+00  0.00000000000E+00  0.21460917489E+04  0.21460917489E+04  0.00000000000E+00 0. -1.
         -2   -1    0    0    0  501 -0.00000000000E+00 -0.00000000000E+00 -0.20540243790E+02  0.20540243790E+02  0.00000000000E+00 0.  1.
         25    2    1    2    0    0  0.90384499398E+02  0.56244092830E+02  0.18417564567E+04  0.18490667412E+04  0.12509281245E+03 0.  0.
          5    1    3    3  502    0 -0.69726976081E+01  0.57558993316E+02  0.99987327694E+03  0.10015616299E+04  0.41800000000E+01 0. -1.
         -5    1    3    3    0  502  0.97357197006E+02 -0.13149004857E+01  0.84188317980E+03  0.84750511126E+03  0.41800000000E+01 0. -1.
        -11    1    1    2    0    0 -0.43098045634E+02  0.20019123102E+02  0.60620229093E+02  0.77026092998E+02  0.00000000000E+00 0.  1.
         11    1    1    2    0    0 -0.47286453764E+02 -0.76263215932E+02  0.22317481930E+03  0.24053915853E+03  0.00000000000E+00 0. -1.
</event>
<event>
 7    1  0.2394257E-009  0.1056385E+03  0.7561462E-02  0.1268867E+00
          2   -1    0    0  501    0  0.00000000000E+00  0.00000000000E+00  0.25990032841E+03  0.25990032841E+03  0.00000000000E+00 0. -1.
         -2   -1    0    0    0  501 -0.00000000000E+00 -0.00000000000E+00 -0.55652763289E+02  0.55652763289E+02  0.00000000000E+00 0.  1.
         25    2    1    2    0    0 -0.13131862655E+02 -0.51209655933E+02  0.10256286019E+03  0.17017530753E+03  0.12508245411E+03 0.  0.
          5    1    3    3  502    0 -0.62124041867E+02 -0.15223956970E+02  0.19189098232E+02  0.66909336678E+02  0.41800000000E+01 0. -1.
         -5    1    3    3    0  502  0.48992179212E+02 -0.35985698962E+02  0.83373761954E+02  0.10326597085E+03  0.41800000000E+01 0. -1.
        -11    1    1    2    0    0  0.40640272713E+02  0.38360232493E+02  0.21920198758E+02  0.60030278333E+02  0.00000000000E+00 0.  1.
         11    1    1    2    0    0 -0.27508410058E+02  0.12849423439E+02  0.79764506175E+02  0.85347505834E+02  0.00000000000E+00 0. -1.
</event>
<event>
 7    1  0.2394257E-009  0.1278052E+03  0.7561462E-02  0.1230749E+00
          4   -1    0    0  501    0  0.00000000000E+00  0.00000000000E+00  0.75946167890E+03  0.75946167890E+03  0.00000000000E+00 0.  1.
         -4   -1    0    0    0  501 -0.00000000000E+00 -0.00000000000E+00 -0.23346322544E+02  0.23346322544E+02  0.00000000000E+00 0. -1.
         25    2    1    2    0    0  0.69348277873E+02  0.25807064902E+02  0.48172608254E+03  0.50317293690E+03  0.12509115708E+03 0.  0.
          5    1    3    3  502    0 -0.14997334099E+02 -0.33101818008E+02  0.72678876774E+02  0.81365483558E+02  0.41800000000E+01 0. -1.
         -5    1    3    3    0  502  0.84345611973E+02  0.58908882910E+02  0.40904720577E+03  0.42180745334E+03  0.41800000000E+01 0. -1.
        -11    1    1    2    0    0 -0.46030581634E+02  0.30433575223E+02  0.11698327427E+03  0.12934490097E+03  0.00000000000E+00 0. -1.
         11    1    1    2    0    0 -0.23317696240E+02 -0.56240640125E+02  0.13740599954E+03  0.15029016358E+03  0.00000000000E+00 0.  1.
</event>
<event>
 7    1  0.2394257E-009  0.9182403E+02  0.7561462E-02  0.1298494E+00
          2   -1    0    0  501    0  0.00000000000E+00  0.00000000000E+00  0.18032890344E+03  0.18032890344E+03  0.00000000000E+00 0. -1.
         -2   -1    0    0    0  501 -0.00000000000E+00 -0.00000000000E+00 -0.78891027424E+02  0.78891027424E+02  0.00000000000E+00 0.  1.
         25    2    1    2    0    0  0.42317648424E+02  0.22854174075E+02  0.63544738929E+02  0.14831907359E+03  0.12509003599E+03 0.  0.
          5    1    3    3  502    0 -0.14928959961E+02 -0.74137143662E+01 -0.29939398433E+02  0.34520674744E+02  0.41800000000E+01 0.  1.
         -5    1    3    3    0  502  0.57246608385E+02  0.30267888441E+02  0.93484137362E+02  0.11379839885E+03  0.41800000000E+01 0.  1.
        -11    1    1    2    0    0  0.15486769345E+02 -0.38659922213E+02  0.27947697350E+02  0.50154794362E+02  0.00000000000E+00 0. -1.
         11    1    1    2    0    0 -0.57804417769E+02  0.15805748138E+02  0.99454397395E+01  0.60746062913E+02  0.00000000000E+00 0.  1.
</event>
<event>
 7    1  0.2394257E-009  0.1014106E+03  0.7561462E-02  0.1277357E+00
          2   -1    0    0  501    0  0.00000000000E+00  0.00000000000E+00  0.16214937170E+03  0.16214937170E+03  0.00000000000E+00 0. -1.
         -2   -1    0    0    0  501 -0.00000000000E+00 -0.00000000000E+00 -0.97635410207E+02  0.97635410207E+02  0.00000000000E+00 0.  1.
         25    2    1    2    0    0 -0.42652171442E+02  0.16115697992E+02  0.90088268251E+02  0.16075620861E+03  0.12509092325E+03 0.  0.
          5    1    3    3  502    0 -0.65699365534E+02  0.54709246097E+02  0.44013864583E+02  0.96250719039E+02  0.41800000000E+01 0.  1.
         -5    1    3    3    0  502  0.23047194092E+02 -0.38593548105E+02  0.46074403668E+02  0.64505489566E+02  0.41800000000E+01 0.  1.
        -11    1    1    2    0    0  0.55901542940E+02 -0.78198494337E+01  0.12549711508E+02  0.57824110950E+02  0.00000000000E+00 0. -1.
         11    1    1    2    0    0 -0.13249371497E+02 -0.82958485578E+01 -0.38124018270E+02  0.41204462348E+02  0.00000000000E+00 0.  1.
</event>
<event>
 7    1  0.2394257E-009  0.1288941E+03  0.7561462E-02  0.1229106E+00
          2   -1    0    0  501    0  0.00000000000E+00  0.00000000000E+00  0.38092369469E+03  0.38092369469E+03  0.00000000000E+00 0. -1.
         -2   -1    0    0    0  501 -0.00000000000E+00 -0.00000000000E+00 -0.46114401774E+02  0.46114401774E+02  0.00000000000E+00 0.  1.
         25    2    1    2    0    0  0.68496607821E+02 -0.30253778397E+02  0.16032073009E+03  0.21669632337E+03  0.12508990238E+03 0.  0.
          5    1    3    3  502    0  0.50104686288E+02 -0.76776288910E+02  0.12602165381E+03  0.15589742704E+03  0.41800000000E+01 0.  1.
         -5    1    3    3    0  502  0.18391921533E+02  0.46522510514E+02  0.34299076278E+02  0.60798896336E+02  0.41800000000E+01 0.  1.
        -11    1    1    2    0    0  0.18030958350E+02  0.22652401317E+02  0.60115717566E+02  0.66724405152E+02  0.00000000000E+00 0. -1.
         11    1    1    2    0    0 -0.86527566171E+02  0.76013770793E+01  0.11437284525E+03  0.14361736793E+03  0.00000000000E+00 0.  1.
</event>
<event>
 7    1  0.2394257E-009  0.1639717E+03  0.7561462E-02  0.1184284E+00
         -1   -1    0    0    0  501 -0.00000000000E+00  0.00000000000E+00  0.43300350944E+02  0.43300350944E+02  0.00000000000E+00 0.  1.
          1   -1    0    0  501    0  0.00000000000E+00 -0.00000000000E+00 -0.84786908744E+03  0.84786908744E+03  0.00000000000E+00 0. -1.
         25    2    1    2    0    0  0.93468638683E+02  0.10269279374E+03 -0.59340835308E+03  0.62214365714E+03  0.12508821012E+03 0.  0.
          5    1    3    3  502    0  0.10943190403E+03  0.11997995763E+03 -0.49998028991E+03  0.52570742296E+03  0.41800000000E+01 0. -1.
         -5    1    3    3    0  502 -0.15963265346E+02 -0.17287163890E+02 -0.93428063171E+02  0.96436234185E+02  0.41800000000E+01 0. -1.
        -11    1    1    2    0    0 -0.52481868456E+02 -0.37157667076E+02 -0.16934621276E+03  0.18114408219E+03  0.00000000000E+00 0. -1.
         11    1    1    2    0    0 -0.40986770227E+02 -0.65535126660E+02 -0.41814170658E+02  0.87881699049E+02  0.00000000000E+00 0.  1.
</event>
<event>
 7    1  0.2394257E-009  0.1057052E+03  0.7561462E-02  0.1268736E+00
         -2   -1    0    0    0  501 -0.00000000000E+00  0.00000000000E+00  0.64695847187E+03  0.64695847187E+03  0.00000000000E+00 0.  1.
          2   -1    0    0  501    0  0.00000000000E+00 -0.00000000000E+00 -0.21085042158E+02  0.21085042158E+02  0.00000000000E+00 0. -1.
         25    2    1    2    0    0 -0.24715227765E+02 -0.34024544387E+02  0.33884181173E+03  0.36363394852E+03  0.12508942016E+03 0.  0.
          5    1    3    3  502    0 -0.68437320788E+02 -0.53892287120E+01  0.11733398406E+03  0.13600531930E+03  0.41800000000E+01 0. -1.
         -5    1    3    3    0  502  0.43722093023E+02 -0.28635315675E+02  0.22150782766E+03  0.22762862922E+03  0.41800000000E+01 0. -1.
        -11    1    1    2    0    0 -0.27520409326E+02 -0.61097981795E+00  0.16441346211E+03  0.16670192785E+03  0.00000000000E+00 0.  1.
         11    1    1    2    0    0  0.52235637092E+02  0.34635524205E+02  0.12261815587E+03  0.13770763766E+03  0.00000000000E+00 0. -1.
</event>
<event>
 7    1  0.2394257E-009  0.1361650E+03  0.7561462E-02  0.1218584E+00
          1   -1    0    0  501    0  0.00000000000E+00  0.00000000000E+00  0.94720069192E+02  0.94720069192E+02  0.00000000000E+00 0. -1.
         -1   -1    0    0    0  501 -0.00000000000E+00 -0.00000000000E+00 -0.25123785604E+03  0.25123785604E+03  0.00000000000E+00 0.  1.
         25    2    1    2    0    0 -0.68684845489E+02 -0.68592041836E+02 -0.27450104459E+02  0.16069490898E+03  0.12508744675E+03 0.  0.
          5    1    3    3  502    0 -0.85106380394E+02 -0.82156456435E+01 -0.43416945076E+02  0.95984875563E+02  0.41800000000E+01 0. -1.
         -5    1    3    3    0  502  0.16421534905E+02 -0.60376396193E+02  0.15966840618E+02  0.64710033419E+02  0.41800000000E+01 0. -1.
        -11    1    1    2    0    0  0.63322466584E+02  0.85433599824E+02 -0.12951946361E+03  0.16758259518E+03  0.00000000000E+00 0.  1.
         11    1    1    2    0    0  0.53623789050E+01 -0.16841557988E+02  0.45178122187E+00  0.17680421071E+02  0.00000000000E+00 0. -1.
</event>
<event>
 7    1  0.2394257E-009  0.9391809E+02  0.7561462E-02  0.1293632E+00
          2   -1    0    0  501    0  0.00000000000E+00  0.00000000000E+00  0.10768801316E+04  0.10768801316E+04  0.00000000000E+00 0. -1.
         -2   -1    0    0    0  501 -0.00000000000E+00 -0.00000000000E+00 -0.19429982181E+02  0.19429982181E+02  0.00000000000E+00 0.  1.
         25    2    1    2    0    0 -0.42033628568E+01  0.28164485031E+02  0.91742767410E+03  0.92635422229E+03  0.12509077293E+03 0.  0.
          5    1    3    3  502    0  0.48258786329E+02 -0.83780401808E+01  0.62792789749E+03  0.62984920327E+03  0.41800000000E+01 0.  1.
         -5    1    3    3    0  502 -0.52462149185E+02  0.36542525212E+02  0.28949977661E+03  0.29650501902E+03  0.41800000000E+01 0.  1.
        -11    1    1    2    0    0  0.33999519340E+02 -0.58364138552E+00  0.11992394068E+03  0.12465175290E+03  0.00000000000E+00 0. -1.
         11    1    1    2    0    0 -0.29796156483E+02 -0.27580843646E+02  0.20098534606E+02  0.45304138560E+02  0.00000000000E+00 0.  1.
</event>
<event>
 7    1  0.2394257E-009  0.1222728E+03  0.7561462E-02  0.1239394E+00
         -1   -1    0    0    0  501 -0.00000000000E+00  0.00000000000E+00  0.15609946537E+02  0.15609946537E+02  0.00000000000E+00 0.  1.
          1   -1    0    0  501    0  0.00000000000E+00 -0.00000000000E+00 -0.10952295801E+04  0.10952295801E+04  0.00000000000E+00 0. -1.
         25    2    1    2    0    0  0.12141690510E+02  0.70974558786E+02 -0.70097800038E+03  0.71568214269E+03  0.12508382674E+03 0.  0.
          5    1    3    3  502    0 -0.32062246481E+02 -0.20374614729E+02 -0.28152288059E+03  0.28410511658E+03  0.41800000000E+01 0.  1.
         -5    1    3    3    0  502  0.44203936991E+02  0.91349173515E+02 -0.41945511979E+03  0.43157702611E+03  0.41800000000E+01 0.  1.
        -11    1    1    2    0    0  0.30143913419E+02 -0.12582558385E+02 -0.58532780950E+02  0.67030312080E+02  0.00000000000E+00 0.  1.
         11    1    1    2    0    0 -0.42285603929E+02 -0.58392000401E+02 -0.32010885224E+03  0.32812707187E+03  0.00000000000E+00 0. -1.
</event>
<event>
 7    1  0.2394257E-009  0.1441595E+03  0.7561462E-02  0.1207839E+00
          1   -1    0    0  501    0  0.00000000000E+00  0.00000000000E+00  0.44186255375E+03  0.44186255375E+03  0.00000000000E+00 0. -1.
         -1   -1    0    0    0  501 -0.00000000000E+00 -0.00000000000E+00 -0.83176150149E+02  0.83176150149E+02  0.00000000000E+00 0.  1.
         25    2    1    2    0    0 -0.92335296086E+02 -0.72813912659E+02  0.45734754508E+02  0.17766757654E+03  0.12508567946E+03 0.  0.
          5    1    3    3  502    0 -0.60973378244E+02  0.11110337475E+02 -0.21328084811E+02  0.65677637404E+02  0.41800000000E+01 0.  1.
         -5    1    3    3    0  502 -0.31361917842E+02 -0.83924250133E+02  0.67062839319E+02  0.11198993914E+03  0.41800000000E+01 0.  1.
        -11    1    1    2    0    0 -0.67228938491E+01  0.26170704041E+02  0.17268740028E+02  0.32067310986E+02  0.00000000000E+00 0.  1.
         11    1    1    2    0    0  0.99058189935E+02  0.46643208618E+02  0.29568290907E+03  0.31530381637E+03  0.00000000000E+00 0. -1.
</event>
<event>
 7    1  0.2394257E-009  0.1558622E+03  0.7561462E-02  0.1193449E+00
         -2   -1    0    0    0  501 -0.00000000000E+00  0.00000000000E+00  0.63081107412E+02  0.63081107412E+02  0.00000000000E+00 0.  1.
          2   -1    0    0  501    0  0.00000000000E+00 -0.00000000000E+00 -0.60184563878E+03  0.60184563878E+03  0.00000000000E+00 0. -1.
         25    2    1    2    0    0 -0.57772120457E+02  0.10766849399E+03 -0.46231312813E+03  0.49427755807E+03  0.12508698363E+03 0.  0.
          5    1    3    3  502    0 -0.83086513015E+02  0.48915583349E+02 -0.17448224261E+03  0.19939315015E+03  0.41800000000E+01 0. -1.
         -5    1    3    3    0  502  0.25314392558E+02  0.58752910645E+02 -0.28783088551E+03  0.29488440792E+03  0.41800000000E+01 0. -1.
        -11    1    1    2    0    0  0.61759336083E+02 -0.12172479516E+03 -0.75552613305E+02  0.15601070069E+03  0.00000000000E+00 0. -1.
         11    1    1    2    0    0 -0.39872156260E+01  0.14056301169E+02 -0.89878993503E+00  0.14638487434E+02  0.00000000000E+00 0.  1.
</event>
<event>
 7    1  0.2394257E-009  0.1082533E+03  0.7561462E-02  0.1263839E+00
          2   -1    0    0  501    0  0.00000000000E+00  0.00000000000E+00  0.62079799394E+02  0.62079799394E+02  0.00000000000E+00 0. -1.
         -2   -1    0    0    0  501 -0.00000000000E+00 -0.00000000000E+00 -0.29027238649E+03  0.29027238649E+03  0.00000000000E+00 0.  1.
         25    2    1    2    0    0  0.41341766798E+02  0.58100119588E+02 -0.80804973325E+02  0.16512582457E+03  0.12510926683E+03 0.  0.
          5    1    3    3  502    0  0.81238363934E+02  0.11648940665E+02 -0.52694035180E+02  0.97619175047E+02  0.41800000000E+01 0.  1.
         -5    1    3    3    0  502 -0.39896597135E+02  0.46451178923E+02 -0.28110938145E+02  0.67506649522E+02  0.41800000000E+01 0.  1.
        -11    1    1    2    0    0 -0.40184071634E+02 -0.47176696930E+02 -0.15935574111E+03  0.17098143926E+03  0.00000000000E+00 0.  1.
         11    1    1    2    0    0 -0.11576951639E+01 -0.10923422658E+02  0.11968127338E+02  0.16244922057E+02  0.00000000000E+00 0. -1.
</event>
<event>
 7    1  0.2394257E-009  0.1161709E+03  0.7561462E-02  0.1249551E+00
         -2   -1    0    0    0  501 -0.00000000000E+00  0.00000000000E+00  0.19350874400E+02  0.19350874400E+02  0.00000000000E+00 0.  1.
          2   -1    0    0  501    0  0.00000000000E+00 -0.00000000000E+00 -0.79072433737E+03  0.79072433737E+03  0.00000000000E+00 0. -1.
         25    2    1    2    0    0  0.23491735492E+02 -0.40159019905E+02 -0.55197951407E+03  0.56788503094E+03  0.12508963143E+03 0.  0.
          5    1    3    3  502    0  0.40534092656E+02  0.34444596960E+02 -0.29239371624E+03  0.29722214019E+03  0.41800000000E+01 0.  1.
         -5    1    3    3    0  502 -0.17042357164E+02 -0.74603616866E+02 -0.25958579784E+03  0.27066289074E+03  0.41800000000E+01 0.  1.
        -11    1    1    2    0    0  0.97994797346E+01 -0.26271837610E+02 -0.67610218826E+02  0.73194131897E+02  0.00000000000E+00 0. -1.
         11    1    1    2    0    0 -0.33291215226E+02  0.66430857516E+02 -0.15178373007E+03  0.16899604894E+03  0.00000000000E+00 0.  1.
</event>
<event>
 7    1  0.2394257E-009  0.9989448E+02  0.7561462E-02  0.1280518E+00
         -1   -1    0    0    0  501 -0.00000000000E+00  0.00000000000E+00  0.32897491235E+02  0.32897491235E+02  0.00000000000E+00 0.  1.
          1   -1    0    0  501    0  0.00000000000E+00 -0.00000000000E+00 -0.44645697185E+03  0.44645697185E+03  0.00000000000E+00 0. -1.
         25    2    1    2    0    0 -0.87711493893E+01  0.18798012613E+01 -0.12914734024E+03  0.18002183336E+03  0.12509339823E+03 0.  0.
          5    1    3    3  502    0  0.32277660778E+02 -0.42081550272E+02 -0.99513653745E+02  0.11284123333E+03  0.41800000000E+01 0. -1.
         -5    1    3    3    0  502 -0.41048810167E+02  0.43961351533E+02 -0.29633686494E+02  0.67180600027E+02  0.41800000000E+01 0. -1.
        -11    1    1    2    0    0  0.17827749355E+02 -0.41757939993E+02 -0.20547517648E+03  0.21043194232E+03  0.00000000000E+00 0. -1.
         11    1    1    2    0    0 -0.90565999653E+01  0.39878138731E+02 -0.78936963899E+02  0.88900687406E+02  0.00000000000E+00 0.  1.
</event>
<event>
 7    1  0.2394257E-009  0.8995519E+02  0.7561462E-02  0.1302960E+00
          1   -1    0    0  501    0  0.00000000000E+00  0.00000000000E+00  0.63539656335E+03  0.63539656335E+03  0.00000000000E+00 0. -1.
         -1   -1    0    0    0  501 -0.00000000000E+00 -0.00000000000E+00 -0.29968708221E+02  0.29968708221E+02  0.00000000000E+00 0.  1.
         25    2    1    2    0    0 -0.42832123238E+02  0.33810393830E+02  0.48951547227E+03  0.50818415302E+03  0.12509197525E+03 0.  0.
          5    1    3    3  502    0 -0.15236927979E+02 -0.19797819617E+02  0.39618191003E+03  0.39699080074E+03  0.41800000000E+01 0.  1.
         -5    1    3    3    0  502 -0.27595195259E+02  0.53608213446E+02  0.93333562242E+02  0.11119335228E+03  0.41800000000E+01 0.  1.
        -11    1    1    2    0    0 -0.29439311492E+01 -0.46537016057E+02  0.21207244014E+02  0.51226046039E+02  0.00000000000E+00 0. -1.
         11    1    1    2    0    0  0.45776054387E+02  0.12726622227E+02  0.94705138841E+02  0.10595507251E+03  0.00000000000E+00 0.  1.
</event>
<event>
 7    1  0.2394257E-009  0.9860792E+02  0.7561462E-02  0.1283251E+00
          1   -1    0    0  501    0  0.00000000000E+00  0.00000000000E+00  0.15575980471E+03  0.15575980471E+03  0.00000000000E+00 0. -1.
         -1   -1    0    0    0  501 -0.00000000000E+00 -0.00000000000E+00 -0.18382091357E+03  0.18382091357E+03  0.00000000000E+00 0.  1.
         25    2    1    2    0    0  0.58841159781E+02  0.87967284798E+01  0.10044060772E+03  0.17110035682E+03  0.12508937569E+03 0.  0.
          5    1    3    3  502    0 -0.37583047292E+02  0.13693654464E+02  0.17948258113E+02  0.44041048870E+02  0.41800000000E+01 0.  1.
         -5    1    3    3    0  502  0.96424207073E+02 -0.48969259839E+01  0.82492349607E+02  0.12705930795E+03  0.41800000000E+01 0.  1.
        -11    1    1    2    0    0 -0.20729141802E+02 -0.80570025017E+01  0.10321807909E+02  0.24518407935E+02  0.00000000000E+00 0. -1.
         11    1    1    2    0    0 -0.38112017979E+02 -0.73972597808E+00 -0.13882352449E+03  0.14396195352E+03  0.00000000000E+00 0.  1.
</event>
<event>
 7    1  0.2394257E-009  0.1425905E+03  0.7561462E-02  0.1209885E+00
         -4   -1    0    0    0  501 -0.00000000000E+00  0.00000000000E+00  0.33359492261E+03  0.33359492261E+03  0.00000000000E+00 0.  1.
          4   -1    0    0  501    0  0.00000000000E+00 -0.00000000000E+00 -0.65401228764E+02  0.65401228764E+02  0.00000000000E+00 0. -1.
         25    2    1    2    0    0 -0.87262272852E+02 -0.38270426206E+02  0.99707029021E+02  0.18619189996E+03  0.12508637892E+03 0.  0.
          5    1    3    3  502    0 -0.11910173559E+03 -0.24889404122E+02  0.84658131632E+02  0.14828748265E+03  0.41800000000E+01 0.  1.
         -5    1    3    3    0  502  0.31839462738E+02 -0.13381022084E+02  0.15048897389E+02  0.37904417316E+02  0.41800000000E+01 0.  1.
        -11    1    1    2    0    0  0.41352780073E+02 -0.26602921555E+02  0.49954352425E+02  0.70094259260E+02  0.00000000000E+00 0.  1.
         11    1    1    2    0    0  0.45909492779E+02  0.64873347761E+02  0.11853231240E+03  0.14270999215E+03  0.00000000000E+00 0. -1.
</event>
<event>
 7    1  0.2394257E-009  0.1488129E+03  0.7561462E-02  0.1201939E+00
         -1   -1    0    0    0  501 -0.00000000000E+00  0.00000000000E+00  0.15020421490E+02  0.15020421490E+02  0.00000000000E+00 0.  1.
          1   -1    0    0  501    0  0.00000000000E+00 -0.00000000000E+00 -0.23489026751E+04  0.23489026751E+04  0.00000000000E+00 0. -1.
         25    2    1    2    0    0  0.10960152829E+03 -0.17578164130E+01 -0.19106854146E+04  0.19179107534E+04  0.12508924596E+03 0.  0.
          5    1    3    3  502    0  0.97374064368E+02  0.45711624427E+02 -0.15706501981E+04  0.15743350273E+04  0.41800000000E+01 0.  1.
         -5    1    3    3    0  502  0.12227463923E+02 -0.47469440840E+02 -0.34003521655E+03  0.34357572612E+03  0.41800000000E+01 0.  1.
        -11    1    1    2    0    0 -0.10554911811E+03 -0.29233571761E+02 -0.32441008270E+03  0.34239906514E+03  0.00000000000E+00 0. -1.
         11    1    1    2    0    0 -0.40524101787E+01  0.30991388174E+02 -0.98786756322E+02  0.10361327808E+03  0.00000000000E+00 0.  1.
</event>
<event>
 7    1  0.2394257E-009  0.1078288E+03  0.7561462E-02  0.1264644E+00
         -1   -1    0    0    0  501 -0.00000000000E+00  0.00000000000E+00  0.20660908239E+03  0.20660908239E+03  0.00000000000E+00 0.  1.
          1   -1    0    0  501    0  0.00000000000E+00 -0.00000000000E+00 -0.75984270613E+02  0.75984270613E+02  0.00000000000E+00 0. -1.
         25    2    1    2    0    0 -0.49798020598E+02 -0.33693571627E+02  0.79176039814E+02  0.15978319088E+03  0.12508686255E+03 0.  0.
          5    1    3    3  502    0 -0.86187451096E+02 -0.47754073406E+02  0.64762825926E+02  0.11798484765E+03  0.41800000000E+01 0.  1.
         -5    1    3    3    0  502  0.36389430497E+02  0.14060501778E+02  0.14413213888E+02  0.41798343230E+02  0.41800000000E+01 0.  1.
        -11    1    1    2    0    0 -0.38467577547E+01  0.22723011577E+02  0.62796185824E+02  0.66891656837E+02  0.00000000000E+00 0.  1.
         11    1    1    2    0    0  0.53644778353E+02  0.10970560050E+02 -0.11347413858E+02  0.55918505288E+02  0.00000000000E+00 0. -1.
</event>
<event>
 7    1  0.2394257E-009  0.3495247E+03  0.7561462E-02  0.1062810E+00
          2   -1    0    0  501    0  0.00000000000E+00  0.00000000000E+00  0.47497426532E+03  0.47497426532E+03  0.00000000000E+00 0. -1.
         -2   -1    0    0    0  501 -0.00000000000E+00 -0.00000000000E+00 -0.37268782279E+03  0.37268782279E+03  0.00000000000E+00 0.  1.
         25    2    1    2    0    0 -0.33831566716E+03  0.66956197733E+02 -0.16528033536E+03  0.40237483866E+03  0.12508916207E+03 0.  0.
          5    1    3    3  502    0 -0.25078138550E+02 -0.40856103199E+01  0.19043550749E+02  0.32027089627E+02  0.41800000000E+01 0.  1.
         -5    1    3    3    0  502 -0.31323752861E+03  0.71041808053E+02 -0.18432388611E+03  0.37034774903E+03  0.41800000000E+01 0.  1.
        -11    1    1    2    0    0  0.24514989680E+03 -0.80292428483E+02  0.22371011081E+03  0.34145506242E+03  0.00000000000E+00 0.  1.
         11    1    1    2    0    0  0.93165770353E+02  0.13336230750E+02  0.43856667077E+02  0.10383218703E+03  0.00000000000E+00 0. -1.
</event>
<event>
 7    1  0.2394257E-009  0.9850543E+02  0.7561462E-02  0.1283471E+00
          1   -1    0    0  501    0  0.00000000000E+00  0.00000000000E+00  0.66073536679E+03  0.66073536679E+03  0.00000000000E+00 0. -1.
         -1   -1    0    0    0  501 -0.00000000000E+00 -0.00000000000E+00 -0.26404082298E+02  0.26404082298E+02  0.00000000000E+00 0.  1.
         25    2    1    2    0    0 -0.10749137227E+01 -0.22728788614E+02  0.55306540551E+03  0.56749216277E+03  0.12509300045E+03 0.  0.
          5    1    3    3  502    0 -0.32290478395E+02 -0.65590437940E+02  0.28988669414E+03  0.29899255573E+03  0.41800000000E+01 0. -1.
         -5    1    3    3    0  502  0.31215564672E+02  0.42861649326E+02  0.26317871137E+03  0.26849960704E+03  0.41800000000E+01 0. -1.
        -11    1    1    2    0    0  0.11640426546E+02  0.44713202999E+02  0.14281890098E+02  0.48360546289E+02  0.00000000000E+00 0.  1.
         11    1    1    2    0    0 -0.10565512824E+02 -0.21984414385E+02  0.66983988885E+02  0.71286740029E+02  0.00000000000E+00 0. -1.
</event>
<event>
 7    1  0.2394257E-009  0.3365856E+03  0.7561462E-02  0.1068260E+00
         -2   -1    0    0    0  501 -0.00000000000E+00  0.00000000000E+00  0.14495557499E+03  0.14495557499E+03  0.00000000000E+00 0.  1.
          2   -1    0    0  501    0  0.00000000000E+00 -0.00000000000E+00 -0.92966710589E+03  0.92966710589E+03  0.00000000000E+00 0. -1.
         25    2    1    2    0    0 -0.14354170869E+02  0.32204967189E+03 -0.19616679818E+03  0.39755650159E+03  0.12509087040E+03 0.  0.
          5    1    3    3  502    0  0.52264979652E+02  0.19566042497E+03 -0.12302626035E+03  0.23699696862E+03  0.41800000000E+01 0.  1.
         -5    1    3    3    0  502 -0.66619150521E+02  0.12638924693E+03 -0.73140537827E+02  0.16055953297E+03  0.41800000000E+01 0.  1.
        -11    1    1    2    0    0  0.32835418400E+02 -0.10935507142E+03 -0.27474762891E+03  0.29752807588E+03  0.00000000000E+00 0. -1.
         11    1    1    2    0    0 -0.18481247531E+02 -0.21269460047E+03 -0.31379710381E+03  0.37953810341E+03  0.00000000000E+00 0.  1.
</event>
<event>
 7    1  0.2394257E-009  0.1023427E+03  0.7561462E-02  0.1275445E+00
          1   -1    0    0  501    0  0.00000000000E+00  0.00000000000E+00  0.49384820292E+02  0.49384820292E+02  0.00000000000E+00 0. -1.
         -1   -1    0    0    0  501 -0.00000000000E+00 -0.00000000000E+00 -0.31788851631E+03  0.31788851631E+03  0.00000000000E+00 0.  1.
         25    2    1    2    0    0  0.50804592114E+02  0.21447698905E+02 -0.10811718176E+03  0.17429347391E+03  0.12509108557E+03 0.  0.
          5    1    3    3  502    0 -0.34555076433E+02 -0.20341419092E+02 -0.43397947782E+02  0.59234119472E+02  0.41800000000E+01 0. -1.
         -5    1    3    3    0  502  0.85359668547E+02  0.41789117997E+02 -0.64719233973E+02  0.11505935444E+03  0.41800000000E+01 0. -1.
        -11    1    1    2    0    0 -0.52509254358E+01 -0.23065919553E+02  0.25447515137E+01  0.23792532925E+02  0.00000000000E+00 0. -1.
         11    1    1    2    0    0 -0.45553666678E+02  0.16182206479E+01 -0.16293126577E+03  0.16918732976E+03  0.00000000000E+00 0.  1.
</event>
<event>
 7    1  0.2394257E-009  0.1044529E+03  0.7561462E-02  0.1271201E+00
         -4   -1    0    0    0  501 -0.00000000000E+00  0.00000000000E+00  0.30587077339E+03  0.30587077339E+03  0.00000000000E+00 0.  1.
          4   -1    0    0  501    0  0.00000000000E+00 -0.00000000000E+00 -0.46857185153E+02  0.46857185153E+02  0.00000000000E+00 0. -1.
         25    2    1    2    0    0  0.94881389874E+01 -0.20277451187E+02  0.21512323323E+03  0.24985338273E+03  0.12508999791E+03 0.  0.
          5    1    3    3  502    0  0.66877825501E+02 -0.71977994571E+01  0.10179689283E+03  0.12208411711E+03  0.41800000000E+01 0. -1.
         -5    1    3    3    0  502 -0.57389686514E+02 -0.13079651730E+02  0.11332634040E+03  0.12776926561E+03  0.41800000000E+01 0. -1.
        -11    1    1    2    0    0  0.13577873660E+02  0.45994485882E+02  0.48281229612E+02  0.68050925912E+02  0.00000000000E+00 0.  1.
         11    1    1    2    0    0 -0.23066012647E+02 -0.25717034694E+02 -0.43908746061E+01  0.34823649905E+02  0.00000000000E+00 0. -1.
</event>
<event>
 7    1  0.2394257E-009  0.9646244E+02  0.7561462E-02  0.1287916E+00
         -4   -1    0    0    0  501 -0.00000000000E+00  0.00000000000E+00  0.21220876691E+03  0.21220876691E+03  0.00000000000E+00 0.  1.
          4   -1    0    0  501    0  0.00000000000E+00 -0.00000000000E+00 -0.69637511058E+02  0.69637511058E+02  0.00000000000E+00 0. -1.
         25    2    1    2    0    0  0.11417562308E+02  0.54249108951E+01  0.14186907825E+03  0.18956346825E+03  0.12509069807E+03 0.  0.
          5    1    3    3  502    0  0.53517559279E+02  0.17832153475E+02  0.20052862929E+02  0.60014202989E+02  0.41800000000E+01 0. -1.
         -5    1    3    3    0  502 -0.42099996972E+02 -0.12407242580E+02  0.12181621532E+03  0.12954926526E+03  0.41800000000E+01 0. -1.
        -11    1    1    2    0    0 -0.50250681087E+02  0.86035262695E+01 -0.25075438850E+00  0.50982492012E+02  0.00000000000E+00 0.  1.
         11    1    1    2    0    0  0.38833118779E+02 -0.14028437165E+02  0.95293198842E+00  0.41300317708E+02  0.00000000000E+00 0. -1.
</event>
<event>
 7    1  0.2394257E-009  0.9906644E+02  0.7561462E-02  0.1282271E+00
         -2   -1    0    0    0  501 -0.00000000000E+00  0.00000000000E+00  0.18694348855E+02  0.18694348855E+02  0.00000000000E+00 0.  1.
          2   -1    0    0  501    0  0.00000000000E+00 -0.00000000000E+00 -0.83531607383E+03  0.83531607383E+03  0.00000000000E+00 0. -1.
         25    2    1    2    0    0  0.42603638390E+02  0.22509554567E+01 -0.60180502221E+03  0.61614658139E+03  0.12508872131E+03 0.  0.
          5    1    3    3  502    0 -0.23134542426E+02  0.27163956143E+02 -0.41426283654E+03  0.41581757743E+03  0.41800000000E+01 0. -1.
         -5    1    3    3    0  502  0.65738180816E+02 -0.24913000686E+02 -0.18754218567E+03  0.20032900396E+03  0.41800000000E+01 0. -1.
        -11    1    1    2    0    0  0.25552320817E+01  0.33863726938E+02 -0.34117194356E+02  0.48137970085E+02  0.00000000000E+00 0.  1.
         11    1    1    2    0    0 -0.45158870472E+02 -0.36114682395E+02 -0.18069950841E+03  0.18972587121E+03  0.00000000000E+00 0. -1.
</event>
<event>
 7    1  0.2394257E-009  0.8995965E+02  0.7561462E-02  0.1302949E+00
          2   -1    0    0  501    0  0.00000000000E+00  0.00000000000E+00  0.36899611031E+02  0.36899611031E+02  0.00000000000E+00 0. -1.
         -2   -1    0    0    0  501 -0.00000000000E+00 -0.00000000000E+00 -0.33429012803E+03  0.33429012803E+03  0.00000000000E+00 0.  1.
         25    2    1    2    0    0  0.16285068887E+01  0.22824991450E+02 -0.19743888460E+03  0.23484866119E+03  0.12509255869E+03 0.  0.
          5    1    3    3  502    0 -0.41476202055E+02  0.35608787270E+01 -0.17927009196E+03  0.18408746146E+03  0.41800000000E+01 0.  1.
         -5    1    3    3    0  502  0.43104708944E+02  0.19264112723E+02 -0.18168792641E+02  0.50761199732E+02  0.41800000000E+01 0.  1.
        -11    1    1    2    0    0  0.44255960757E+01 -0.56396521041E+02 -0.75627531303E+02  0.94444041512E+02  0.00000000000E+00 0.  1.
         11    1    1    2    0    0 -0.60541029643E+01  0.33571529591E+02 -0.24324101099E+02  0.41897036363E+02  0.00000000000E+00 0. -1.
</event>
<event>
 7    1  0.2394257E-009  0.1107913E+03  0.7561462E-02  0.1259112E+00
         -1   -1    0    0    0  501 -0.00000000000E+00  0.00000000000E+00  0.33428575725E+03  0.33428575725E+03  0.00000000000E+00 0.  1.
          1   -1    0    0  501    0  0.00000000000E+00 -0.00000000000E+00 -0.44947784422E+02  0.44947784422E+02  0.00000000000E+00 0. -1.
         25    2    1    2    0    0  0.92213294416E+01 -0.24352408117E+02  0.23985879593E+03  0.27176728904E+03  0.12508854746E+03 0.  0.
          5    1    3    3  502    0  0.10894815974E+02  0.50758345960E+02  0.10937064143E+03  0.12113841796E+03  0.41800000000E+01 0. -1.
         -5    1    3    3    0  502 -0.16734865320E+01 -0.75110754077E+02  0.13048815451E+03  0.15062887108E+03  0.41800000000E+01 0. -1.
        -11    1    1    2    0    0  0.27656389047E+02  0.44378022243E+02  0.19139107643E+02  0.55682943122E+02  0.00000000000E+00 0.  1.
         11    1    1    2    0    0 -0.36877718488E+02 -0.20025614126E+02  0.30340069248E+02  0.51783309512E+02  0.00000000000E+00 0. -1.
</event>
<event>
 7    1  0.2394257E-009  0.1030986E+03  0.7561462E-02  0.1273912E+00
         -3   -1    0    0    0  501 -0.00000000000E+00  0.00000000000E+00  0.10412661213E+03  0.10412661213E+03  0.00000000000E+00 0.  1.
          3   -1    0    0  501    0  0.00000000000E+00 -0.00000000000E+00 -0.16099648452E+03  0.16099648452E+03  0.00000000000E+00 0. -1.
         25    2    1    2    0    0  0.23498003905E+02  0.43886006507E+02  0.18793685702E+02  0.13593568500E+03  0.12508864888E+03 0.  0.
          5    1    3    3  502    0  0.33024284984E+02  0.80869513911E+02 -0.98622729978E+01  0.88006923066E+02  0.41800000000E+01 0.  1.
         -5    1    3    3    0  502 -0.95262810785E+01 -0.36983507404E+02  0.28655958700E+02  0.47928761930E+02  0.41800000000E+01 0.  1.
        -11    1    1    2    0    0  0.21879424104E+02 -0.13351931109E+02 -0.69586194584E+02  0.74156737658E+02  0.00000000000E+00 0. -1.
         11    1    1    2    0    0 -0.45377428010E+02 -0.30534075398E+02 -0.60773635074E+01  0.55030673995E+02  0.00000000000E+00 0.  1.
</event>
<event>
 7    1  0.2394257E-009  0.1011074E+03  0.7561462E-02  0.1277984E+00
          1   -1    0    0  501    0  0.00000000000E+00  0.00000000000E+00  0.33054466295E+03  0.33054466295E+03  0.00000000000E+00 0. -1.
         -1   -1    0    0    0  501 -0.00000000000E+00 -0.00000000000E+00 -0.35438424191E+02  0.35438424191E+02  0.00000000000E+00 0.  1.
         25    2    1    2    0    0  0.38193811660E+01  0.11431103682E+02  0.17553176964E+03  0.21588075911E+03  0.12509133542E+03 0.  0.
          5    1    3    3  502    0  0.34137101843E+02  0.59217972808E+02  0.10494797966E+03  0.12531424843E+03  0.41800000000E+01 0. -1.
         -5    1    3    3    0  502 -0.30317720677E+02 -0.47786869126E+02  0.70583789984E+02  0.90566510678E+02  0.41800000000E+01 0. -1.
        -11    1    1    2    0    0 -0.26017295895E+02 -0.35650296172E+02  0.26685524019E+02  0.51574804847E+02  0.00000000000E+00 0.  1.
         11    1    1    2    0    0  0.22197914729E+02  0.24219192490E+02  0.92888945096E+02  0.98527523181E+02  0.00000000000E+00 0. -1.
</event>
<event>
 7    1  0.2394257E-009  0.1289217E+03  0.7561462E-02  0.1229065E+00
          3   -1    0    0  501    0  0.00000000000E+00  0.00000000000E+00  0.37344813045E+03  0.37344813045E+03  0.00000000000E+00 0. -1.
         -3   -1    0    0    0  501 -0.00000000000E+00 -0.00000000000E+00 -0.46901471267E+02  0.46901471267E+02  0.00000000000E+00 0.  1.
         25    2    1    2    0    0 -0.32220167550E+02 -0.60864472187E+02  0.22572358355E+03  0.26709786100E+03  0.12508999964E+03 0.  0.
          5    1    3    3  502    0  0.48274079982E+02 -0.25403609075E+02  0.88963682033E+02  0.10444012291E+03  0.41800000000E+01 0. -1.
         -5    1    3    3    0  502 -0.80494247532E+02 -0.35460863112E+02  0.13675990151E+03  0.16265773809E+03  0.41800000000E+01 0. -1.
        -11    1    1    2    0    0 -0.32681206441E+02  0.22583194217E+02  0.40493941592E+02  0.56725842622E+02  0.00000000000E+00 0. -1.
         11    1    1    2    0    0  0.64901373991E+02  0.38281277969E+02  0.60329134041E+02  0.96525898095E+02  0.00000000000E+00 0.  1.
</event>
<event>
 7    1  0.2394257E-009  0.2310144E+03  0.7561462E-02  0.1125928E+00
          1   -1    0    0  501    0  0.00000000000E+00  0.00000000000E+00  0.51831508063E+03  0.51831508063E+03  0.00000000000E+00 0. -1.
         -1   -1    0    0    0  501 -0.00000000000E+00 -0.00000000000E+00 -0.10857473203E+03  0.10857473203E+03  0.00000000000E+00 0.  1.
         25    2    1    2    0    0 -0.17690581167E+03 -0.11194311678E+03  0.17947830400E+03  0.30279823507E+03  0.12508949579E+03 0.  0.
          5    1    3    3  502    0 -0.22898068003E+02 -0.76366610796E+02  0.30231467897E+02  0.85367410725E+02  0.41800000000E+01 0.  1.
         -5    1    3    3    0  502 -0.15400774366E+03 -0.35576505984E+02  0.14924683611E+03  0.21743082434E+03  0.41800000000E+01 0.  1.
        -11    1    1    2    0    0  0.83362968115E+02  0.72475124594E+01  0.57759575441E+02  0.10167634654E+03  0.00000000000E+00 0. -1.
         11    1    1    2    0    0  0.93542843552E+02  0.10469560432E+03  0.17250246916E+03  0.22241523106E+03  0.00000000000E+00 0.  1.
</event>
<event>
 7    1  0.2394257E-009  0.8847907E+02  0.7561462E-02  0.1306577E+00
         -1   -1    0    0    0  501 -0.00000000000E+00  0.00000000000E+00  0.32914011161E+03  0.32914011161E+03  0.00000000000E+00 0.  1.
          1   -1    0    0  501    0  0.00000000000E+00 -0.00000000000E+00 -0.75533538298E+02  0.75533538298E+02  0.00000000000E+00 0. -1.
         25    2    1    2    0    0  0.54095356766E+02 -0.41607824424E+02  0.25629662628E+03  0.29324326928E+03  0.12508451407E+03 0.  0.
          5    1    3    3  502    0  0.40044457421E+02 -0.33651272326E+02  0.26785753829E+03  0.27294889616E+03  0.41800000000E+01 0. -1.
         -5    1    3    3    0  502  0.14050899345E+02 -0.79565520981E+01 -0.11560912010E+02  0.20294373116E+02  0.41800000000E+01 0. -1.
        -11    1    1    2    0    0 -0.13465143264E+02  0.61224308073E+02 -0.15409903008E+02  0.64553784496E+02  0.00000000000E+00 0. -1.
         11    1    1    2    0    0 -0.40630213502E+02 -0.19616483649E+02  0.12719850045E+02  0.46876596134E+02  0.00000000000E+00 0.  1.
</event>
<event>
 7    1  0.2394257E-009  0.1369986E+03  0.7561462E-02  0.1217426E+00
         -1   -1    0    0    0  501 -0.00000000000E+00  0.00000000000E+00  0.26102503927E+02  0.26102503927E+02  0.00000000000E+00 0.  1.
          1   -1    0    0  501    0  0.00000000000E+00 -0.00000000000E+00 -0.90268188262E+03  0.90268188262E+03  0.00000000000E+00 0. -1.
         25    2    1    2    0    0  0.77962460947E+02 -0.61191746593E+02 -0.34367335989E+03  0.37892263024E+03  0.12509358993E+03 0.  0.
          5    1    3    3  502    0  0.25058081175E+02 -0.93866079112E+02 -0.20573894810E+03  0.22756259667E+03  0.41800000000E+01 0. -1.
         -5    1    3    3    0  502  0.52904379772E+02  0.32674332519E+02 -0.13793441179E+03  0.15136003356E+03  0.41800000000E+01 0. -1.
        -11    1    1    2    0    0 -0.19466806351E+02 -0.10328790907E+02 -0.23785469379E+02  0.32425129525E+02  0.00000000000E+00 0.  1.
         11    1    1    2    0    0 -0.58495654596E+02  0.71520537500E+02 -0.50912054943E+03  0.51743662679E+03  0.00000000000E+00 0. -1.
</event>
<event>
 7    1  0.2394257E-009  0.1076146E+03  0.7561462E-02  0.1265052E+00
         -2   -1    0    0    0  501 -0.00000000000E+00  0.00000000000E+00  0.67762774471E+02  0.67762774471E+02  0.00000000000E+00 0.  1.
          2   -1    0    0  501    0  0.00000000000E+00 -0.00000000000E+00 -0.46909582679E+03  0.46909582679E+03  0.00000000000E+00 0. -1.
         25    2    1    2    0    0  0.64614290614E+02  0.16873560396E+02 -0.40967021202E+03  0.43351619142E+03  0.12508749743E+03 0.  0.
          5    1    3    3  502    0  0.10070210724E+03  0.10137555412E+02 -0.25250023311E+03  0.27206161904E+03  0.41800000000E+01 0. -1.
         -5    1    3    3    0  502 -0.36087816630E+02  0.67360049845E+01 -0.15716997891E+03  0.16145457238E+03  0.41800000000E+01 0. -1.
        -11    1    1    2    0    0 -0.10943816880E+02 -0.20449761393E+02 -0.29538082152E+02  0.37556066969E+02  0.00000000000E+00 0. -1.
         11    1    1    2    0    0 -0.53670473733E+02  0.35762009967E+01  0.37875241847E+02  0.65786342878E+02  0.00000000000E+00 0.  1.
</event>
<event>
 7    1  0.2394257E-009  0.1721038E+03  0.7561462E-02  0.1175671E+00
         -2   -1    0    0    0  501 -0.00000000000E+00  0.00000000000E+00  0.24456595337E+03  0.24456595337E+03  0.00000000000E+00 0. -1.
          2   -1    0    0  501    0  0.00000000000E+00 -0.00000000000E+00 -0.16996477265E+03  0.16996477265E+03  0.00000000000E+00 0.  1.
         25    2    1    2    0    0  0.11307997699E+03 -0.10387850233E+03  0.11945001692E+03  0.23128840932E+03  0.12509275479E+03 0.  0.
          5    1    3    3  502    0  0.73021260277E+01  0.21395174430E+02 -0.71748699437E+01  0.24083722555E+02  0.41800000000E+01 0.  1.
         -5    1    3    3    0  502  0.10577785096E+03 -0.12527367676E+03  0.12662488687E+03  0.20720468676E+03  0.41800000000E+01 0.  1.
        -11    1    1    2    0    0 -0.54050295615E+02  0.27408624201E+02 -0.60207427241E+02  0.85425999741E+02  0.00000000000E+00 0.  1.
         11    1    1    2    0    0 -0.59029681370E+02  0.76469878131E+02  0.15358591041E+02  0.97816316956E+02  0.00000000000E+00 0. -1.
</event>
<event>
 7    1  0.2394257E-009  0.1272965E+03  0.7561462E-02  0.1231523E+00
          3   -1    0    0  501    0  0.00000000000E+00  0.00000000000E+00  0.34549128843E+03  0.34549128843E+03  0.00000000000E+00 0. -1.
         -3   -1    0    0    0  501 -0.00000000000E+00 -0.00000000000E+00 -0.49081105636E+02  0.49081105636E+02  0.00000000000E+00 0.  1.
         25    2    1    2    0    0 -0.17474657158E+02  0.66075702080E+02  0.12568488732E+03  0.19004099530E+03  0.12509007532E+03 0.  0.
          5    1    3    3  502    0 -0.48945177968E+02 -0.18013039780E+02  0.39991474157E+02  0.65855071586E+02  0.41800000000E+01 0.  1.
         -5    1    3    3    0  502  0.31470520809E+02  0.84088741860E+02  0.85693413164E+02  0.12418592371E+03  0.41800000000E+01 0.  1.
        -11    1    1    2    0    0 -0.36696318885E+02 -0.28453108356E+02  0.77212448297E+02  0.90099730116E+02  0.00000000000E+00 0.  1.
         11    1    1    2    0    0  0.54170976044E+02 -0.37622593724E+02  0.93512847172E+02  0.11443166865E+03  0.00000000000E+00 0. -1.
</event>
<event>
 7    1  0.2957086E-009  0.1165122E+03  0.7561462E-02  0.1248964E+00
         -2   -1    0    0    0  501 -0.00000000000E+00  0.00000000000E+00  0.37617088471E+02  0.37617088471E+02  0.00000000000E+00 0.  1.
          2   -1    0    0  501    0  0.00000000000E+00 -0.00000000000E+00 -0.63139309941E+03  0.63139309941E+03  0.00000000000E+00 0. -1.
         25    2    1    2    0    0  0.24844473116E+02  0.10652191415E+03 -0.32762562583E+03  0.36735482656E+03  0.12508737689E+03 0.  0.
          5    1    3    3  502    0  0.31570809921E+02  0.24607999865E+02 -0.25325608477E+03  0.25643398092E+03  0.41800000000E+01 0. -1.
         -5    1    3    3    0  502 -0.67263368054E+01  0.81913914281E+02 -0.74369541055E+02  0.11092084563E+03  0.41800000000E+01 0. -1.
        -11    1    1    2    0    0 -0.29945461165E+01 -0.46687376815E+02 -0.21480017337E+03  0.21983583179E+03  0.00000000000E+00 0. -1.
         11    1    1    2    0    0 -0.21849926999E+02 -0.59834537331E+02 -0.51350211746E+02  0.81819529538E+02  0.00000000000E+00 0.  1.
</event>
<event>
 7    1  0.2394257E-009  0.2327154E+03  0.7561462E-02  0.1124743E+00
          3   -1    0    0  501    0  0.00000000000E+00  0.00000000000E+00  0.42394701195E+03  0.42394701195E+03  0.00000000000E+00 0. -1.
         -3   -1    0    0    0  501 -0.00000000000E+00 -0.00000000000E+00 -0.15019004601E+03  0.15019004601E+03  0.00000000000E+00 0.  1.
         25    2    1    2    0    0 -0.18887373880E+03 -0.12310689475E+03  0.17417927977E+03  0.31114764234E+03  0.12508332059E+03 0.  0.
          5    1    3    3  502    0 -0.16379071526E+03 -0.10696447342E+03  0.78480607065E+02  0.21082095500E+03  0.41800000000E+01 0. -1.
         -5    1    3    3    0  502 -0.25083023538E+02 -0.16142421321E+02  0.95698672701E+02  0.10032668734E+03  0.41800000000E+01 0. -1.
        -11    1    1    2    0    0  0.17827793125E+03  0.80272048381E+02  0.98319723916E+02  0.21884558628E+03  0.00000000000E+00 0. -1.
         11    1    1    2    0    0  0.10595807548E+02  0.42834846364E+02  0.12579622576E+01  0.44143829350E+02  0.00000000000E+00 0.  1.
</event>
<event>
 7    1  0.2394257E-009  0.1083775E+03  0.7561462E-02  0.1263604E+00
          2   -1    0    0  501    0  0.00000000000E+00  0.00000000000E+00  0.42528189927E+02  0.42528189927E+02  0.00000000000E+00 0. -1.
         -2   -1    0    0    0  501 -0.00000000000E+00 -0.00000000000E+00 -0.30165625655E+03  0.30165625655E+03  0.00000000000E+00 0.  1.
         25    2    1    2    0    0  0.16924894827E+02  0.18018303420E+01 -0.10935726625E+03  0.16702457643E+03  0.12509395986E+03 0.  0.
          5    1    3    3  502    0  0.41369784978E+02  0.52576023533E+02 -0.41993080318E+02  0.79098600205E+02  0.41800000000E+01 0.  1.
         -5    1    3    3    0  502 -0.24444890151E+02 -0.50774193191E+02 -0.67364185935E+02  0.87925976226E+02  0.41800000000E+01 0.  1.
        -11    1    1    2    0    0  0.26048075732E+02  0.30019135047E+02 -0.79260205864E+02  0.88666966521E+02  0.00000000000E+00 0.  1.
         11    1    1    2    0    0 -0.42972970560E+02 -0.31820965389E+02 -0.70510594510E+02  0.88492903530E+02  0.00000000000E+00 0. -1.
</event>
<event>
 7    1  0.2645207E-009  0.1479801E+03  0.7561462E-02  0.1202977E+00
          3   -1    0    0  501    0  0.00000000000E+00  0.00000000000E+00  0.27586434969E+03  0.27586434969E+03  0.00000000000E+00 0. -1.
         -3   -1    0    0    0  501 -0.00000000000E+00 -0.00000000000E+00 -0.97045469221E+02  0.97045469221E+02  0.00000000000E+00 0.  1.
         25    2    1    2    0    0 -0.44981590179E+02 -0.10571404806E+03  0.48693070726E+02  0.17668457406E+03  0.12509044793E+03 0.  0.
          5    1    3    3  502    0 -0.59095560445E+02 -0.11899362077E+03  0.10114098244E+02  0.13330991873E+03  0.41800000000E+01 0.  1.
         -5    1    3    3    0  502  0.14113970265E+02  0.13279572704E+02  0.38578972483E+02  0.43374655338E+02  0.41800000000E+01 0.  1.
        -11    1    1    2    0    0  0.52830499621E+02  0.19003241411E+02  0.72994575719E+02  0.92089049071E+02  0.00000000000E+00 0.  1.
         11    1    1    2    0    0 -0.78489094414E+01  0.86710806651E+02  0.57131234020E+02  0.10413619577E+03  0.00000000000E+00 0. -1.
</event>
<event>
 7    1  0.2686834E-009  0.8134331E+02  0.7561462E-02  0.1325282E+00
          1   -1    0    0  501    0  0.00000000000E+00  0.00000000000E+00  0.32652211549E+03  0.32652211549E+03  0.00000000000E+00 0. -1.
         -1   -1    0    0    0  501 -0.00000000000E+00 -0.00000000000E+00 -0.55812713339E+02  0.55812713339E+02  0.00000000000E+00 0.  1.
         25    2    1    2    0    0  0.13020554336E+02  0.78992626210E+02  0.14813916758E+03  0.20976617972E+03  0.12508903770E+03 0.  0.
          5    1    3    3  502    0  0.14696407936E+02  0.60068584223E+02  0.16626969662E+01  0.62003678745E+02  0.41800000000E+01 0. -1.
         -5    1    3    3    0  502 -0.16758536001E+01  0.18924041987E+02  0.14647647062E+03  0.14776250098E+03  0.41800000000E+01 0. -1.
        -11    1    1    2    0    0 -0.12576482792E+02 -0.33896340578E+02 -0.57004217051E+01  0.36600882934E+02  0.00000000000E+00 0.  1.
         11    1    1    2    0    0 -0.44407154434E+00 -0.45096285632E+02  0.12827065627E+03  0.13596776617E+03  0.00000000000E+00 0. -1.
</event>
<event>
 7    1  0.2394257E-009  0.6876642E+02  0.7561462E-02  0.1364339E+00
         -2   -1    0    0    0  501 -0.00000000000E+00  0.00000000000E+00  0.17612723138E+02  0.17612723138E+02  0.00000000000E+00 0.  1.
          2   -1    0    0  501    0  0.00000000000E+00 -0.00000000000E+00 -0.66636228892E+03  0.66636228892E+03  0.00000000000E+00 0. -1.
         25    2    1    2    0    0  0.20219633677E+00 -0.17270479110E+02 -0.41979919377E+03  0.43838141729E+03  0.12509433881E+03 0.  0.
          5    1    3    3  502    0 -0.29044238875E+02 -0.13325878640E+02 -0.40276319636E+03  0.40405050624E+03  0.41800000000E+01 0.  1.
         -5    1    3    3    0  502  0.29246435212E+02 -0.39446004692E+01 -0.17035997412E+02  0.34330911047E+02  0.41800000000E+01 0.  1.
        -11    1    1    2    0    0  0.24222984606E+01 -0.29026850824E+02 -0.32058864793E+02  0.43315082944E+02  0.00000000000E+00 0.  1.
         11    1    1    2    0    0 -0.26244947974E+01  0.46297329933E+02 -0.19689150722E+03  0.20227851183E+03  0.00000000000E+00 0. -1.
</event>
<event>
 7    1  0.2394257E-009  0.9961144E+02  0.7561462E-02  0.1281115E+00
          2   -1    0    0  501    0  0.00000000000E+00  0.00000000000E+00  0.44756712230E+03  0.44756712230E+03  0.00000000000E+00 0. -1.
         -2   -1    0    0    0  501 -0.00000000000E+00 -0.00000000000E+00 -0.30677901369E+02  0.30677901369E+02  0.00000000000E+00 0.  1.
         25    2    1    2    0    0  0.15875894488E+02  0.86590771464E+01  0.15116883208E+03  0.19704922783E+03  0.12509739708E+03 0.  0.
          5    1    3    3  502    0  0.31394826774E+02  0.53372340316E+02  0.13190984155E+03  0.14578038468E+03  0.41800000000E+01 0. -1.
         -5    1    3    3    0  502 -0.15518932286E+02 -0.44713263170E+02  0.19258990527E+02  0.51268843157E+02  0.41800000000E+01 0. -1.
        -11    1    1    2    0    0  0.33769072916E+02  0.12051212281E+02  0.13860149510E+03  0.14316408923E+03  0.00000000000E+00 0. -1.
         11    1    1    2    0    0 -0.49644967404E+02 -0.20710289428E+02  0.12711889376E+03  0.13803170660E+03  0.00000000000E+00 0.  1.
</event>
<event>
 7    1  0.2394257E-009  0.2349967E+03  0.7561462E-02  0.1123172E+00
         -1   -1    0    0    0  501 -0.00000000000E+00  0.00000000000E+00  0.10210865491E+03  0.10210865491E+03  0.00000000000E+00 0.  1.
          1   -1    0    0  501    0  0.00000000000E+00 -0.00000000000E+00 -0.60316289662E+03  0.60316289662E+03  0.00000000000E+00 0. -1.
         25    2    1    2    0    0 -0.19923543674E+03  0.97535063745E+02 -0.28768114388E+03  0.38420822098E+03  0.12509064161E+03 0.  0.
          5    1    3    3  502    0 -0.17802914143E+03  0.61737776778E+02 -0.15170032338E+03  0.24194294532E+03  0.41800000000E+01 0.  1.
         -5    1    3    3    0  502 -0.21206295310E+02  0.35797286966E+02 -0.13598082050E+03  0.14226527566E+03  0.41800000000E+01 0.  1.
        -11    1    1    2    0    0  0.31875483503E+02  0.17742251608E+02 -0.37347284160E+02  0.52207792280E+02  0.00000000000E+00 0. -1.
         11    1    1    2    0    0  0.16735995323E+03 -0.11527731535E+03 -0.17602581367E+03  0.26885553827E+03  0.00000000000E+00 0.  1.
</event>
<event>
 7    1  0.2394257E-009  0.9317174E+02  0.7561462E-02  0.1295348E+00
         -1   -1    0    0    0  501 -0.00000000000E+00  0.00000000000E+00  0.25676008450E+02  0.25676008450E+02  0.00000000000E+00 0.  1.
          1   -1    0    0  501    0  0.00000000000E+00 -0.00000000000E+00 -0.64018097200E+03  0.64018097200E+03  0.00000000000E+00 0. -1.
         25    2    1    2    0    0 -0.57090402787E+02 -0.18119502885E+02 -0.40770834288E+03  0.43065327739E+03  0.12509405261E+03 0.  0.
          5    1    3    3  502    0 -0.70560215157E+02 -0.84196797399E+01 -0.40735996116E+03  0.41353264119E+03  0.41800000000E+01 0.  1.
         -5    1    3    3    0  502  0.13469812369E+02 -0.96998231453E+01 -0.34838172126E+00  0.17120636207E+02  0.41800000000E+01 0.  1.
        -11    1    1    2    0    0  0.74603180554E+02  0.26088052545E+01 -0.94145530807E+02  0.12014916306E+03  0.00000000000E+00 0.  1.
         11    1    1    2    0    0 -0.17512777767E+02  0.15510697631E+02 -0.11265108986E+03  0.11505454000E+03  0.00000000000E+00 0. -1.
</event>
<event>
 7    1  0.2394257E-009  0.1085301E+03  0.7561462E-02  0.1263316E+00
          1   -1    0    0  501    0  0.00000000000E+00  0.00000000000E+00  0.73400315275E+03  0.73400315275E+03  0.00000000000E+00 0. -1.
         -1   -1    0    0    0  501 -0.00000000000E+00 -0.00000000000E+00 -0.20044348475E+02  0.20044348475E+02  0.00000000000E+00 0.  1.
         25    2    1    2    0    0  0.39567813889E+02 -0.29295999364E+01  0.52180159192E+03  0.53805090087E+03  0.12509067170E+03 0.  0.
          5    1    3    3  502    0 -0.23970859319E+02  0.40248723124E+02  0.11879619066E+03  0.12776763724E+03  0.41800000000E+01 0.  1.
         -5    1    3    3    0  502  0.63538673207E+02 -0.43178323060E+02  0.40300540126E+03  0.41028326363E+03  0.41800000000E+01 0.  1.
        -11    1    1    2    0    0  0.23303085886E+02  0.16778140566E+02  0.30000750351E+02  0.41528121006E+02  0.00000000000E+00 0.  1.
         11    1    1    2    0    0 -0.62870899774E+02 -0.13848540630E+02  0.16215646201E+03  0.17446847935E+03  0.00000000000E+00 0. -1.
</event>
<event>
 7    1  0.2394257E-009  0.9204132E+02  0.7561462E-02  0.1297982E+00
          1   -1    0    0  501    0  0.00000000000E+00  0.00000000000E+00  0.29758640342E+03  0.29758640342E+03  0.00000000000E+00 0. -1.
         -1   -1    0    0    0  501 -0.00000000000E+00 -0.00000000000E+00 -0.42970822693E+02  0.42970822693E+02  0.00000000000E+00 0.  1.
         25    2    1    2    0    0  0.90694903681E+00  0.17561455123E+02  0.19273196839E+03  0.23043909414E+03  0.12508931693E+03 0.  0.
          5    1    3    3  502    0  0.48823332482E+02 -0.12654907078E+02  0.15291230426E+03  0.16106989062E+03  0.41800000000E+01 0.  1.
         -5    1    3    3    0  502 -0.47916383446E+02  0.30216362201E+02  0.39819664122E+02  0.69369203527E+02  0.41800000000E+01 0.  1.
        -11    1    1    2    0    0  0.31579785669E+02  0.10973094265E+02 -0.14139951841E+01  0.33461784815E+02  0.00000000000E+00 0.  1.
         11    1    1    2    0    0 -0.32486734706E+02 -0.28534549388E+02  0.63297607527E+02  0.76656347155E+02  0.00000000000E+00 0. -1.
</event>
<event>
 7    1  0.2394257E-009  0.1155729E+03  0.7561462E-02  0.1250584E+00
         -2   -1    0    0    0  501 -0.00000000000E+00  0.00000000000E+00  0.23557325067E+02  0.23557325067E+02  0.00000000000E+00 0.  1.
          2   -1    0    0  501    0  0.00000000000E+00 -0.00000000000E+00 -0.64312692791E+03  0.64312692791E+03  0.00000000000E+00 0. -1.
         25    2    1    2    0    0 -0.38020209050E+02 -0.25919677633E+02 -0.26644237133E+03  0.29792014294E+03  0.12509000100E+03 0.  0.
          5    1    3    3  502    0 -0.52303499370E+02  0.34437450602E+02 -0.18569963608E+03  0.19601893095E+03  0.41800000000E+01 0.  1.
         -5    1    3    3    0  502  0.14283290320E+02 -0.60357128235E+02 -0.80742735242E+02  0.10190121199E+03  0.41800000000E+01 0.  1.
        -11    1    1    2    0    0  0.64133710408E+02  0.40946577780E+02 -0.25665424165E+03  0.26769601192E+03  0.00000000000E+00 0.  1.
         11    1    1    2    0    0 -0.26113501358E+02 -0.15026900147E+02 -0.96472989875E+02  0.10106809812E+03  0.00000000000E+00 0. -1.
</event>
<event>
 7    1  0.2394257E-009  0.7681445E+02  0.7561462E-02  0.1338343E+00
          1   -1    0    0  501    0  0.00000000000E+00  0.00000000000E+00  0.10367627575E+03  0.10367627575E+03  0.00000000000E+00 0. -1.
         -1   -1    0    0    0  501 -0.00000000000E+00 -0.00000000000E+00 -0.18470005571E+03  0.18470005571E+03  0.00000000000E+00 0.  1.
         25    2    1    2    0    0  0.41094105376E+01 -0.64041688149E+02  0.14871949156E+02  0.14137732178E+03  0.12509255440E+03 0.  0.
          5    1    3    3  502    0 -0.11542727148E+02 -0.81134502668E+01 -0.51221563608E+02  0.53293372981E+02  0.41800000000E+01 0. -1.
         -5    1    3    3    0  502  0.15652137685E+02 -0.55928237882E+02  0.66093512764E+02  0.88083948800E+02  0.41800000000E+01 0. -1.
        -11    1    1    2    0    0 -0.24701695411E+02  0.19009982576E+02  0.77619281320E+01  0.32121655033E+02  0.00000000000E+00 0. -1.
         11    1    1    2    0    0  0.20592284874E+02  0.45031705573E+02 -0.10365765725E+03  0.11487735465E+03  0.00000000000E+00 0.  1.
</event>
<event>
 7    1  0.2394257E-009  0.1174313E+03  0.7561462E-02  0.1247396E+00
          2   -1    0    0  501    0  0.00000000000E+00  0.00000000000E+00  0.31412970253E+03  0.31412970253E+03  0.00000000000E+00 0. -1.
         -2   -1    0    0    0  501 -0.00000000000E+00 -0.00000000000E+00 -0.52269140424E+02  0.52269140424E+02  0.00000000000E+00 0.  1.
         25    2    1    2    0    0 -0.15196008739E+02  0.61349190954E+02  0.13645145251E+03  0.19560376913E+03  0.12508874327E+03 0.  0.
          5    1    3    3  502    0  0.26364679573E+02  0.74924010684E+02  0.38729667251E+02  0.88465604793E+02  0.41800000000E+01 0. -1.
         -5    1    3    3    0  502 -0.41560688312E+02 -0.13574819730E+02  0.97721785256E+02  0.10713816434E+03  0.41800000000E+01 0. -1.
        -11    1    1    2    0    0  0.18118653357E+02  0.21719383462E+02  0.55063600857E+02  0.61903290355E+02  0.00000000000E+00 0. -1.
         11    1    1    2    0    0 -0.29226446186E+01 -0.83068574415E+02  0.70345508742E+02  0.10889178347E+03  0.00000000000E+00 0.  1.
</event>
<event>
 7    1  0.2394257E-009  0.2769211E+03  0.7561462E-02  0.1097383E+00
          2   -1    0    0  501    0  0.00000000000E+00  0.00000000000E+00  0.18994112282E+04  0.18994112282E+04  0.00000000000E+00 0. -1.
         -2   -1    0    0    0  501 -0.00000000000E+00 -0.00000000000E+00 -0.54810161702E+02  0.54810161702E+02  0.00000000000E+00 0.  1.
         25    2    1    2    0    0 -0.63052128864E+02  0.26331303123E+03  0.50799142148E+03  0.58907742797E+03  0.12509040126E+03 0.  0.
          5    1    3    3  502    0 -0.22849728608E+02  0.21468995446E+03  0.46477295670E+03  0.51248927825E+03  0.41800000000E+01 0. -1.
         -5    1    3    3    0  502 -0.40202400256E+02  0.48623076766E+02  0.43218464780E+02  0.76588149726E+02  0.41800000000E+01 0. -1.
        -11    1    1    2    0    0 -0.46821772347E+01 -0.63824204608E+02  0.23429100704E+03  0.24287389291E+03  0.00000000000E+00 0. -1.
         11    1    1    2    0    0  0.67734306099E+02 -0.19948882662E+03  0.11023186379E+04  0.11222700690E+04  0.00000000000E+00 0.  1.
</event>
<event>
 7    1  0.2394257E-009  0.9631098E+02  0.7561462E-02  0.1288250E+00
         -1   -1    0    0    0  501 -0.00000000000E+00  0.00000000000E+00  0.58805737910E+03  0.58805737910E+03  0.00000000000E+00 0.  1.
          1   -1    0    0  501    0  0.00000000000E+00 -0.00000000000E+00 -0.39954540432E+02  0.39954540432E+02  0.00000000000E+00 0. -1.
         25    2    1    2    0    0  0.37182196187E+02  0.54778895918E+01  0.50243497588E+03  0.51913468061E+03  0.12508952249E+03 0.  0.
          5    1    3    3  502    0 -0.35291062868E+02 -0.32608606064E+02  0.16679997918E+03  0.17363319314E+03  0.41800000000E+01 0. -1.
         -5    1    3    3    0  502  0.72473259055E+02  0.38086495655E+02  0.33563499671E+03  0.34550148747E+03  0.41800000000E+01 0. -1.
        -11    1    1    2    0    0 -0.36318929285E+02  0.16871552926E+02  0.66944072625E+02  0.78007837954E+02  0.00000000000E+00 0.  1.
         11    1    1    2    0    0 -0.86326690214E+00 -0.22349442518E+02 -0.21276209843E+02  0.30869400964E+02  0.00000000000E+00 0. -1.
</event>
<event>
 7    1  0.2394257E-009  0.1576795E+03  0.7561462E-02  0.1191342E+00
          2   -1    0    0  501    0  0.00000000000E+00  0.00000000000E+00  0.19115341082E+03  0.19115341082E+03  0.00000000000E+00 0. -1.
         -2   -1    0    0    0  501 -0.00000000000E+00 -0.00000000000E+00 -0.16867280593E+03  0.16867280593E+03  0.00000000000E+00 0.  1.
         25    2    1    2    0    0 -0.84658097540E+02 -0.11091907901E+03  0.42001764636E+02  0.19204664894E+03  0.12509089323E+03 0.  0.
          5    1    3    3  502    0 -0.24642551024E+02 -0.10969118280E+03 -0.94174342547E+01  0.11289628592E+03  0.41800000000E+01 0.  1.
         -5    1    3    3    0  502 -0.60015546516E+02 -0.12278962091E+01  0.51419198891E+02  0.79150363027E+02  0.41800000000E+01 0.  1.
        -11    1    1    2    0    0  0.67974685912E+02  0.65913859701E+02  0.29499061969E+02  0.99173532167E+02  0.00000000000E+00 0. -1.
         11    1    1    2    0    0  0.16683411629E+02  0.45005219311E+02 -0.49020221712E+02  0.68606035634E+02  0.00000000000E+00 0.  1.
</event>
<event>
 7    1  0.2394257E-009  0.8567185E+02  0.7561462E-02  0.1313685E+00
          2   -1    0    0  501    0  0.00000000000E+00  0.00000000000E+00  0.28290350542E+03  0.28290350542E+03  0.00000000000E+00 0. -1.
         -2   -1    0    0    0  501 -0.00000000000E+00 -0.00000000000E+00 -0.46459583681E+02  0.46459583681E+02  0.00000000000E+00 0.  1.
         25    2    1    2    0    0  0.12277863263E+02  0.33067333670E+02  0.11734797185E+03  0.17510249989E+03  0.12508454937E+03 0.  0.
          5    1    3    3  502    0 -0.49389300959E+00 -0.21613099082E+02  0.11673303134E+03  0.11879159477E+03  0.41800000000E+01 0.  1.
         -5    1    3    3    0  502  0.12771756272E+02  0.54680432752E+02  0.61494050889E+00  0.56310905125E+02  0.41800000000E+01 0.  1.
        -11    1    1    2    0    0 -0.10878234778E+02 -0.62556174923E+02  0.56255496239E+02  0.84830960562E+02  0.00000000000E+00 0.  1.
         11    1    1    2    0    0 -0.13996284848E+01  0.29488841253E+02  0.62840453650E+02  0.69429628642E+02  0.00000000000E+00 0. -1.
</event>
<event>
 7    1  0.2394257E-009  0.8754203E+02  0.7561462E-02  0.1308916E+00
         -2   -1    0    0    0  501 -0.00000000000E+00  0.00000000000E+00  0.15057017360E+03  0.15057017360E+03  0.00000000000E+00 0.  1.
          2   -1    0    0  501    0  0.00000000000E+00 -0.00000000000E+00 -0.99215579213E+02  0.99215579213E+02  0.00000000000E+00 0. -1.
         25    2    1    2    0    0  0.16925319224E+02  0.28870944367E+02 -0.17165435532E+02  0.13063924337E+03  0.12510780100E+03 0.  0.
          5    1    3    3  502    0 -0.23805320599E+02 -0.15995185921E+02 -0.52789625068E+02  0.60222555379E+02  0.41800000000E+01 0. -1.
         -5    1    3    3    0  502  0.40730639823E+02  0.44866130287E+02  0.35624189536E+02  0.70416687990E+02  0.41800000000E+01 0. -1.
        -11    1    1    2    0    0 -0.32095736351E+02 -0.49960310843E+02  0.17521993251E+02  0.61912754735E+02  0.00000000000E+00 0. -1.
         11    1    1    2    0    0  0.15170417128E+02  0.21089366476E+02  0.50998036673E+02  0.57233754714E+02  0.00000000000E+00 0.  1.
</event>
<event>
 7    1  0.2394257E-009  0.1040426E+03  0.7561462E-02  0.1272018E+00
          2   -1    0    0  501    0  0.00000000000E+00  0.00000000000E+00  0.52416120467E+03  0.52416120467E+03  0.00000000000E+00 0. -1.
         -2   -1    0    0    0  501 -0.00000000000E+00 -0.00000000000E+00 -0.28014396979E+02  0.28014396979E+02  0.00000000000E+00 0.  1.
         25    2    1    2    0    0  0.14236460010E+02 -0.60982235104E+01  0.16127301918E+03  0.20468305247E+03  0.12508517149E+03 0.  0.
          5    1    3    3  502    0  0.62882227844E+02  0.11662099772E+02  0.48030756998E+02  0.80091230279E+02  0.41800000000E+01 0. -1.
         -5    1    3    3    0  502 -0.48645767834E+02 -0.17760323283E+02  0.11324226218E+03  0.12459182219E+03  0.41800000000E+01 0. -1.
        -11    1    1    2    0    0  0.27773151551E+01  0.47342325665E+02  0.19455939317E+03  0.20025575335E+03  0.00000000000E+00 0. -1.
         11    1    1    2    0    0 -0.17013775165E+02 -0.41244102154E+02  0.14031439534E+03  0.14723679583E+03  0.00000000000E+00 0.  1.
</event>
<event>
 7    1  0.2394257E-009  0.8092486E+02  0.7561462E-02  0.1326447E+00
         -1   -1    0    0    0  501 -0.00000000000E+00  0.00000000000E+00  0.73232146341E+02  0.73232146341E+02  0.00000000000E+00 0.  1.
          1   -1    0    0  501    0  0.00000000000E+00 -0.00000000000E+00 -0.16891422940E+03  0.16891422940E+03  0.00000000000E+00 0. -1.
         25    2    1    2    0    0  0.20425658236E+02 -0.14940554148E+01 -0.36794728112E+02  0.13199248076E+03  0.12509485698E+03 0.  0.
          5    1    3    3  502    0  0.54282583984E+02 -0.26665147956E+02  0.17508111867E+02  0.63100201431E+02  0.41800000000E+01 0. -1.
         -5    1    3    3    0  502 -0.33856925748E+02  0.25171092541E+02 -0.54302839979E+02  0.68892279325E+02  0.41800000000E+01 0. -1.
        -11    1    1    2    0    0 -0.28924957896E+02 -0.20367483807E+02  0.10506149439E+02  0.36903478995E+02  0.00000000000E+00 0.  1.
         11    1    1    2    0    0  0.84992996601E+01  0.21861539222E+02 -0.69393504384E+02  0.73250415989E+02  0.00000000000E+00 0. -1.
</event>
<event>
 7    1  0.2394257E-009  0.1028130E+03  0.7561462E-02  0.1274489E+00
         -1   -1    0    0    0  501 -0.00000000000E+00  0.00000000000E+00  0.52761850757E+02  0.52761850757E+02  0.00000000000E+00 0.  1.
          1   -1    0    0  501    0  0.00000000000E+00 -0.00000000000E+00 -0.33145121547E+03  0.33145121547E+03  0.00000000000E+00 0. -1.
         25    2    1    2    0    0  0.79650427843E+01  0.44017103612E+02 -0.63745451963E+02  0.14735005432E+03  0.12509040149E+03 0.  0.
          5    1    3    3  502    0  0.50404096438E+02  0.13035615227E+01  0.10494195071E+02  0.51670811301E+02  0.41800000000E+01 0.  1.
         -5    1    3    3    0  502 -0.42439053653E+02  0.42713542090E+02 -0.74239647034E+02  0.95679243018E+02  0.41800000000E+01 0.  1.
        -11    1    1    2    0    0  0.34713707866E+02 -0.38174975429E+02 -0.79876397202E+02  0.95092634272E+02  0.00000000000E+00 0.  1.
         11    1    1    2    0    0 -0.42678750650E+02 -0.58421281833E+01 -0.13506751555E+03  0.14177037764E+03  0.00000000000E+00 0. -1.
</event>
<event>
 7    1  0.2394257E-009  0.1672130E+03  0.7561462E-02  0.1180786E+00
          2   -1    0    0  501    0  0.00000000000E+00  0.00000000000E+00  0.37338843473E+03  0.37338843473E+03  0.00000000000E+00 0. -1.
         -2   -1    0    0    0  501 -0.00000000000E+00 -0.00000000000E+00 -0.83379619839E+02  0.83379619839E+02  0.00000000000E+00 0.  1.
         25    2    1    2    0    0  0.36568484407E+02  0.13130482180E+03  0.17225430931E+03  0.25277857722E+03  0.12508897532E+03 0.  0.
          5    1    3    3  502    0  0.73444738127E+02  0.11991019911E+03  0.10659555927E+03  0.17650119281E+03  0.41800000000E+01 0. -1.
         -5    1    3    3    0  502 -0.36876253720E+02  0.11394622687E+02  0.65658750040E+02  0.76277384404E+02  0.41800000000E+01 0. -1.
        -11    1    1    2    0    0 -0.50680683366E+02 -0.13137770351E+03  0.76211847337E+02  0.16011520328E+03  0.00000000000E+00 0.  1.
         11    1    1    2    0    0  0.14112198959E+02  0.72881718665E-01  0.41542658248E+02  0.43874274074E+02  0.00000000000E+00 0. -1.
</event>
<event>
 7    1  0.2440225E-009  0.1207145E+03  0.7561462E-02  0.1241923E+00
          2   -1    0    0  501    0  0.00000000000E+00  0.00000000000E+00  0.32942689863E+03  0.32942689863E+03  0.00000000000E+00 0. -1.
         -2   -1    0    0    0  501 -0.00000000000E+00 -0.00000000000E+00 -0.71959130620E+02  0.71959130620E+02  0.00000000000E+00 0.  1.
         25    2    1    2    0    0  0.10686680224E+03 -0.15962260206E+02  0.11921647028E+03  0.20380563069E+03  0.12509540817E+03 0.  0.
          5    1    3    3  502    0  0.54316293968E+01  0.16430945493E+02  0.92155443476E+02  0.93859345459E+02  0.41800000000E+01 0. -1.
         -5    1    3    3    0  502  0.10143517284E+03 -0.32393205699E+02  0.27061026800E+02  0.10994628523E+03  0.41800000000E+01 0. -1.
        -11    1    1    2    0    0 -0.43157270242E+02 -0.15692503064E+02  0.45700671169E+01  0.46148565965E+02  0.00000000000E+00 0.  1.
         11    1    1    2    0    0 -0.63709531994E+02  0.31654763270E+02  0.13368123062E+03  0.15143183260E+03  0.00000000000E+00 0. -1.
</event>
<event>
 7    1  0.2394257E-009  0.1027529E+03  0.7561462E-02  0.1274611E+00
          3   -1    0    0  501    0  0.00000000000E+00  0.00000000000E+00  0.35137779496E+02  0.35137779496E+02  0.00000000000E+00 0. -1.
         -3   -1    0    0    0  501 -0.00000000000E+00 -0.00000000000E+00 -0.51372808326E+03  0.51372808326E+03  0.00000000000E+00 0.  1.
         25    2    1    2    0    0  0.48721329716E+02  0.49997778679E+02 -0.18505367859E+03  0.23401985226E+03  0.12508749519E+03 0.  0.
          5    1    3    3  502    0  0.69980643311E+02  0.35726956717E+02 -0.43100378579E+02  0.89715221162E+02  0.41800000000E+01 0. -1.
         -5    1    3    3    0  502 -0.21259313594E+02  0.14270821962E+02 -0.14195330001E+03  0.14430463110E+03  0.41800000000E+01 0. -1.
        -11    1    1    2    0    0  0.14058965893E+02 -0.32950255268E+02 -0.42831772383E+02  0.55838468547E+02  0.00000000000E+00 0. -1.
         11    1    1    2    0    0 -0.62780295609E+02 -0.17047523411E+02 -0.25070485280E+03  0.25900754195E+03  0.00000000000E+00 0.  1.
</event>
<event>
 7    1  0.2394257E-009  0.9369576E+02  0.7561462E-02  0.1294141E+00
         -1   -1    0    0    0  501 -0.00000000000E+00  0.00000000000E+00  0.19331591353E+03  0.19331591353E+03  0.00000000000E+00 0.  1.
          1   -1    0    0  501    0  0.00000000000E+00 -0.00000000000E+00 -0.70488899278E+02  0.70488899278E+02  0.00000000000E+00 0. -1.
         25    2    1    2    0    0 -0.16089290119E+02 -0.38992957640E+02  0.83242455513E+02  0.15606339747E+03  0.12508861510E+03 0.  0.
          5    1    3    3  502    0  0.43494614355E+01  0.36225805434E+02 -0.63139455487E+01  0.37263455322E+02  0.41800000000E+01 0.  1.
         -5    1    3    3    0  502 -0.20438751555E+02 -0.75218763074E+02  0.89556401062E+02  0.11879994215E+03  0.41800000000E+01 0.  1.
        -11    1    1    2    0    0 -0.15718619141E+02  0.37619307433E+02  0.58049443812E+02  0.70936769072E+02  0.00000000000E+00 0.  1.
         11    1    1    2    0    0  0.31807909260E+02  0.13736502073E+01 -0.18464885069E+02  0.36804646269E+02  0.00000000000E+00 0. -1.
</event>
<event>
 7    1  0.2394257E-009  0.1566047E+03  0.7561462E-02  0.1192584E+00
          2   -1    0    0  501    0  0.00000000000E+00  0.00000000000E+00  0.26131632052E+03  0.26131632052E+03  0.00000000000E+00 0. -1.
         -2   -1    0    0    0  501 -0.00000000000E+00 -0.00000000000E+00 -0.10393435875E+03  0.10393435875E+03  0.00000000000E+00 0.  1.
         25    2    1    2    0    0 -0.63705625326E+02 -0.94380307841E+02  0.13702182700E+03  0.21769156032E+03  0.12509430504E+03 0.  0.
          5    1    3    3  502    0 -0.93347365829E+02 -0.33210356253E+02  0.96899524925E+02  0.13864937360E+03  0.41800000000E+01 0. -1.
         -5    1    3    3    0  502  0.29641740504E+02 -0.61169951588E+02  0.40122302076E+02  0.79042186718E+02  0.41800000000E+01 0. -1.
        -11    1    1    2    0    0  0.86683334401E+02  0.63520209840E+02  0.18442433276E+02  0.10903641991E+03  0.00000000000E+00 0.  1.
         11    1    1    2    0    0 -0.22977709076E+02  0.30860098001E+02  0.19177014896E+01  0.38522699049E+02  0.00000000000E+00 0. -1.
</event>
<event>
 7    1  0.2394257E-009  0.1235722E+03  0.7561462E-02  0.1237318E+00
         -1   -1    0    0    0  501 -0.00000000000E+00  0.00000000000E+00  0.32725015444E+02  0.32725015444E+02  0.00000000000E+00 0.  1.
          1   -1    0    0  501    0  0.00000000000E+00 -0.00000000000E+00 -0.56599878229E+03  0.56599878229E+03  0.00000000000E+00 0. -1.
         25    2    1    2    0    0  0.16211314425E+02  0.77566701858E+02 -0.30455370083E+03  0.33864411717E+03  0.12508989349E+03 0.  0.
          5    1    3    3  502    0  0.34771412078E+02 -0.13783361368E+02 -0.28392402653E+02  0.47144809649E+02  0.41800000000E+01 0. -1.
         -5    1    3    3    0  502 -0.18560097653E+02  0.91350063226E+02 -0.27616129818E+03  0.29149930752E+03  0.41800000000E+01 0. -1.
        -11    1    1    2    0    0 -0.47344898870E+02 -0.21350973136E+02 -0.59008337849E+02  0.78609079873E+02  0.00000000000E+00 0.  1.
         11    1    1    2    0    0  0.31133584445E+02 -0.56215728722E+02 -0.16971172816E+03  0.18147060068E+03  0.00000000000E+00 0. -1.
</event>
<event>
 7    1  0.2394257E-009  0.1258761E+03  0.7561462E-02  0.1233706E+00
          1   -1    0    0  501    0  0.00000000000E+00  0.00000000000E+00  0.77768818233E+03  0.77768818233E+03  0.00000000000E+00 0. -1.
         -1   -1    0    0    0  501 -0.00000000000E+00 -0.00000000000E+00 -0.26946102928E+02  0.26946102928E+02  0.00000000000E+00 0.  1.
         25    2    1    2    0    0 -0.95060047641E+02 -0.57015045212E+01  0.44868860240E+03  0.47543382100E+03  0.12508771487E+03 0.  0.
          5    1    3    3  502    0  0.22769676069E+02 -0.23583173086E+01  0.19586857954E+02  0.30416068341E+02  0.41800000000E+01 0. -1.
         -5    1    3    3    0  502 -0.11782972371E+03 -0.33431872126E+01  0.42910174445E+03  0.44501775266E+03  0.41800000000E+01 0. -1.
        -11    1    1    2    0    0  0.75107255266E+02  0.28411026317E+02  0.28128815579E+03  0.29252574724E+03  0.00000000000E+00 0. -1.
         11    1    1    2    0    0  0.19952792375E+02 -0.22709521795E+02  0.20765321211E+02  0.36674717023E+02  0.00000000000E+00 0.  1.
</event>
<event>
 7    1  0.2394257E-009  0.1007074E+03  0.7561462E-02  0.1278815E+00
          1   -1    0    0  501    0  0.00000000000E+00  0.00000000000E+00  0.47663130687E+03  0.47663130687E+03  0.00000000000E+00 0. -1.
         -1   -1    0    0    0  501 -0.00000000000E+00 -0.00000000000E+00 -0.34530581303E+02  0.34530581303E+02  0.00000000000E+00 0.  1.
         25    2    1    2    0    0  0.28644674375E+02  0.62598056863E+02  0.21237474215E+03  0.25590960297E+03  0.12509060595E+03 0.  0.
          5    1    3    3  502    0 -0.29809479727E+02  0.17406191028E+02  0.42634224721E+01  0.35031838931E+02  0.41800000000E+01 0. -1.
         -5    1    3    3    0  502  0.58454154102E+02  0.45191865835E+02  0.20811131968E+03  0.22087776404E+03  0.41800000000E+01 0. -1.
        -11    1    1    2    0    0 -0.39486911554E+02 -0.12554982153E+02  0.17688102859E+03  0.18166932057E+03  0.00000000000E+00 0. -1.
         11    1    1    2    0    0  0.10842237179E+02 -0.50043074710E+02  0.52844954828E+02  0.73582964634E+02  0.00000000000E+00 0.  1.
</event>
<event>
 7    1  0.2736763E-009  0.1263693E+03  0.7561462E-02  0.1232945E+00
          2   -1    0    0  501    0  0.00000000000E+00  0.00000000000E+00  0.20089140866E+03  0.20089140866E+03  0.00000000000E+00 0. -1.
         -2   -1    0    0    0  501 -0.00000000000E+00 -0.00000000000E+00 -0.10879712408E+03  0.10879712408E+03  0.00000000000E+00 0.  1.
         25    2    1    2    0    0 -0.32660659920E+02  0.84898003088E+02  0.92908016561E+02  0.18043321918E+03  0.12509939012E+03 0.  0.
          5    1    3    3  502    0  0.24825771981E+02  0.73295136945E+02  0.93747328005E+02  0.12163276681E+03  0.41800000000E+01 0. -1.
         -5    1    3    3    0  502 -0.57486431902E+02  0.11602866143E+02 -0.83931144391E+00  0.58800452373E+02  0.41800000000E+01 0. -1.
        -11    1    1    2    0    0 -0.23015892276E+02 -0.16857459662E+02  0.24673449256E+02  0.37718488062E+02  0.00000000000E+00 0. -1.
         11    1    1    2    0    0  0.55676552197E+02 -0.68040543426E+02 -0.25487181232E+02  0.91536825494E+02  0.00000000000E+00 0.  1.
</event>
<event>
 7    1  0.2394257E-009  0.8326428E+02  0.7561462E-02  0.1320035E+00
          1   -1    0    0  501    0  0.00000000000E+00  0.00000000000E+00  0.86282428478E+03  0.86282428478E+03  0.00000000000E+00 0. -1.
         -1   -1    0    0    0  501 -0.00000000000E+00 -0.00000000000E+00 -0.18628257510E+02  0.18628257510E+02  0.00000000000E+00 0.  1.
         25    2    1    2    0    0 -0.40799653958E+02  0.45488257339E+02  0.57042409516E+03  0.58716680142E+03  0.12508961199E+03 0.  0.
          5    1    3    3  502    0 -0.36455310274E+02  0.72769925357E+01  0.52962287475E+03  0.53094237553E+03  0.41800000000E+01 0. -1.
         -5    1    3    3    0  502 -0.43443436840E+01  0.38211264804E+02  0.40801220406E+02  0.56224425889E+02  0.41800000000E+01 0. -1.
        -11    1    1    2    0    0  0.27826602408E+02  0.12865927639E+02  0.28582776512E+02  0.41914520261E+02  0.00000000000E+00 0.  1.
         11    1    1    2    0    0  0.12973051550E+02 -0.58354184979E+02  0.24518915559E+03  0.25237122061E+03  0.00000000000E+00 0. -1.
</event>
<event>
 7    1  0.2394257E-009  0.7618831E+02  0.7561462E-02  0.1340230E+00
          1   -1    0    0  501    0  0.00000000000E+00  0.00000000000E+00  0.20756485263E+02  0.20756485263E+02  0.00000000000E+00 0. -1.
         -1   -1    0    0    0  501 -0.00000000000E+00 -0.00000000000E+00 -0.68057968582E+03  0.68057968582E+03  0.00000000000E+00 0.  1.
         25    2    1    2    0    0  0.37155238457E+02 -0.31256786891E+02 -0.37711116214E+03  0.40027246981E+03  0.12509085899E+03 0.  0.
          5    1    3    3  502    0  0.12560399862E+02 -0.19679528763E+02 -0.37143305772E+03  0.37218951659E+03  0.41800000000E+01 0. -1.
         -5    1    3    3    0  502  0.24594838595E+02 -0.11577258128E+02 -0.56781044234E+01  0.28082953212E+02  0.41800000000E+01 0. -1.
        -11    1    1    2    0    0 -0.23498431375E+02  0.62654969664E+02 -0.21522502783E+03  0.22538774169E+03  0.00000000000E+00 0.  1.
         11    1    1    2    0    0 -0.13656807082E+02 -0.31398182773E+02 -0.67487010586E+02  0.75675959584E+02  0.00000000000E+00 0. -1.
</event>
<event>
 7    1  0.2394257E-009  0.1013703E+03  0.7561462E-02  0.1277440E+00
          1   -1    0    0  501    0  0.00000000000E+00  0.00000000000E+00  0.61830580447E+03  0.61830580447E+03  0.00000000000E+00 0. -1.
         -1   -1    0    0    0  501 -0.00000000000E+00 -0.00000000000E+00 -0.26311125511E+02  0.26311125511E+02  0.00000000000E+00 0.  1.
         25    2    1    2    0    0 -0.96697503895E+01  0.66745644759E+02  0.36341652949E+03  0.39021495834E+03  0.12509058574E+03 0.  0.
          5    1    3    3  502    0 -0.35935217725E+02  0.37893486470E+02  0.34104494030E+03  0.34504547511E+03  0.41800000000E+01 0. -1.
         -5    1    3    3    0  502  0.26265467335E+02  0.28852158289E+02  0.22371589184E+02  0.45169483226E+02  0.41800000000E+01 0. -1.
        -11    1    1    2    0    0  0.49070528034E+02 -0.32043302294E+02  0.13331349519E+03  0.14562684486E+03  0.00000000000E+00 0. -1.
         11    1    1    2    0    0 -0.39400777644E+02 -0.34702342465E+02  0.95264654281E+02  0.10877512678E+03  0.00000000000E+00 0.  1.
</event>
<event>
 7    1  0.2394257E-009  0.9366252E+02  0.7561462E-02  0.1294217E+00
          2   -1    0    0  501    0  0.00000000000E+00  0.00000000000E+00  0.25802925444E+03  0.25802925444E+03  0.00000000000E+00 0. -1.
         -2   -1    0    0    0  501 -0.00000000000E+00 -0.00000000000E+00 -0.52680305741E+02  0.52680305741E+02  0.00000000000E+00 0.  1.
         25    2    1    2    0    0  0.27746378591E+01 -0.88421772411E+01  0.17305703899E+03  0.21373284073E+03  0.12508839173E+03 0.  0.
          5    1    3    3  502    0  0.11653943332E+02  0.56325291402E+02  0.99224460514E+02  0.11476636620E+03  0.41800000000E+01 0.  1.
         -5    1    3    3    0  502 -0.88793054733E+01 -0.65167468643E+02  0.73832578478E+02  0.98966474524E+02  0.41800000000E+01 0.  1.
        -11    1    1    2    0    0  0.18286231111E+02  0.29205097068E+02 -0.17923739311E+02  0.38840499146E+02  0.00000000000E+00 0.  1.
         11    1    1    2    0    0 -0.21060868970E+02 -0.20362919827E+02  0.50215649013E+02  0.58136220306E+02  0.00000000000E+00 0. -1.
</event>
<event>
 7    1  0.2394257E-009  0.9217687E+02  0.7561462E-02  0.1297664E+00
         -2   -1    0    0    0  501 -0.00000000000E+00  0.00000000000E+00  0.49424554782E+02  0.49424554782E+02  0.00000000000E+00 0.  1.
          2   -1    0    0  501    0  0.00000000000E+00 -0.00000000000E+00 -0.23653278541E+03  0.23653278541E+03  0.00000000000E+00 0. -1.
         25    2    1    2    0    0  0.36022628839E+01  0.66585982715E+01 -0.11004032525E+03  0.16677523041E+03  0.12509113106E+03 0.  0.
          5    1    3    3  502    0 -0.56572298374E+02  0.23819490529E+02 -0.65437783725E+02  0.89818533784E+02  0.41800000000E+01 0. -1.
         -5    1    3    3    0  502  0.60174561258E+02 -0.17160892257E+02 -0.44602541525E+02  0.76956696630E+02  0.41800000000E+01 0. -1.
        -11    1    1    2    0    0 -0.20165739323E+02  0.20211466066E+02  0.69889733480E+01  0.29393981551E+02  0.00000000000E+00 0.  1.
         11    1    1    2    0    0  0.16563476439E+02 -0.26870064338E+02 -0.84056878729E+02  0.89788128230E+02  0.00000000000E+00 0. -1.
</event>
<event>
 7    1  0.2394257E-009  0.8906404E+02  0.7561462E-02  0.1305134E+00
          3   -1    0    0  501    0  0.00000000000E+00  0.00000000000E+00  0.18015591433E+03  0.18015591433E+03  0.00000000000E+00 0. -1.
         -3   -1    0    0    0  501 -0.00000000000E+00 -0.00000000000E+00 -0.79985535205E+02  0.79985535205E+02  0.00000000000E+00 0.  1.
         25    2    1    2    0    0  0.40970741675E+02  0.16122591444E+02  0.57480615729E+02  0.14452458660E+03  0.12507915621E+03 0.  0.
          5    1    3    3  502    0 -0.40936178227E+02  0.27655980436E+02  0.25410935865E+02  0.55711865911E+02  0.41800000000E+01 0.  1.
         -5    1    3    3    0  502  0.81906919902E+02 -0.11533388992E+02  0.32069679865E+02  0.88812720688E+02  0.41800000000E+01 0.  1.
        -11    1    1    2    0    0 -0.85961757594E+01 -0.92591049452E+01 -0.31739532787E+02  0.34161721321E+02  0.00000000000E+00 0.  1.
         11    1    1    2    0    0 -0.32374565916E+02 -0.68634864992E+01  0.74429296188E+02  0.81455141619E+02  0.00000000000E+00 0. -1.
</event>
<event>
 7    1  0.2394257E-009  0.2471856E+03  0.7561462E-02  0.1115096E+00
         -2   -1    0    0    0  501 -0.00000000000E+00  0.00000000000E+00  0.67989614084E+02  0.67989614084E+02  0.00000000000E+00 0.  1.
          2   -1    0    0  501    0  0.00000000000E+00 -0.00000000000E+00 -0.10982980893E+04  0.10982980893E+04  0.00000000000E+00 0. -1.
         25    2    1    2    0    0 -0.22722742913E+03 -0.63030384956E+02 -0.69997838053E+03  0.74914793730E+03  0.12509102594E+03 0.  0.
          5    1    3    3  502    0  0.60972602557E+00 -0.24638724936E+02 -0.23582001887E+02  0.34365996934E+02  0.41800000000E+01 0. -1.
         -5    1    3    3    0  502 -0.22783715516E+03 -0.38391660020E+02 -0.67639637864E+03  0.71478194036E+03  0.41800000000E+01 0. -1.
        -11    1    1    2    0    0  0.70014096734E+02  0.32465425212E+01 -0.17369660542E+03  0.18730463026E+03  0.00000000000E+00 0. -1.
         11    1    1    2    0    0  0.15721333240E+03  0.59783842435E+02 -0.15663348923E+03  0.22983513580E+03  0.00000000000E+00 0.  1.
</event>
<event>
 7    1  0.2394257E-009  0.1029076E+03  0.7561462E-02  0.1274298E+00
         -2   -1    0    0    0  501 -0.00000000000E+00  0.00000000000E+00  0.41266058205E+02  0.41266058205E+02  0.00000000000E+00 0. -1.
          2   -1    0    0  501    0  0.00000000000E+00 -0.00000000000E+00 -0.28739425290E+03  0.28739425290E+03  0.00000000000E+00 0.  1.
         25    2    1    2    0    0 -0.91000750469E+01 -0.61636133759E+00 -0.15895273062E+03  0.20247618025E+03  0.12508973470E+03 0.  0.
          5    1    3    3  502    0 -0.61890373804E+02 -0.25216454571E+02 -0.88288107934E+02  0.11080862039E+03  0.41800000000E+01 0. -1.
         -5    1    3    3    0  502  0.52790298757E+02  0.24600093233E+02 -0.70664622688E+02  0.91667559854E+02  0.41800000000E+01 0. -1.
        -11    1    1    2    0    0  0.38309519773E+02  0.22079285812E+02 -0.76565753381E+02  0.88416224518E+02  0.00000000000E+00 0.  1.
         11    1    1    2    0    0 -0.29209444726E+02 -0.21462924475E+02 -0.10609710691E+02  0.37767906338E+02  0.00000000000E+00 0. -1.
</event>
<event>
 7    1  0.2394257E-009  0.1877355E+03  0.7561462E-02  0.1160520E+00
         -2   -1    0    0    0  501 -0.00000000000E+00  0.00000000000E+00  0.40353725586E+02  0.40353725586E+02  0.00000000000E+00 0.  1.
          2   -1    0    0  501    0  0.00000000000E+00 -0.00000000000E+00 -0.12357071393E+04  0.12357071393E+04  0.00000000000E+00 0. -1.
         25    2    1    2    0    0  0.79667192293E+02  0.16237485381E+03 -0.82483605645E+03  0.85364728369E+03  0.12508681093E+03 0.  0.
          5    1    3    3  502    0  0.54497615026E+01  0.23218523732E+02 -0.14772682546E+02  0.28363784909E+02  0.41800000000E+01 0.  1.
         -5    1    3    3    0  502  0.74217430791E+02  0.13915633008E+03 -0.81006337390E+03  0.82528349879E+03  0.41800000000E+01 0.  1.
        -11    1    1    2    0    0 -0.50226723493E+02 -0.15529031014E+03 -0.34896513066E+03  0.38524598192E+03  0.00000000000E+00 0. -1.
         11    1    1    2    0    0 -0.29440468800E+02 -0.70845436783E+01 -0.21552226580E+02  0.37167599234E+02  0.00000000000E+00 0.  1.
</event>
<event>
 7    1  0.2394257E-009  0.1035367E+03  0.7561462E-02  0.1273030E+00
         -2   -1    0    0    0  501 -0.00000000000E+00  0.00000000000E+00  0.29940379581E+02  0.29940379581E+02  0.00000000000E+00 0.  1.
          2   -1    0    0  501    0  0.00000000000E+00 -0.00000000000E+00 -0.52970586148E+03  0.52970586148E+03  0.00000000000E+00 0. -1.
         25    2    1    2    0    0 -0.44746636342E+02 -0.33068852638E+02 -0.35200155099E+03  0.37768835849E+03  0.12509034238E+03 0.  0.
          5    1    3    3  502    0 -0.44302749837E+02  0.19660510897E+02 -0.45351313482E+02  0.66509272785E+02  0.41800000000E+01 0. -1.
         -5    1    3    3    0  502 -0.44388650496E+00 -0.52729363535E+02 -0.30665023751E+03  0.31117908571E+03  0.41800000000E+01 0. -1.
        -11    1    1    2    0    0  0.69212388683E+02  0.66669775892E+01 -0.10663851843E+03  0.12730505469E+03  0.00000000000E+00 0. -1.
         11    1    1    2    0    0 -0.24465752341E+02  0.26401875049E+02 -0.41125412470E+02  0.54652827874E+02  0.00000000000E+00 0.  1.
</event>
<event>
 7    1  0.2394257E-009  0.1385773E+03  0.7561462E-02  0.1215256E+00
          2   -1    0    0  501    0  0.00000000000E+00  0.00000000000E+00  0.22654421420E+03  0.22654421420E+03  0.00000000000E+00 0. -1.
         -2   -1    0    0    0  501 -0.00000000000E+00 -0.00000000000E+00 -0.13148103024E+03  0.13148103024E+03  0.00000000000E+00 0.  1.
         25    2    1    2    0    0 -0.95070430706E+02  0.93307491626E+02  0.56350855736E+02  0.19122547474E+03  0.12508832263E+03 0.  0.
          5    1    3    3  502    0 -0.57885192626E+02  0.78875434320E+02  0.94345269201E+02  0.13597989515E+03  0.41800000000E+01 0.  1.
         -5    1    3    3    0  502 -0.37185238080E+02  0.14432057306E+02 -0.37994413465E+02  0.55245579585E+02  0.41800000000E+01 0.  1.
        -11    1    1    2    0    0  0.26761372671E+02 -0.54109985457E+02 -0.25158930643E+02  0.65399031985E+02  0.00000000000E+00 0.  1.
         11    1    1    2    0    0  0.68309058035E+02 -0.39197506168E+02  0.63871258872E+02  0.10140073772E+03  0.00000000000E+00 0. -1.
</event>
<event>
 7    1  0.2394257E-009  0.1826854E+03  0.7561462E-02  0.1165229E+00
          1   -1    0    0  501    0  0.00000000000E+00  0.00000000000E+00  0.94777572364E+03  0.94777572364E+03  0.00000000000E+00 0. -1.
         -1   -1    0    0    0  501 -0.00000000000E+00 -0.00000000000E+00 -0.41423735422E+02  0.41423735422E+02  0.00000000000E+00 0.  1.
         25    2    1    2    0    0 -0.76228607142E+01 -0.16110044776E+03  0.56431709149E+03  0.60009337241E+03  0.12508722393E+03 0.  0.
          5    1    3    3  502    0 -0.22656854783E+02  0.14873077779E+02  0.73241885032E+02  0.78207337471E+02  0.41800000000E+01 0. -1.
         -5    1    3    3    0  502  0.15033994068E+02 -0.17597352554E+03  0.49107520646E+03  0.52188603494E+03  0.41800000000E+01 0. -1.
        -11    1    1    2    0    0  0.51143564072E+01  0.97556029651E+02  0.29284105277E+03  0.30870571383E+03  0.00000000000E+00 0. -1.
         11    1    1    2    0    0  0.25085043069E+01  0.63544418108E+02  0.49193843955E+02  0.80400372820E+02  0.00000000000E+00 0.  1.
</event>
<event>
 7    1  0.2394257E-009  0.1434052E+03  0.7561462E-02  0.1208819E+00
         -1   -1    0    0    0  501 -0.00000000000E+00  0.00000000000E+00  0.64128455662E+02  0.64128455662E+02  0.00000000000E+00 0.  1.
          1   -1    0    0  501    0  0.00000000000E+00 -0.00000000000E+00 -0.36329083070E+03  0.36329083070E+03  0.00000000000E+00 0. -1.
         25    2    1    2    0    0  0.87743896432E+02 -0.57467863747E+02 -0.13753321743E+03  0.21345977378E+03  0.12509253535E+03 0.  0.
          5    1    3    3  502    0 -0.13072730361E+02 -0.42436909274E+02 -0.31112756620E+01  0.44709506640E+02  0.41800000000E+01 0. -1.
         -5    1    3    3    0  502  0.10081662679E+03 -0.15030954473E+02 -0.13442194177E+03  0.16875026714E+03  0.41800000000E+01 0. -1.
        -11    1    1    2    0    0 -0.47230170374E+01 -0.23652487933E+02 -0.27318697013E+02  0.36442533966E+02  0.00000000000E+00 0. -1.
         11    1    1    2    0    0 -0.83020879395E+02  0.81120351680E+02 -0.13431046059E+03  0.17751697861E+03  0.00000000000E+00 0.  1.
</event>
<event>
 7    1  0.2394257E-009  0.1065762E+03  0.7561462E-02  0.1267045E+00
          3   -1    0    0  501    0  0.00000000000E+00  0.00000000000E+00  0.54179420420E+02  0.54179420420E+02  0.00000000000E+00 0. -1.
         -3   -1    0    0    0  501 -0.00000000000E+00 -0.00000000000E+00 -0.24263162490E+03  0.24263162490E+03  0.00000000000E+00 0.  1.
         25    2    1    2    0    0 -0.16816351743E+02  0.39175385400E+01 -0.75345785314E+02  0.14704774576E+03  0.12509162791E+03 0.  0.
          5    1    3    3  502    0  0.41861765555E+01 -0.54306493687E+02 -0.75422346251E+01  0.55145961174E+02  0.41800000000E+01 0.  1.
         -5    1    3    3    0  502 -0.21002528299E+02  0.58224032227E+02 -0.67803550689E+02  0.91901784584E+02  0.41800000000E+01 0.  1.
        -11    1    1    2    0    0  0.19647034697E+02  0.44156449089E+02 -0.70428016688E+02  0.85416061155E+02  0.00000000000E+00 0.  1.
         11    1    1    2    0    0 -0.28306829537E+01 -0.48073987629E+02 -0.42678402474E+02  0.64347238404E+02  0.00000000000E+00 0. -1.
</event>
<event>
 7    1  0.2394257E-009  0.1266186E+03  0.7561462E-02  0.1232561E+00
         -2   -1    0    0    0  501 -0.00000000000E+00  0.00000000000E+00  0.16018834830E+03  0.16018834830E+03  0.00000000000E+00 0.  1.
          2   -1    0    0  501    0  0.00000000000E+00 -0.00000000000E+00 -0.15011359382E+03  0.15011359382E+03  0.00000000000E+00 0. -1.
         25    2    1    2    0    0 -0.10433939619E+03 -0.34899805372E+02  0.17278532604E+02  0.16748617034E+03  0.12509341931E+03 0.  0.
          5    1    3    3  502    0 -0.34650235651E+02 -0.56404291348E+02 -0.37483666119E+02  0.76187797834E+02  0.41800000000E+01 0. -1.
         -5    1    3    3    0  502 -0.69689160540E+02  0.21504485975E+02  0.54762198723E+02  0.91298372510E+02  0.41800000000E+01 0. -1.
        -11    1    1    2    0    0  0.31975828394E+02  0.25472786934E+02  0.38953510297E+02  0.56468508393E+02  0.00000000000E+00 0.  1.
         11    1    1    2    0    0  0.72363567797E+02  0.94270184387E+01 -0.46157288422E+02  0.86347263393E+02  0.00000000000E+00 0. -1.
</event>
<event>
 7    1  0.2394257E-009  0.1289778E+03  0.7561462E-02  0.1228980E+00
         -2   -1    0    0    0  501 -0.00000000000E+00  0.00000000000E+00  0.88954390503E+02  0.88954390503E+02  0.00000000000E+00 0.  1.
          2   -1    0    0  501    0  0.00000000000E+00 -0.00000000000E+00 -0.23368141437E+03  0.23368141437E+03  0.00000000000E+00 0. -1.
         25    2    1    2    0    0 -0.55165266303E+02 -0.67655489661E+02 -0.12521404872E+03  0.19734829320E+03  0.12508924392E+03 0.  0.
          5    1    3    3  502    0 -0.81044126610E+02 -0.30215040252E+01 -0.53127392242E+02  0.97042630586E+02  0.41800000000E+01 0. -1.
         -5    1    3    3    0  502  0.25878860307E+02 -0.64633985636E+02 -0.72086656477E+02  0.10030566261E+03  0.41800000000E+01 0. -1.
        -11    1    1    2    0    0 -0.13828279679E+02  0.13020965043E+02  0.21076579583E+02  0.28372329063E+02  0.00000000000E+00 0.  1.
         11    1    1    2    0    0  0.68993545982E+02  0.54634524618E+02 -0.40589554728E+02  0.96915182610E+02  0.00000000000E+00 0. -1.
</event>
<event>
 7    1  0.2394257E-009  0.1524647E+03  0.7561462E-02  0.1197477E+00
         -2   -1    0    0    0  501 -0.00000000000E+00  0.00000000000E+00  0.46278259276E+02  0.46278259276E+02  0.00000000000E+00 0. -1.
          2   -1    0    0  501    0  0.00000000000E+00 -0.00000000000E+00 -0.69403973087E+03  0.69403973087E+03  0.00000000000E+00 0.  1.
         25    2    1    2    0    0 -0.43657727539E+02 -0.10577170595E+03 -0.52198829195E+03  0.54882697965E+03  0.12508247560E+03 0.  0.
          5    1    3    3  502    0  0.26408935943E+02 -0.92980409313E+02 -0.33494794959E+03  0.34864077465E+03  0.41800000000E+01 0.  1.
         -5    1    3    3    0  502 -0.70066663482E+02 -0.12791296637E+02 -0.18704034236E+03  0.20018620500E+03  0.41800000000E+01 0.  1.
        -11    1    1    2    0    0  0.42221512259E+01  0.96148166337E+02 -0.11406829094E+03  0.14924433473E+03  0.00000000000E+00 0. -1.
         11    1    1    2    0    0  0.39435576313E+02  0.96235396135E+01 -0.11704888701E+02  0.42246675767E+02  0.00000000000E+00 0.  1.
</event>
<event>
 7    1  0.2394257E-009  0.1298390E+03  0.7561462E-02  0.1227695E+00
         -2   -1    0    0    0  501 -0.00000000000E+00  0.00000000000E+00  0.19126941956E+03  0.19126941956E+03  0.00000000000E+00 0.  1.
          2   -1    0    0  501    0  0.00000000000E+00 -0.00000000000E+00 -0.96688831433E+02  0.96688831433E+02  0.00000000000E+00 0. -1.
         25    2    1    2    0    0  0.25480168996E+02  0.77921560632E+02  0.39632591181E+02  0.15472176180E+03  0.12508825951E+03 0.  0.
          5    1    3    3  502    0 -0.46924768186E+02  0.39170292194E+02  0.38739904933E+02  0.72487918263E+02  0.41800000000E+01 0.  1.
         -5    1    3    3    0  502  0.72404937182E+02  0.38751268438E+02  0.89268624814E+00  0.82233843535E+02  0.41800000000E+01 0.  1.
        -11    1    1    2    0    0  0.41194383187E+00 -0.88289625326E+02  0.57287469513E+02  0.10524771637E+03  0.00000000000E+00 0.  1.
         11    1    1    2    0    0 -0.25892112828E+02  0.10368064694E+02 -0.23394725707E+01  0.27988772822E+02  0.00000000000E+00 0. -1.
</event>
<event>
 7    1  0.2394257E-009  0.1089608E+03  0.7561462E-02  0.1262507E+00
         -2   -1    0    0    0  501 -0.00000000000E+00  0.00000000000E+00  0.40435520593E+02  0.40435520593E+02  0.00000000000E+00 0.  1.
          2   -1    0    0  501    0  0.00000000000E+00 -0.00000000000E+00 -0.35368170468E+03  0.35368170468E+03  0.00000000000E+00 0. -1.
         25    2    1    2    0    0  0.48172140449E+02  0.29201130406E+01 -0.12768145569E+03  0.18514181482E+03  0.12508339334E+03 0.  0.
          5    1    3    3  502    0 -0.21937604923E+02 -0.37923767317E+02 -0.15565454778E+02  0.46682185250E+02  0.41800000000E+01 0. -1.
         -5    1    3    3    0  502  0.70109745372E+02  0.40843880357E+02 -0.11211600091E+03  0.13845962957E+03  0.41800000000E+01 0. -1.
        -11    1    1    2    0    0 -0.14922731670E+02 -0.40099227703E+02 -0.58541000722E+02  0.72509894142E+02  0.00000000000E+00 0.  1.
         11    1    1    2    0    0 -0.33249408779E+02  0.37179114663E+02 -0.12702372768E+03  0.13646551632E+03  0.00000000000E+00 0. -1.
</event>
<event>
 7    1  0.2394257E-009  0.1356517E+03  0.7561462E-02  0.1219303E+00
          2   -1    0    0  501    0  0.00000000000E+00  0.00000000000E+00  0.70890340398E+03  0.70890340398E+03  0.00000000000E+00 0. -1.
         -2   -1    0    0    0  501 -0.00000000000E+00 -0.00000000000E+00 -0.31480956150E+02  0.31480956150E+02  0.00000000000E+00 0.  1.
         25    2    1    2    0    0 -0.30064697539E+02  0.98663112278E+02  0.40747152820E+03  0.43854192106E+03  0.12509066500E+03 0.  0.
          5    1    3    3  502    0  0.27075873772E+01  0.10757420481E+03  0.19001432573E+03  0.21840892141E+03  0.41800000000E+01 0.  1.
         -5    1    3    3    0  502 -0.32772284916E+02 -0.89110925284E+01  0.21745720247E+03  0.22013299965E+03  0.41800000000E+01 0.  1.
        -11    1    1    2    0    0 -0.24904405767E+01  0.12921239596E+02  0.64141492965E+02  0.65477414784E+02  0.00000000000E+00 0. -1.
         11    1    1    2    0    0  0.32555138116E+02 -0.11158435187E+03  0.20580942666E+03  0.23636502428E+03  0.00000000000E+00 0.  1.
</event>
<event>
 7    1  0.2394257E-009  0.8145997E+02  0.7561462E-02  0.1324959E+00
         -1   -1    0    0    0  501 -0.00000000000E+00  0.00000000000E+00  0.29701178550E+02  0.29701178550E+02  0.00000000000E+00 0.  1.
          1   -1    0    0  501    0  0.00000000000E+00 -0.00000000000E+00 -0.56518704596E+03  0.56518704596E+03  0.00000000000E+00 0. -1.
         25    2    1    2    0    0  0.32958209108E+02 -0.20247722177E+02 -0.15720233060E+03  0.20458483955E+03  0.12508465145E+03 0.  0.
          5    1    3    3  502    0  0.46771078742E+02  0.74811775654E+00 -0.16841885065E+01  0.46993641887E+02  0.41800000000E+01 0.  1.
         -5    1    3    3    0  502 -0.13812869634E+02 -0.20995839933E+02 -0.15551814209E+03  0.15759119767E+03  0.41800000000E+01 0.  1.
        -11    1    1    2    0    0  0.14185866412E+02  0.37643723158E+02 -0.10508473513E+03  0.11252151020E+03  0.00000000000E+00 0.  1.
         11    1    1    2    0    0 -0.47144075520E+02 -0.17396000981E+02 -0.27319880168E+03  0.27778187476E+03  0.00000000000E+00 0. -1.
</event>
<event>
 7    1  0.2394257E-009  0.2043007E+03  0.7561462E-02  0.1146160E+00
          1   -1    0    0  501    0  0.00000000000E+00  0.00000000000E+00  0.96734167591E+03  0.96734167591E+03  0.00000000000E+00 0. -1.
         -1   -1    0    0    0  501 -0.00000000000E+00 -0.00000000000E+00 -0.76958132381E+02  0.76958132381E+02  0.00000000000E+00 0.  1.
         25    2    1    2    0    0 -0.19170083493E+03 -0.55051591516E+01  0.14816008375E+03  0.27272390174E+03  0.12508956500E+03 0.  0.
          5    1    3    3  502    0 -0.53339527292E+02  0.20199701558E+02  0.11446607270E+03  0.12795736522E+03  0.41800000000E+01 0. -1.
         -5    1    3    3    0  502 -0.13836130764E+03 -0.25704860710E+02  0.33694011058E+02  0.14476653653E+03  0.41800000000E+01 0. -1.
        -11    1    1    2    0    0  0.11997558434E+03 -0.39065801386E+02  0.42925746741E+03  0.44741731192E+03  0.00000000000E+00 0. -1.
         11    1    1    2    0    0  0.71725250599E+02  0.44570960537E+02  0.31296599236E+03  0.32415859463E+03  0.00000000000E+00 0.  1.
</event>
<event>
 7    1  0.2394257E-009  0.2957356E+03  0.7561462E-02  0.1087392E+00
         -1   -1    0    0    0  501 -0.00000000000E+00  0.00000000000E+00  0.86795405514E+03  0.86795405514E+03  0.00000000000E+00 0. -1.
          1   -1    0    0  501    0  0.00000000000E+00 -0.00000000000E+00 -0.11432369640E+03  0.11432369640E+03  0.00000000000E+00 0.  1.
         25    2    1    2    0    0  0.24508739859E+03 -0.11263537767E+03  0.50610210942E+03  0.58697674254E+03  0.12509112629E+03 0.  0.
          5    1    3    3  502    0  0.11768852402E+03  0.96843752708E+01  0.24092483806E+03  0.26834050347E+03  0.41800000000E+01 0.  1.
         -5    1    3    3    0  502  0.12739887456E+03 -0.12231975294E+03  0.26517727136E+03  0.31863623906E+03  0.41800000000E+01 0.  1.
        -11    1    1    2    0    0 -0.71263784996E+02  0.99418982549E+02  0.15652344512E+03  0.19865107605E+03  0.00000000000E+00 0. -1.
         11    1    1    2    0    0 -0.17382361359E+03  0.13216395124E+02  0.91004804205E+02  0.19664993295E+03  0.00000000000E+00 0.  1.
</event>
<event>
 7    1  0.2394257E-009  0.2800361E+03  0.7561462E-02  0.1095669E+00
          2   -1    0    0  501    0  0.00000000000E+00  0.00000000000E+00  0.33828670508E+03  0.33828670508E+03  0.00000000000E+00 0. -1.
         -2   -1    0    0    0  501 -0.00000000000E+00 -0.00000000000E+00 -0.24515684036E+03  0.24515684036E+03  0.00000000000E+00 0.  1.
         25    2    1    2    0    0  0.24668514201E+03  0.95999661728E+02  0.76086923937E+02  0.30250227351E+03  0.12509560800E+03 0.  0.
          5    1    3    3  502    0  0.18793872575E+03  0.12005380169E+03  0.84107718409E+02  0.23838091499E+03  0.41800000000E+01 0.  1.
         -5    1    3    3    0  502  0.58746416265E+02 -0.24054139967E+02 -0.80207944716E+01  0.64121358513E+02  0.41800000000E+01 0.  1.
        -11    1    1    2    0    0 -0.13888429204E+03 -0.17353479938E+02 -0.22509742539E+02  0.14176275375E+03  0.00000000000E+00 0.  1.
         11    1    1    2    0    0 -0.10780084997E+03 -0.78646181790E+02  0.39552683321E+02  0.13917851818E+03  0.00000000000E+00 0. -1.
</event>
<event>
 7    1  0.2394257E-009  0.1829875E+03  0.7561462E-02  0.1164943E+00
          2   -1    0    0  501    0  0.00000000000E+00  0.00000000000E+00  0.19064534867E+04  0.19064534867E+04  0.00000000000E+00 0. -1.
         -2   -1    0    0    0  501 -0.00000000000E+00 -0.00000000000E+00 -0.21201191526E+02  0.21201191526E+02  0.00000000000E+00 0.  1.
         25    2    1    2    0    0 -0.14218089660E+03  0.51955355460E+02  0.13442855634E+04  0.13585530263E+04  0.12509149879E+03 0.  0.
          5    1    3    3  502    0 -0.67567574704E+02  0.89717293031E+02  0.73608006962E+03  0.74461124831E+03  0.41800000000E+01 0.  1.
         -5    1    3    3    0  502 -0.74613321898E+02 -0.37761937572E+02  0.60820549374E+03  0.61394177798E+03  0.41800000000E+01 0.  1.
        -11    1    1    2    0    0  0.14749160827E+03 -0.34314694194E+02  0.51787889756E+03  0.53956447741E+03  0.00000000000E+00 0.  1.
         11    1    1    2    0    0 -0.53107116670E+01 -0.17640661266E+02  0.23087834264E+02  0.29537174532E+02  0.00000000000E+00 0. -1.
</event>
<event>
 7    1  0.2394257E-009  0.1269423E+03  0.7561462E-02  0.1232065E+00
         -2   -1    0    0    0  501 -0.00000000000E+00  0.00000000000E+00  0.17996278768E+03  0.17996278768E+03  0.00000000000E+00 0.  1.
          2   -1    0    0  501    0  0.00000000000E+00 -0.00000000000E+00 -0.29817583124E+03  0.29817583124E+03  0.00000000000E+00 0. -1.
         25    2    1    2    0    0 -0.55066289702E+02 -0.81391321916E+02  0.10081147078E+03  0.18832570548E+03  0.12508707031E+03 0.  0.
          5    1    3    3  502    0 -0.69560744192E+01 -0.18093534591E+02  0.10666722914E+03  0.10849485304E+03  0.41800000000E+01 0.  1.
         -5    1    3    3    0  502 -0.48110215283E+02 -0.63297787324E+02 -0.58557583570E+01  0.79830852436E+02  0.41800000000E+01 0.  1.
        -11    1    1    2    0    0  0.24248297930E+02 -0.30165587079E+02 -0.15031642062E+03  0.15521909968E+03  0.00000000000E+00 0. -1.
         11    1    1    2    0    0  0.30817991772E+02  0.11155690899E+03 -0.68708093719E+02  0.13459381376E+03  0.00000000000E+00 0.  1.
</event>
<event>
 7    1  0.2394257E-009  0.1095066E+03  0.7561462E-02  0.1261486E+00
         -2   -1    0    0    0  501 -0.00000000000E+00  0.00000000000E+00  0.30539164780E+02  0.30539164780E+02  0.00000000000E+00 0.  1.
          2   -1    0    0  501    0  0.00000000000E+00 -0.00000000000E+00 -0.74204038027E+03  0.74204038027E+03  0.00000000000E+00 0. -1.
         25    2    1    2    0    0 -0.40305595929E+02  0.31222348665E+02 -0.62857313467E+03  0.64292394630E+03  0.12509052312E+03 0.  0.
          5    1    3    3  502    0 -0.15863762035E+02 -0.42781273522E+02 -0.12098562714E+03  0.12937113544E+03  0.41800000000E+01 0.  1.
         -5    1    3    3    0  502 -0.24441833894E+02  0.74003622186E+02 -0.50758750753E+03  0.51355281086E+03  0.41800000000E+01 0.  1.
        -11    1    1    2    0    0  0.10783874556E+02 -0.55738889521E+02 -0.29801049919E+02  0.64118782987E+02  0.00000000000E+00 0.  1.
         11    1    1    2    0    0  0.29521721373E+02  0.24516540857E+02 -0.53127030904E+02  0.65536815768E+02  0.00000000000E+00 0. -1.
</event>
<event>
 7    1  0.2394257E-009  0.1000396E+03  0.7561462E-02  0.1280213E+00
          2   -1    0    0  501    0  0.00000000000E+00  0.00000000000E+00  0.39292176722E+03  0.39292176722E+03  0.00000000000E+00 0. -1.
         -2   -1    0    0    0  501 -0.00000000000E+00 -0.00000000000E+00 -0.38864157585E+02  0.38864157585E+02  0.00000000000E+00 0.  1.
         25    2    1    2    0    0 -0.52781328323E+02 -0.46196916385E+02  0.19776205476E+03  0.24428886591E+03  0.12508875249E+03 0.  0.
          5    1    3    3  502    0 -0.43862861103E+02  0.17147455947E+02  0.16627763174E+03  0.17286905173E+03  0.41800000000E+01 0.  1.
         -5    1    3    3    0  502 -0.89184672203E+01 -0.63344372332E+02  0.31484423014E+02  0.71419814171E+02  0.41800000000E+01 0.  1.
        -11    1    1    2    0    0  0.38493098300E+01  0.39052976619E+02  0.23376505862E+02  0.45677272196E+02  0.00000000000E+00 0. -1.
         11    1    1    2    0    0  0.48932018493E+02  0.71439397663E+01  0.13291904902E+03  0.14181978670E+03  0.00000000000E+00 0.  1.
</event>
<event>
 7    1  0.2394257E-009  0.1310816E+03  0.7561462E-02  0.1225860E+00
          3   -1    0    0  501    0  0.00000000000E+00  0.00000000000E+00  0.30089038465E+03  0.30089038465E+03  0.00000000000E+00 0. -1.
         -3   -1    0    0    0  501 -0.00000000000E+00 -0.00000000000E+00 -0.76828646954E+02  0.76828646954E+02  0.00000000000E+00 0.  1.
         25    2    1    2    0    0  0.77601525984E+02 -0.33489301945E+02  0.20750135649E+03  0.25661421451E+03  0.12510200624E+03 0.  0.
          5    1    3    3  502    0  0.81362319984E+02 -0.73105848353E+02  0.13496908694E+03  0.17377692311E+03  0.41800000000E+01 0. -1.
         -5    1    3    3    0  502 -0.37607940007E+01  0.39616546407E+02  0.72532269550E+02  0.82837291402E+02  0.41800000000E+01 0. -1.
        -11    1    1    2    0    0 -0.82191236579E+02  0.34111064491E+01  0.30372830591E+02  0.87690044223E+02  0.00000000000E+00 0. -1.
         11    1    1    2    0    0  0.45897105954E+01  0.30078195496E+02 -0.13812449387E+02  0.33414772866E+02  0.00000000000E+00 0.  1.
</event>
<event>
 7    1  0.2394257E-009  0.1182345E+03  0.7561462E-02  0.1246038E+00
          1   -1    0    0  501    0  0.00000000000E+00  0.00000000000E+00  0.42768124931E+03  0.42768124931E+03  0.00000000000E+00 0. -1.
         -1   -1    0    0    0  501 -0.00000000000E+00 -0.00000000000E+00 -0.48738645972E+02  0.48738645972E+02  0.00000000000E+00 0.  1.
         25    2    1    2    0    0  0.72537351513E+02 -0.43966643898E+02  0.27311581342E+03  0.31214490649E+03  0.12508981560E+03 0.  0.
          5    1    3    3  502    0  0.32301094716E+02  0.39825447247E+02  0.56630904709E+02  0.76511167397E+02  0.41800000000E+01 0. -1.
         -5    1    3    3    0  502  0.40236256797E+02 -0.83792091146E+02  0.21648490871E+03  0.23563373909E+03  0.41800000000E+01 0. -1.
        -11    1    1    2    0    0 -0.12842179977E+02  0.27027141628E+02  0.97107559086E+02  0.10161331607E+03  0.00000000000E+00 0. -1.
         11    1    1    2    0    0 -0.59695171536E+02  0.16939502270E+02  0.87192308328E+01  0.62661672721E+02  0.00000000000E+00 0.  1.
</event>
<event>
 7    1  0.2394257E-009  0.7877423E+02  0.7561462E-02  0.1332566E+00
         -2   -1    0    0    0  501 -0.00000000000E+00  0.00000000000E+00  0.83589964775E+02  0.83589964775E+02  0.00000000000E+00 0.  1.
          2   -1    0    0  501    0  0.00000000000E+00 -0.00000000000E+00 -0.44260849814E+03  0.44260849814E+03  0.00000000000E+00 0. -1.
         25    2    1    2    0    0 -0.28918054265E+01  0.57683945805E+02 -0.39028517134E+03  0.41389163935E+03  0.12509186230E+03 0.  0.
          5    1    3    3  502    0 -0.68173594527E+01  0.61150480802E+02 -0.69027800422E+02  0.92564395549E+02  0.41800000000E+01 0.  1.
         -5    1    3    3    0  502  0.39255540262E+01 -0.34665349968E+01 -0.32125737092E+03  0.32132724380E+03  0.41800000000E+01 0.  1.
        -11    1    1    2    0    0  0.24932940840E+02 -0.61902805627E+02 -0.78647784632E+01  0.67197199523E+02  0.00000000000E+00 0. -1.
         11    1    1    2    0    0 -0.22041135413E+02  0.42188598226E+01  0.39131416440E+02  0.45109624041E+02  0.00000000000E+00 0.  1.
</event>
<event>
 7    1  0.2394257E-009  0.3355960E+03  0.7561462E-02  0.1068687E+00
          2   -1    0    0  501    0  0.00000000000E+00  0.00000000000E+00  0.72298770666E+03  0.72298770666E+03  0.00000000000E+00 0. -1.
         -2   -1    0    0    0  501 -0.00000000000E+00 -0.00000000000E+00 -0.16334545186E+03  0.16334545186E+03  0.00000000000E+00 0.  1.
         25    2    1    2    0    0 -0.30555270846E+03 -0.10751507192E+03  0.32666243661E+03  0.47673645566E+03  0.12508937736E+03 0.  0.
          5    1    3    3  502    0 -0.30209170886E+03 -0.71086852958E+02  0.29390546479E+03  0.42744664680E+03  0.41800000000E+01 0. -1.
         -5    1    3    3    0  502 -0.34609995958E+01 -0.36428218959E+02  0.32756971817E+02  0.49289808858E+02  0.41800000000E+01 0. -1.
        -11    1    1    2    0    0  0.14178398899E+03  0.46229469936E+02  0.16388269618E+03  0.22157933462E+03  0.00000000000E+00 0.  1.
         11    1    1    2    0    0  0.16376871947E+03  0.61285601981E+02  0.69097122005E+02  0.18801736823E+03  0.00000000000E+00 0. -1.
</event>
<event>
 7    1  0.2394257E-009  0.1337987E+03  0.7561462E-02  0.1221926E+00
         -1   -1    0    0    0  501 -0.00000000000E+00  0.00000000000E+00  0.84958510612E+02  0.84958510612E+02  0.00000000000E+00 0.  1.
          1   -1    0    0  501    0  0.00000000000E+00 -0.00000000000E+00 -0.34866374509E+03  0.34866374509E+03  0.00000000000E+00 0. -1.
         25    2    1    2    0    0 -0.12263180219E+03  0.13025752261E+02 -0.20798125817E+03  0.27223426640E+03  0.12508822056E+03 0.  0.
          5    1    3    3  502    0 -0.11811076781E+03  0.20978989179E+02 -0.22352811997E+03  0.25371748911E+03  0.41800000000E+01 0.  1.
         -5    1    3    3    0  502 -0.45210343779E+01 -0.79532369177E+01  0.15546861805E+02  0.18516777293E+02  0.41800000000E+01 0.  1.
        -11    1    1    2    0    0  0.70326935218E+02 -0.37566118743E+02  0.19466006260E+01  0.79755127413E+02  0.00000000000E+00 0.  1.
         11    1    1    2    0    0  0.52304866972E+02  0.24540366481E+02 -0.57670576937E+02  0.81632861889E+02  0.00000000000E+00 0. -1.
</event>
<event>
 7    1  0.2394257E-009  0.1076137E+03  0.7561462E-02  0.1265054E+00
         -1   -1    0    0    0  501 -0.00000000000E+00  0.00000000000E+00  0.29450192620E+03  0.29450192620E+03  0.00000000000E+00 0.  1.
          1   -1    0    0  501    0  0.00000000000E+00 -0.00000000000E+00 -0.88770344011E+02  0.88770344011E+02  0.00000000000E+00 0. -1.
         25    2    1    2    0    0 -0.71080999539E+02 -0.45140330073E+02  0.59888315160E+01  0.15091106225E+03  0.12509246465E+03 0.  0.
          5    1    3    3  502    0 -0.77451237585E+02  0.73780851388E+01  0.40297583788E+02  0.87718287734E+02  0.41800000000E+01 0. -1.
         -5    1    3    3    0  502  0.63702380463E+01 -0.52518415212E+02 -0.34308752272E+02  0.63192774520E+02  0.41800000000E+01 0. -1.
        -11    1    1    2    0    0  0.45623786659E+02  0.30474892573E+02  0.19503724513E+03  0.20260744304E+03  0.00000000000E+00 0.  1.
         11    1    1    2    0    0  0.25457212880E+02  0.14665437500E+02  0.47055055477E+01  0.29753764924E+02  0.00000000000E+00 0. -1.
</event>
<event>
 7    1  0.2394257E-009  0.1249997E+03  0.7561462E-02  0.1235070E+00
         -1   -1    0    0    0  501 -0.00000000000E+00  0.00000000000E+00  0.22146442510E+02  0.22146442510E+02  0.00000000000E+00 0.  1.
          1   -1    0    0  501    0  0.00000000000E+00 -0.00000000000E+00 -0.90834574155E+03  0.90834574155E+03  0.00000000000E+00 0. -1.
         25    2    1    2    0    0 -0.84213711771E+02  0.12895052910E+02 -0.59113035987E+03  0.61019751753E+03  0.12509067270E+03 0.  0.
          5    1    3    3  502    0 -0.21777207161E+02  0.61889202881E+02 -0.18423201180E+03  0.19561039532E+03  0.41800000000E+01 0.  1.
         -5    1    3    3    0  502 -0.62436504610E+02 -0.48994149971E+02 -0.40689834807E+03  0.41458712221E+03  0.41800000000E+01 0.  1.
        -11    1    1    2    0    0  0.30063231247E+02 -0.35136642648E+02 -0.22150649024E+03  0.22628191874E+03  0.00000000000E+00 0. -1.
         11    1    1    2    0    0  0.54150480525E+02  0.22241589738E+02 -0.73562448928E+02  0.94012747792E+02  0.00000000000E+00 0.  1.
</event>
<event>
 7    1  0.2394257E-009  0.1105453E+03  0.7561462E-02  0.1259563E+00
         -3   -1    0    0    0  501 -0.00000000000E+00  0.00000000000E+00  0.41264960372E+02  0.41264960372E+02  0.00000000000E+00 0.  1.
          3   -1    0    0  501    0  0.00000000000E+00 -0.00000000000E+00 -0.46458200605E+03  0.46458200605E+03  0.00000000000E+00 0. -1.
         25    2    1    2    0    0  0.28776596548E+02  0.99952110117E+01 -0.88200167745E+02  0.15605828770E+03  0.12508766053E+03 0.  0.
          5    1    3    3  502    0 -0.35888892659E+02  0.36017746513E+02 -0.64668338782E+02  0.82369637131E+02  0.41800000000E+01 0.  1.
         -5    1    3    3    0  502  0.64665489207E+02 -0.26022535502E+02 -0.23531828962E+02  0.73688650569E+02  0.41800000000E+01 0.  1.
        -11    1    1    2    0    0 -0.18130965167E+02 -0.52960688455E+02 -0.18780829130E+03  0.19597326527E+03  0.00000000000E+00 0.  1.
         11    1    1    2    0    0 -0.10645631381E+02  0.42965477443E+02 -0.14730858663E+03  0.15381541345E+03  0.00000000000E+00 0. -1.
</event>
<event>
 7    1  0.2394257E-009  0.8822917E+02  0.7561462E-02  0.1307198E+00
          2   -1    0    0  501    0  0.00000000000E+00  0.00000000000E+00  0.12147887959E+03  0.12147887959E+03  0.00000000000E+00 0. -1.
         -2   -1    0    0    0  501 -0.00000000000E+00 -0.00000000000E+00 -0.12270679952E+03  0.12270679952E+03  0.00000000000E+00 0.  1.
         25    2    1    2    0    0  0.24113900429E+02 -0.34408971685E+02 -0.68753787141E+01  0.13213537532E+03  0.12508808517E+03 0.  0.
          5    1    3    3  502    0  0.22449087881E+02  0.86517636863E+01  0.52937086645E+02  0.58297702390E+02  0.41800000000E+01 0.  1.
         -5    1    3    3    0  502  0.16648125486E+01 -0.43060735371E+02 -0.59812465359E+02  0.73837672931E+02  0.41800000000E+01 0.  1.
        -11    1    1    2    0    0 -0.62539215320E+02  0.31981643601E+02 -0.90822090215E+01  0.70827011097E+02  0.00000000000E+00 0. -1.
         11    1    1    2    0    0  0.38425314891E+02  0.24273280835E+01  0.14729667805E+02  0.41223292684E+02  0.00000000000E+00 0.  1.
</event>
<event>
 7    1  0.2394257E-009  0.1490574E+03  0.7561462E-02  0.1201636E+00
         -2   -1    0    0    0  501 -0.00000000000E+00  0.00000000000E+00  0.44844836914E+02  0.44844836914E+02  0.00000000000E+00 0.  1.
          2   -1    0    0  501    0  0.00000000000E+00 -0.00000000000E+00 -0.71737002660E+03  0.71737002660E+03  0.00000000000E+00 0. -1.
         25    2    1    2    0    0  0.13661401588E+03  0.15336669176E+02 -0.43494678280E+03  0.47299592424E+03  0.12509131753E+03 0.  0.
          5    1    3    3  502    0  0.99104888103E+02  0.24023708553E+02 -0.12844186831E+03  0.16405396476E+03  0.41800000000E+01 0.  1.
         -5    1    3    3    0  502  0.37509127781E+02 -0.86870393772E+01 -0.30650491449E+03  0.30894195948E+03  0.41800000000E+01 0.  1.
        -11    1    1    2    0    0 -0.50575383732E+02  0.31283167669E+02 -0.13464542741E+03  0.14719340047E+03  0.00000000000E+00 0. -1.
         11    1    1    2    0    0 -0.86038632152E+02 -0.46619836845E+02 -0.10293297948E+03  0.14202553881E+03  0.00000000000E+00 0.  1.
</event>
<event>
 7    1  0.2394257E-009  0.1727350E+03  0.7561462E-02  0.1175025E+00
         -1   -1    0    0    0  501 -0.00000000000E+00  0.00000000000E+00  0.20122449772E+03  0.20122449772E+03  0.00000000000E+00 0.  1.
          1   -1    0    0  501    0  0.00000000000E+00 -0.00000000000E+00 -0.16600763818E+03  0.16600763818E+03  0.00000000000E+00 0. -1.
         25    2    1    2    0    0  0.13896610120E+03  0.36951190063E+02  0.47513129994E+02  0.19642271163E+03  0.12508963344E+03 0.  0.
          5    1    3    3  502    0  0.13573389661E+03 -0.14792021232E+02  0.46830614146E+02  0.14440593271E+03  0.41800000000E+01 0.  1.
         -5    1    3    3    0  502  0.32322045911E+01  0.51743211295E+02  0.68251584851E+00  0.52016778923E+02  0.41800000000E+01 0.  1.
        -11    1    1    2    0    0 -0.47366121805E+02  0.17264206539E+02 -0.35763652153E+02  0.61811335025E+02  0.00000000000E+00 0. -1.
         11    1    1    2    0    0 -0.91599979395E+02 -0.54215396602E+02  0.23467381705E+02  0.10899808924E+03  0.00000000000E+00 0.  1.
</event>
<event>
 7    1  0.2394257E-009  0.8465210E+02  0.7561462E-02  0.1316345E+00
         -1   -1    0    0    0  501 -0.00000000000E+00  0.00000000000E+00  0.23528429718E+03  0.23528429718E+03  0.00000000000E+00 0.  1.
          1   -1    0    0  501    0  0.00000000000E+00 -0.00000000000E+00 -0.20569603132E+03  0.20569603132E+03  0.00000000000E+00 0. -1.
         25    2    1    2    0    0 -0.31868669546E+01 -0.32563227488E+01  0.20637661029E+03  0.24136953855E+03  0.12508872493E+03 0.  0.
          5    1    3    3  502    0 -0.16343205811E+01 -0.44665474359E+02  0.17869444908E+02  0.48316302267E+02  0.41800000000E+01 0.  1.
         -5    1    3    3    0  502 -0.15525463735E+01  0.41409151610E+02  0.18850716538E+03  0.19305323628E+03  0.41800000000E+01 0. -1.
        -11    1    1    2    0    0  0.40295249761E+01 -0.39648217517E+02 -0.40890680381E+02  0.57098738741E+02  0.00000000000E+00 0.  1.
         11    1    1    2    0    0 -0.84265802150E+00  0.42904540266E+02 -0.13589766404E+03  0.14251205121E+03  0.00000000000E+00 0. -1.
</event>
<event>
 7    1  0.2394257E-009  0.1178314E+03  0.7561462E-02  0.1246718E+00
         -2   -1    0    0    0  501 -0.00000000000E+00  0.00000000000E+00  0.44718315264E+02  0.44718315264E+02  0.00000000000E+00 0.  1.
          2   -1    0    0  501    0  0.00000000000E+00 -0.00000000000E+00 -0.54154646446E+03  0.54154646446E+03  0.00000000000E+00 0. -1.
         25    2    1    2    0    0  0.24471339503E+02 -0.83301599701E+02 -0.13843241282E+03  0.20578118100E+03  0.12507741029E+03 0.  0.
          5    1    3    3  502    0 -0.20102407208E+01 -0.97246652734E+02 -0.44384060538E+02  0.10699705494E+03  0.41800000000E+01 0.  1.
         -5    1    3    3    0  502  0.26481580224E+02  0.13945053033E+02 -0.94048352278E+02  0.98784126060E+02  0.41800000000E+01 0.  1.
        -11    1    1    2    0    0 -0.42189547014E+02  0.29600984611E+02 -0.27458623182E+03  0.27938105676E+03  0.00000000000E+00 0.  1.
         11    1    1    2    0    0  0.17718207510E+02  0.53700615090E+02 -0.83809504557E+02  0.10110254197E+03  0.00000000000E+00 0. -1.
</event>
<event>
 7    1  0.2394257E-009  0.1024907E+03  0.7561462E-02  0.1275144E+00
          2   -1    0    0  501    0  0.00000000000E+00  0.00000000000E+00  0.50022914709E+03  0.50022914709E+03  0.00000000000E+00 0. -1.
         -2   -1    0    0    0  501 -0.00000000000E+00 -0.00000000000E+00 -0.57763189372E+02  0.57763189372E+02  0.00000000000E+00 0.  1.
         25    2    1    2    0    0  0.65948181598E+02  0.28168011797E+02  0.41389930192E+03  0.43829510815E+03  0.12508944861E+03 0.  0.
          5    1    3    3  502    0  0.83019934913E+02  0.46571911475E+01  0.39431263321E+03  0.40300610929E+03  0.41800000000E+01 0.  1.
         -5    1    3    3    0  502 -0.17071753316E+02  0.23510820650E+02  0.19586668714E+02  0.35288998855E+02  0.41800000000E+01 0.  1.
        -11    1    1    2    0    0 -0.68424593193E+02 -0.44978542322E+01  0.52182464202E+02  0.86169398376E+02  0.00000000000E+00 0. -1.
         11    1    1    2    0    0  0.24764115949E+01 -0.23670157565E+02 -0.23615808405E+02  0.33527829935E+02  0.00000000000E+00 0.  1.
</event>
<event>
 7    1  0.2394257E-009  0.8952161E+02  0.7561462E-02  0.1304014E+00
         -1   -1    0    0    0  501 -0.00000000000E+00  0.00000000000E+00  0.20425494794E+02  0.20425494794E+02  0.00000000000E+00 0.  1.
          1   -1    0    0  501    0  0.00000000000E+00 -0.00000000000E+00 -0.72080486801E+03  0.72080486801E+03  0.00000000000E+00 0. -1.
         25    2    1    2    0    0 -0.43771176794E+02  0.90119661101E+00 -0.47015099541E+03  0.48847375669E+03  0.12509166405E+03 0.  0.
          5    1    3    3  502    0  0.22382545569E+02  0.12434906301E+00 -0.35404434275E+03  0.35477579236E+03  0.41800000000E+01 0.  1.
         -5    1    3    3    0  502 -0.66153722363E+02  0.77684754800E+00 -0.11610665265E+03  0.13369796433E+03  0.41800000000E+01 0.  1.
        -11    1    1    2    0    0  0.70122226554E+01 -0.37477076084E+02 -0.38677246171E+02  0.54310513437E+02  0.00000000000E+00 0.  1.
         11    1    1    2    0    0  0.36758954139E+02  0.36575879473E+02 -0.19155113163E+03  0.19844609268E+03  0.00000000000E+00 0. -1.
</event>
<event>
 7    1  0.2394257E-009  0.1174613E+03  0.7561462E-02  0.1247345E+00
         -1   -1    0    0    0  501 -0.00000000000E+00  0.00000000000E+00  0.18734032383E+02  0.18734032383E+02  0.00000000000E+00 0.  1.
          1   -1    0    0  501    0  0.00000000000E+00 -0.00000000000E+00 -0.88808152596E+03  0.88808152596E+03  0.00000000000E+00 0. -1.
         25    2    1    2    0    0  0.51338516450E+02  0.38931929258E+02 -0.38510358337E+03  0.41000269799E+03  0.12508438772E+03 0.  0.
          5    1    3    3  502    0  0.32933937214E+01  0.70109510387E+02 -0.12296580126E+03  0.14164833416E+03  0.41800000000E+01 0.  1.
         -5    1    3    3    0  502  0.48045122728E+02 -0.31177581128E+02 -0.26213778211E+03  0.26835436384E+03  0.41800000000E+01 0.  1.
        -11    1    1    2    0    0 -0.41889190468E+02 -0.66191956496E+02 -0.40438493024E+03  0.41190199221E+03  0.00000000000E+00 0. -1.
         11    1    1    2    0    0 -0.94493259816E+01  0.27260027237E+02 -0.79858979970E+02  0.84910868140E+02  0.00000000000E+00 0.  1.
</event>
<event>
 7    1  0.2394257E-009  0.9184229E+02  0.7561462E-02  0.1298451E+00
         -1   -1    0    0    0  501 -0.00000000000E+00  0.00000000000E+00  0.30759016455E+03  0.30759016455E+03  0.00000000000E+00 0.  1.
          1   -1    0    0  501    0  0.00000000000E+00 -0.00000000000E+00 -0.41821799034E+02  0.41821799034E+02  0.00000000000E+00 0. -1.
         25    2    1    2    0    0  0.30715386726E+02 -0.86822465250E+01  0.14248398288E+03  0.19227072858E+03  0.12509009275E+03 0.  0.
          5    1    3    3  502    0  0.50773249356E+02 -0.37300423228E+02  0.22178416073E+02  0.66922335305E+02  0.41800000000E+01 0. -1.
         -5    1    3    3    0  502 -0.20057862630E+02  0.28618176703E+02  0.12030556681E+03  0.12534839327E+03  0.41800000000E+01 0. -1.
        -11    1    1    2    0    0  0.29229943703E+01  0.39570934221E+02  0.96159483071E+02  0.10402427080E+03  0.00000000000E+00 0.  1.
         11    1    1    2    0    0 -0.33638381096E+02 -0.30888687696E+02  0.27124899570E+02  0.53116964212E+02  0.00000000000E+00 0. -1.
</event>
<event>
 7    1  0.2394257E-009  0.1089519E+03  0.7561462E-02  0.1262523E+00
         -1   -1    0    0    0  501 -0.00000000000E+00  0.00000000000E+00  0.73901904835E+02  0.73901904835E+02  0.00000000000E+00 0.  1.
          1   -1    0    0  501    0  0.00000000000E+00 -0.00000000000E+00 -0.19051159805E+03  0.19051159805E+03  0.00000000000E+00 0. -1.
         25    2    1    2    0    0 -0.45332143327E+02  0.17113724701E+01 -0.46198894924E+02  0.14085719046E+03  0.12509387754E+03 0.  0.
          5    1    3    3  502    0 -0.48316162317E+02  0.49493578691E+02  0.64264365049E+01  0.69590497618E+02  0.41800000000E+01 0. -1.
         -5    1    3    3    0  502  0.29840189896E+01 -0.47782206221E+02 -0.52625331428E+02  0.71266692842E+02  0.41800000000E+01 0. -1.
        -11    1    1    2    0    0  0.72699037346E+02  0.31072246759E+01 -0.58317693835E+02  0.93251049809E+02  0.00000000000E+00 0. -1.
         11    1    1    2    0    0 -0.27366894019E+02 -0.48185971460E+01 -0.12093104453E+02  0.30305262612E+02  0.00000000000E+00 0.  1.
</event>
<event>
 7    1  0.2394257E-009  0.1178552E+03  0.7561462E-02  0.1246678E+00
         -3   -1    0    0    0  501 -0.00000000000E+00  0.00000000000E+00  0.72878976878E+03  0.72878976878E+03  0.00000000000E+00 0.  1.
          3   -1    0    0  501    0  0.00000000000E+00 -0.00000000000E+00 -0.21432300939E+02  0.21432300939E+02  0.00000000000E+00 0. -1.
         25    2    1    2    0    0 -0.54274539020E+02 -0.22065808298E+02  0.47515264670E+03  0.49482402953E+03  0.12509259388E+03 0.  0.
          5    1    3    3  502    0  0.10007728859E+02 -0.61571235182E+02  0.20870977112E+03  0.21787246866E+03  0.41800000000E+01 0.  1.
         -5    1    3    3    0  502 -0.64282267879E+02  0.39505426884E+02  0.26644287558E+03  0.27695156086E+03  0.41800000000E+01 0.  1.
        -11    1    1    2    0    0  0.66446847982E+02  0.38789194648E+02  0.12950865742E+03  0.15063956179E+03  0.00000000000E+00 0. -1.
         11    1    1    2    0    0 -0.12172308962E+02 -0.16723386350E+02  0.10269616371E+03  0.10475847841E+03  0.00000000000E+00 0.  1.
</event>
<event>
 7    1  0.2394257E-009  0.9582337E+02  0.7561462E-02  0.1289332E+00
          2   -1    0    0  501    0  0.00000000000E+00  0.00000000000E+00  0.13163376236E+04  0.13163376236E+04  0.00000000000E+00 0. -1.
         -2   -1    0    0    0  501 -0.00000000000E+00 -0.00000000000E+00 -0.12641031674E+02  0.12641031674E+02  0.00000000000E+00 0.  1.
         25    2    1    2    0    0 -0.21393588184E+02  0.47923190254E+02  0.82636598792E+03  0.83742625937E+03  0.12509067155E+03 0.  0.
          5    1    3    3  502    0  0.90296240910E+01 -0.96271534939E+01  0.63680844307E+03  0.63695893255E+03  0.41800000000E+01 0. -1.
         -5    1    3    3    0  502 -0.30423212275E+02  0.57550343748E+02  0.18955754486E+03  0.20046732682E+03  0.41800000000E+01 0. -1.
        -11    1    1    2    0    0 -0.33159378025E+02 -0.47606621577E+02  0.17578075670E+03  0.18510756115E+03  0.00000000000E+00 0. -1.
         11    1    1    2    0    0  0.54552966210E+02 -0.31656867689E+00  0.30154984732E+03  0.30644483477E+03  0.00000000000E+00 0.  1.
</event>
<event>
 7    1  0.2394257E-009  0.8415924E+02  0.7561462E-02  0.1317646E+00
         -4   -1    0    0    0  501 -0.00000000000E+00  0.00000000000E+00  0.19215077443E+03  0.19215077443E+03  0.00000000000E+00 0.  1.
          4   -1    0    0  501    0  0.00000000000E+00 -0.00000000000E+00 -0.68643499873E+02  0.68643499873E+02  0.00000000000E+00 0. -1.
         25    2    1    2    0    0  0.10086565071E+02 -0.12203430878E+02  0.11046014811E+03  0.16762837213E+03  0.12508862579E+03 0.  0.
          5    1    3    3  502    0  0.43947368765E+02 -0.11829892708E+02  0.12304718784E+03  0.13126081067E+03  0.41800000000E+01 0. -1.
         -5    1    3    3    0  502 -0.33860803694E+02 -0.37353817045E+00 -0.12587039725E+02  0.36367561460E+02  0.41800000000E+01 0. -1.
        -11    1    1    2    0    0  0.38609981341E+02  0.15157563896E+01  0.18816189366E+02  0.42977635566E+02  0.00000000000E+00 0.  1.
         11    1    1    2    0    0 -0.48696546412E+02  0.10687674489E+02 -0.57690629187E+01  0.50188266611E+02  0.00000000000E+00 0. -1.
</event>
<event>
 7    1  0.2394257E-009  0.2317096E+03  0.7561462E-02  0.1125442E+00
          2   -1    0    0  501    0  0.00000000000E+00  0.00000000000E+00  0.56874604603E+03  0.56874604603E+03  0.00000000000E+00 0. -1.
         -2   -1    0    0    0  501 -0.00000000000E+00 -0.00000000000E+00 -0.95366947987E+02  0.95366947987E+02  0.00000000000E+00 0.  1.
         25    2    1    2    0    0  0.19310223231E+02 -0.20489264164E+03  0.23027684974E+03  0.33321434369E+03  0.12510192642E+03 0.  0.
          5    1    3    3  502    0  0.63468930371E+02 -0.17623824590E+03  0.18958152774E+03  0.26654615454E+03  0.41800000000E+01 0. -1.
         -5    1    3    3    0  502 -0.44158707140E+02 -0.28654395736E+02  0.40695322002E+02  0.66668189147E+02  0.41800000000E+01 0. -1.
        -11    1    1    2    0    0 -0.25871935384E+02  0.92214474787E+01  0.42417022970E+02  0.50533117574E+02  0.00000000000E+00 0.  1.
         11    1    1    2    0    0  0.65617121527E+01  0.19567119416E+03  0.20068522533E+03  0.28036553275E+03  0.00000000000E+00 0. -1.
</event>
<event>
 7    1  0.2394257E-009  0.1422681E+03  0.7561462E-02  0.1210309E+00
          2   -1    0    0  501    0  0.00000000000E+00  0.00000000000E+00  0.90232904545E+03  0.90232904545E+03  0.00000000000E+00 0. -1.
         -2   -1    0    0    0  501 -0.00000000000E+00 -0.00000000000E+00 -0.28224190831E+02  0.28224190831E+02  0.00000000000E+00 0.  1.
         25    2    1    2    0    0  0.27596041122E+02  0.10432810418E+03  0.59859619750E+03  0.62097533222E+03  0.12508821188E+03 0.  0.
          5    1    3    3  502    0  0.60131710853E+02  0.88115037960E+02  0.54932533294E+03  0.55960332055E+03  0.41800000000E+01 0. -1.
         -5    1    3    3    0  502 -0.32535669731E+02  0.16213066219E+02  0.49270864564E+02  0.61372011666E+02  0.41800000000E+01 0. -1.
        -11    1    1    2    0    0 -0.60517196161E+02 -0.54357296248E+02  0.15849181461E+03  0.17814797777E+03  0.00000000000E+00 0.  1.
         11    1    1    2    0    0  0.32921155039E+02 -0.49970807931E+02  0.11701684251E+03  0.13142992629E+03  0.00000000000E+00 0. -1.
</event>
<event>
 7    1  0.2394257E-009  0.1952421E+03  0.7561462E-02  0.1153816E+00
         -2   -1    0    0    0  501 -0.00000000000E+00  0.00000000000E+00  0.37931128551E+02  0.37931128551E+02  0.00000000000E+00 0. -1.
          2   -1    0    0  501    0  0.00000000000E+00 -0.00000000000E+00 -0.11948786369E+04  0.11948786369E+04  0.00000000000E+00 0.  1.
         25    2    1    2    0    0 -0.11248115738E+03  0.14296280382E+03 -0.55328026070E+03  0.59569860847E+03  0.12508961269E+03 0.  0.
          5    1    3    3  502    0 -0.53823004863E+02  0.14030264237E+02 -0.30293730408E+03  0.30802961996E+03  0.41800000000E+01 0.  1.
         -5    1    3    3    0  502 -0.58658152515E+02  0.12893253958E+03 -0.25034295662E+03  0.28766898851E+03  0.41800000000E+01 0.  1.
        -11    1    1    2    0    0  0.94939621411E+02 -0.70005713168E+02 -0.46173810263E+03  0.47656731635E+03  0.00000000000E+00 0.  1.
         11    1    1    2    0    0  0.17541535968E+02 -0.72957090649E+02 -0.14192914497E+03  0.16054384059E+03  0.00000000000E+00 0. -1.
</event>
<event>
 7    1  0.2394257E-009  0.1907412E+03  0.7561462E-02  0.1157795E+00
          1   -1    0    0  501    0  0.00000000000E+00  0.00000000000E+00  0.94873834280E+02  0.94873834280E+02  0.00000000000E+00 0. -1.
         -1   -1    0    0    0  501 -0.00000000000E+00 -0.00000000000E+00 -0.46999438329E+03  0.46999438329E+03  0.00000000000E+00 0.  1.
         25    2    1    2    0    0 -0.95925506885E+02 -0.12698008558E+03 -0.80829329555E+02  0.21795934133E+03  0.12508896415E+03 0.  0.
          5    1    3    3  502    0  0.29126974035E+02 -0.10766923735E+02 -0.17046266008E+02  0.35670083375E+02  0.41800000000E+01 0.  1.
         -5    1    3    3    0  502 -0.12505248092E+03 -0.11621316184E+03 -0.63783063547E+02  0.18228925795E+03  0.41800000000E+01 0.  1.
        -11    1    1    2    0    0 -0.79865211698E+01  0.48529286465E+02 -0.50284071146E+02  0.70337500497E+02  0.00000000000E+00 0.  1.
         11    1    1    2    0    0  0.10391202805E+03  0.78450799113E+02 -0.24400714831E+03  0.27657137575E+03  0.00000000000E+00 0. -1.
</event>
<event>
 7    1  0.2394257E-009  0.1180798E+03  0.7561462E-02  0.1246299E+00
         -1   -1    0    0    0  501 -0.00000000000E+00  0.00000000000E+00  0.35352797281E+02  0.35352797281E+02  0.00000000000E+00 0.  1.
          1   -1    0    0  501    0  0.00000000000E+00 -0.00000000000E+00 -0.50292167895E+03  0.50292167895E+03  0.00000000000E+00 0. -1.
         25    2    1    2    0    0 -0.22164157443E+02 -0.74506419000E+02 -0.25038219699E+03  0.29048097181E+03  0.12508194941E+03 0.  0.
          5    1    3    3  502    0  0.46933807922E+02 -0.47244857953E+02 -0.16039689879E+03  0.17372246968E+03  0.41800000000E+01 0. -1.
         -5    1    3    3    0  502 -0.69097965364E+02 -0.27261561048E+02 -0.89985298191E+02  0.11675850213E+03  0.41800000000E+01 0. -1.
        -11    1    1    2    0    0  0.34693972345E+02  0.22062054309E+02 -0.24848351663E+02  0.48040051392E+02  0.00000000000E+00 0.  1.
         11    1    1    2    0    0 -0.12529814902E+02  0.52444364692E+02 -0.19233833302E+03  0.19975345304E+03  0.00000000000E+00 0. -1.
</event>
<event>
 7    1  0.2394257E-009  0.9311779E+02  0.7561462E-02  0.1295472E+00
          2   -1    0    0  501    0  0.00000000000E+00  0.00000000000E+00  0.11634450212E+04  0.11634450212E+04  0.00000000000E+00 0. -1.
         -2   -1    0    0    0  501 -0.00000000000E+00 -0.00000000000E+00 -0.13059224605E+02  0.13059224605E+02  0.00000000000E+00 0.  1.
         25    2    1    2    0    0 -0.49069199708E+02  0.27733233846E+02  0.71961238384E+03  0.73257567237E+03  0.12509282215E+03 0.  0.
          5    1    3    3  502    0 -0.14527070035E+02 -0.17088715775E+02  0.59737615968E+03  0.59781168316E+03  0.41800000000E+01 0. -1.
         -5    1    3    3    0  502 -0.34542129673E+02  0.44821949622E+02  0.12223622416E+03  0.13476398920E+03  0.41800000000E+01 0. -1.
        -11    1    1    2    0    0 -0.33391461457E+01  0.29145571240E+02  0.14034213380E+03  0.14337548165E+03  0.00000000000E+00 0.  1.
         11    1    1    2    0    0  0.52408345854E+02 -0.56878805086E+02  0.29043127893E+03  0.30055309175E+03  0.00000000000E+00 0. -1.
</event>
<event>
 7    1  0.2394257E-009  0.1155254E+03  0.7561462E-02  0.1250667E+00
          1   -1    0    0  501    0  0.00000000000E+00  0.00000000000E+00  0.74710172836E+03  0.74710172836E+03  0.00000000000E+00 0. -1.
         -1   -1    0    0    0  501 -0.00000000000E+00 -0.00000000000E+00 -0.20360310623E+02  0.20360310623E+02  0.00000000000E+00 0.  1.
         25    2    1    2    0    0  0.32667042166E+02 -0.20294570717E+02  0.28399457262E+03  0.31269851903E+03  0.12509372998E+03 0.  0.
          5    1    3    3  502    0  0.77347473299E+02 -0.30126132581E+02  0.15685878817E+03  0.17751723104E+03  0.41800000000E+01 0.  1.
         -5    1    3    3    0  502 -0.44680431132E+02  0.98315618646E+01  0.12713578445E+03  0.13518128799E+03  0.41800000000E+01 0.  1.
        -11    1    1    2    0    0 -0.41670297773E+02 -0.29718144280E+02  0.17937869618E+03  0.18653765963E+03  0.00000000000E+00 0. -1.
         11    1    1    2    0    0  0.90032556065E+01  0.50012714997E+02  0.26336814893E+03  0.26822586032E+03  0.00000000000E+00 0.  1.
</event>
<event>
 7    1  0.2394257E-009  0.9758838E+02  0.7561462E-02  0.1285451E+00
         -3   -1    0    0    0  501 -0.00000000000E+00  0.00000000000E+00  0.76149438785E+03  0.76149438785E+03  0.00000000000E+00 0.  1.
          3   -1    0    0  501    0  0.00000000000E+00 -0.00000000000E+00 -0.16237389120E+02  0.16237389120E+02  0.00000000000E+00 0. -1.
         25    2    1    2    0    0  0.15740865512E+02 -0.35660023227E+01  0.45854117456E+03  0.47557169997E+03  0.12509173365E+03 0.  0.
          5    1    3    3  502    0  0.59226490261E+02 -0.56849953466E+01  0.38809992609E+03  0.39265649282E+03  0.41800000000E+01 0. -1.
         -5    1    3    3    0  502 -0.43485624748E+02  0.21189930239E+01  0.70441248469E+02  0.82915207152E+02  0.41800000000E+01 0. -1.
        -11    1    1    2    0    0  0.10865503002E+02 -0.39612866999E+02  0.88652964198E+02  0.97706634619E+02  0.00000000000E+00 0. -1.
         11    1    1    2    0    0 -0.26606368514E+02  0.43178869322E+02  0.19806285997E+03  0.20445344238E+03  0.00000000000E+00 0.  1.
</event>
<event>
 7    1  0.2394257E-009  0.8373105E+02  0.7561462E-02  0.1318785E+00
          2   -1    0    0  501    0  0.00000000000E+00  0.00000000000E+00  0.54468464808E+03  0.54468464808E+03  0.00000000000E+00 0. -1.
         -2   -1    0    0    0  501 -0.00000000000E+00 -0.00000000000E+00 -0.24831653202E+02  0.24831653202E+02  0.00000000000E+00 0.  1.
         25    2    1    2    0    0 -0.11446782374E+02  0.30862724794E+02  0.35672630088E+03  0.37945489137E+03  0.12509526064E+03 0.  0.
          5    1    3    3  502    0  0.46287240366E+02  0.15565013730E+02  0.26782040884E+03  0.27226829060E+03  0.41800000000E+01 0. -1.
         -5    1    3    3    0  502 -0.57734022739E+02  0.15297711064E+02  0.88905892039E+02  0.10718660077E+03  0.41800000000E+01 0. -1.
        -11    1    1    2    0    0 -0.15171340839E+02 -0.27947146928E+02  0.82029034764E+01  0.32840527244E+02  0.00000000000E+00 0.  1.
         11    1    1    2    0    0  0.26618123212E+02 -0.29155778660E+01  0.15492379051E+03  0.15722088266E+03  0.00000000000E+00 0. -1.
</event>
<event>
 7    1  0.2394257E-009  0.1177161E+03  0.7561462E-02  0.1246913E+00
         -1   -1    0    0    0  501 -0.00000000000E+00  0.00000000000E+00  0.11613867434E+03  0.11613867434E+03  0.00000000000E+00 0.  1.
          1   -1    0    0  501    0  0.00000000000E+00 -0.00000000000E+00 -0.24167521466E+03  0.24167521466E+03  0.00000000000E+00 0. -1.
         25    2    1    2    0    0  0.53687328571E+00  0.10329708375E+03  0.12749712018E+02  0.16272723858E+03  0.12508806208E+03 0.  0.
          5    1    3    3  502    0 -0.36434039898E+02  0.51869588779E+02  0.57001426246E+02  0.85349449309E+02  0.41800000000E+01 0. -1.
         -5    1    3    3    0  502  0.36970913184E+02  0.51427494970E+02 -0.44251714228E+02  0.77377789272E+02  0.41800000000E+01 0. -1.
        -11    1    1    2    0    0  0.15283560463E+02 -0.32859354168E+02 -0.11287895378E+03  0.11855371181E+03  0.00000000000E+00 0. -1.
         11    1    1    2    0    0 -0.15820433749E+02 -0.70437729581E+02 -0.25407298558E+02  0.76532938611E+02  0.00000000000E+00 0.  1.
</event>
<event>
 7    1  0.2394257E-009  0.8262711E+02  0.7561462E-02  0.1321757E+00
         -1   -1    0    0    0  501 -0.00000000000E+00  0.00000000000E+00  0.30139664300E+02  0.30139664300E+02  0.00000000000E+00 0.  1.
          1   -1    0    0  501    0  0.00000000000E+00 -0.00000000000E+00 -0.57056898075E+03  0.57056898075E+03  0.00000000000E+00 0. -1.
         25    2    1    2    0    0 -0.64904770296E+02  0.34638820487E+02 -0.32448894013E+03  0.35546138290E+03  0.12508894987E+03 0.  0.
          5    1    3    3  502    0 -0.41857639456E+02  0.12938335118E+02 -0.32023933126E+03  0.32324938389E+03  0.41800000000E+01 0.  1.
         -5    1    3    3    0  502 -0.23047130841E+02  0.21700485369E+02 -0.42496088670E+01  0.32211999018E+02  0.41800000000E+01 0.  1.
        -11    1    1    2    0    0  0.57568352698E+02 -0.38882233228E+01 -0.50082784905E+02  0.76403657352E+02  0.00000000000E+00 0.  1.
         11    1    1    2    0    0  0.73364175984E+01 -0.30750597164E+02 -0.16585759142E+03  0.16884360479E+03  0.00000000000E+00 0. -1.
</event>
<event>
 7    1  0.2394257E-009  0.1235611E+03  0.7561462E-02  0.1237335E+00
         -2   -1    0    0    0  501 -0.00000000000E+00  0.00000000000E+00  0.26992649642E+02  0.26992649642E+02  0.00000000000E+00 0. -1.
          2   -1    0    0  501    0  0.00000000000E+00 -0.00000000000E+00 -0.65791245930E+03  0.65791245930E+03  0.00000000000E+00 0.  1.
         25    2    1    2    0    0 -0.53683947998E+02  0.54700800940E+02 -0.29875469948E+03  0.33282980777E+03  0.12508863489E+03 0.  0.
          5    1    3    3  502    0  0.27410430017E+02 -0.70190811137E+01 -0.14848451647E+03  0.15121416337E+03  0.41800000000E+01 0. -1.
         -5    1    3    3    0  502 -0.81094378015E+02  0.61719882054E+02 -0.15027018302E+03  0.18161564440E+03  0.41800000000E+01 0. -1.
        -11    1    1    2    0    0  0.78282652396E+02 -0.41079961981E+02 -0.26042318193E+03  0.27501994587E+03  0.00000000000E+00 0.  1.
         11    1    1    2    0    0 -0.24598704398E+02 -0.13620838959E+02 -0.71741928246E+02  0.77055355300E+02  0.00000000000E+00 0. -1.
</event>
<event>
 7    1  0.2394257E-009  0.7543073E+02  0.7561462E-02  0.1342542E+00
         -2   -1    0    0    0  501 -0.00000000000E+00  0.00000000000E+00  0.52254969818E+02  0.52254969818E+02  0.00000000000E+00 0.  1.
          2   -1    0    0  501    0  0.00000000000E+00 -0.00000000000E+00 -0.24154369858E+03  0.24154369858E+03  0.00000000000E+00 0. -1.
         25    2    1    2    0    0 -0.19919262106E+02 -0.86680526223E+01 -0.13932037056E+03  0.18849524461E+03  0.12509348283E+03 0.  0.
          5    1    3    3  502    0  0.23901126711E+02 -0.38174004628E+01 -0.14201895723E+03  0.14412735000E+03  0.41800000000E+01 0.  1.
         -5    1    3    3    0  502 -0.43820388817E+02 -0.48506521595E+01  0.26985866656E+01  0.44367894613E+02  0.41800000000E+01 0.  1.
        -11    1    1    2    0    0  0.21130964366E+01 -0.34891250958E+02  0.22277195352E+01  0.35026094619E+02  0.00000000000E+00 0.  1.
         11    1    1    2    0    0  0.17806165669E+02  0.43559303580E+02 -0.52196077732E+02  0.70277329167E+02  0.00000000000E+00 0. -1.
</event>
<event>
 7    1  0.2394257E-009  0.1284226E+03  0.7561462E-02  0.1229815E+00
         -2   -1    0    0    0  501 -0.00000000000E+00  0.00000000000E+00  0.62595961826E+02  0.62595961826E+02  0.00000000000E+00 0. -1.
          2   -1    0    0  501    0  0.00000000000E+00 -0.00000000000E+00 -0.40757032537E+03  0.40757032537E+03  0.00000000000E+00 0.  1.
         25    2    1    2    0    0  0.11258781926E+03  0.11394070968E+01 -0.14067955908E+03  0.21934355558E+03  0.12507414495E+03 0.  0.
          5    1    3    3  502    0  0.12008555932E+02  0.29363526501E+02 -0.10357733303E+03  0.10840737255E+03  0.41800000000E+01 0.  1.
         -5    1    3    3    0  502  0.10057926333E+03 -0.28224119404E+02 -0.37102226046E+02  0.11093618303E+03  0.41800000000E+01 0.  1.
        -11    1    1    2    0    0 -0.97591481353E+02 -0.16335622522E+02 -0.87485177036E+02  0.13207802996E+03  0.00000000000E+00 0. -1.
         11    1    1    2    0    0 -0.14996337905E+02  0.15196215425E+02 -0.11680962743E+03  0.11874470167E+03  0.00000000000E+00 0.  1.
</event>
<event>
 7    1  0.2394257E-009  0.1704422E+03  0.7561462E-02  0.1177387E+00
         -2   -1    0    0    0  501 -0.00000000000E+00  0.00000000000E+00  0.19146772778E+02  0.19146772778E+02  0.00000000000E+00 0.  1.
          2   -1    0    0  501    0  0.00000000000E+00 -0.00000000000E+00 -0.19181404291E+04  0.19181404291E+04  0.00000000000E+00 0. -1.
         25    2    1    2    0    0  0.11227574965E+03 -0.81704161571E+02 -0.13746726537E+04  0.13873187580E+04  0.12508803925E+03 0.  0.
          5    1    3    3  502    0 -0.63925886812E+01 -0.52046453906E+02 -0.67295096028E+03  0.67500382657E+03  0.41800000000E+01 0.  1.
         -5    1    3    3    0  502  0.11866833833E+03 -0.29657707665E+02 -0.70172169341E+03  0.71231493144E+03  0.41800000000E+01 0.  1.
        -11    1    1    2    0    0 -0.44924604732E+02 -0.15595778178E+02 -0.14183033945E+03  0.14959041947E+03  0.00000000000E+00 0.  1.
         11    1    1    2    0    0 -0.67351144921E+02  0.97299939749E+02 -0.38249066318E+03  0.40037802440E+03  0.00000000000E+00 0. -1.
</event>
<event>
 7    1  0.2394257E-009  0.1152701E+03  0.7561462E-02  0.1251110E+00
         -3   -1    0    0    0  501 -0.00000000000E+00  0.00000000000E+00  0.65486445012E+03  0.65486445012E+03  0.00000000000E+00 0.  1.
          3   -1    0    0  501    0  0.00000000000E+00 -0.00000000000E+00 -0.32312223995E+02  0.32312223995E+02  0.00000000000E+00 0. -1.
         25    2    1    2    0    0 -0.65673863004E+02 -0.44958613831E+02  0.46249309858E+03  0.48567585108E+03  0.12508730090E+03 0.  0.
          5    1    3    3  502    0 -0.64271919044E+02  0.18644915995E+02  0.12150369370E+03  0.13877727643E+03  0.41800000000E+01 0.  1.
         -5    1    3    3    0  502 -0.14019439597E+01 -0.63603529826E+02  0.34098940488E+03  0.34689857465E+03  0.41800000000E+01 0.  1.
        -11    1    1    2    0    0 -0.23640734431E+01  0.29969426833E+02  0.11420524754E+03  0.11809569829E+03  0.00000000000E+00 0.  1.
         11    1    1    2    0    0  0.68037936447E+02  0.14989186998E+02  0.45853879998E+02  0.83405124745E+02  0.00000000000E+00 0. -1.
</event>
<event>
 7    1  0.2394257E-009  0.1208633E+03  0.7561462E-02  0.1241680E+00
          2   -1    0    0  501    0  0.00000000000E+00  0.00000000000E+00  0.43810773623E+03  0.43810773623E+03  0.00000000000E+00 0. -1.
         -2   -1    0    0    0  501 -0.00000000000E+00 -0.00000000000E+00 -0.34123871889E+02  0.34123871889E+02  0.00000000000E+00 0.  1.
         25    2    1    2    0    0 -0.22695108917E+02  0.26779422153E+02  0.25187463440E+03  0.28341362991E+03  0.12510095421E+03 0.  0.
          5    1    3    3  502    0 -0.36521212835E+02  0.72864838179E+02  0.15557342191E+03  0.17568052150E+03  0.41800000000E+01 0. -1.
         -5    1    3    3    0  502  0.13826103918E+02 -0.46085416026E+02  0.96301212484E+02  0.10773310840E+03  0.41800000000E+01 0. -1.
        -11    1    1    2    0    0  0.55344345146E+02 -0.47681592389E+02  0.10209271414E+03  0.12553666027E+03  0.00000000000E+00 0. -1.
         11    1    1    2    0    0 -0.32649236229E+02  0.20902170236E+02  0.50016515799E+02  0.63281317935E+02  0.00000000000E+00 0.  1.
</event>
<event>
 7    1  0.2394257E-009  0.1261822E+03  0.7561462E-02  0.1233233E+00
          2   -1    0    0  501    0  0.00000000000E+00  0.00000000000E+00  0.41605036147E+03  0.41605036147E+03  0.00000000000E+00 0. -1.
         -2   -1    0    0    0  501 -0.00000000000E+00 -0.00000000000E+00 -0.50012514305E+02  0.50012514305E+02  0.00000000000E+00 0.  1.
         25    2    1    2    0    0 -0.63093390916E+02  0.67654769074E+02  0.16654305278E+03  0.22790870550E+03  0.12509135006E+03 0.  0.
          5    1    3    3  502    0 -0.39753613511E+02  0.84439537152E+02  0.46414929622E+02  0.10431779960E+03  0.41800000000E+01 0. -1.
         -5    1    3    3    0  502 -0.23339777406E+02 -0.16784768077E+02  0.12012812316E+03  0.12359090590E+03  0.41800000000E+01 0. -1.
        -11    1    1    2    0    0 -0.23262157266E+02 -0.67620048795E+01  0.42311019230E+02  0.48755256321E+02  0.00000000000E+00 0. -1.
         11    1    1    2    0    0  0.86355548182E+02 -0.60892764195E+02  0.15718377516E+03  0.18939891395E+03  0.00000000000E+00 0.  1.
</event>
<event>
 7    1  0.2394257E-009  0.1104951E+03  0.7561462E-02  0.1259656E+00
          1   -1    0    0  501    0  0.00000000000E+00  0.00000000000E+00  0.28459833950E+03  0.28459833950E+03  0.00000000000E+00 0. -1.
         -1   -1    0    0    0  501 -0.00000000000E+00 -0.00000000000E+00 -0.46470337888E+02  0.46470337888E+02  0.00000000000E+00 0.  1.
         25    2    1    2    0    0  0.36489919641E+02 -0.98716233472E+01  0.11643335785E+03  0.17502384813E+03  0.12509059682E+03 0.  0.
          5    1    3    3  502    0 -0.40975678001E+02 -0.28112808409E+02  0.56152228365E+02  0.75099143368E+02  0.41800000000E+01 0.  1.
         -5    1    3    3    0  502  0.77465597642E+02  0.18241185061E+02  0.60281129483E+02  0.99924704764E+02  0.41800000000E+01 0.  1.
        -11    1    1    2    0    0 -0.29860438997E+02 -0.35035715285E+02  0.33766766228E+02  0.57090644279E+02  0.00000000000E+00 0.  1.
         11    1    1    2    0    0 -0.66294806437E+01  0.44907338632E+02  0.87927877533E+02  0.98954184975E+02  0.00000000000E+00 0. -1.
</event>
<event>
 7    1  0.2394257E-009  0.1740478E+03  0.7561462E-02  0.1173691E+00
          2   -1    0    0  501    0  0.00000000000E+00  0.00000000000E+00  0.40815814917E+03  0.40815814917E+03  0.00000000000E+00 0. -1.
         -2   -1    0    0    0  501 -0.00000000000E+00 -0.00000000000E+00 -0.95726863668E+02  0.95726863668E+02  0.00000000000E+00 0.  1.
         25    2    1    2    0    0  0.13967215248E+03 -0.47507531053E+02  0.25560629310E+03  0.32054245115E+03  0.12509040823E+03 0.  0.
          5    1    3    3  502    0  0.39899786478E+01  0.29981564046E+02  0.16029467247E+02  0.34485219043E+02  0.41800000000E+01 0. -1.
         -5    1    3    3    0  502  0.13568217383E+03 -0.77489095099E+02  0.23957682585E+03  0.28605723210E+03  0.41800000000E+01 0. -1.
        -11    1    1    2    0    0 -0.50855641122E+02  0.51462874567E+02  0.60571595400E+02  0.94359111176E+02  0.00000000000E+00 0.  1.
         11    1    1    2    0    0 -0.88816511358E+02 -0.39553435138E+01 -0.37466029916E+01  0.88983450518E+02  0.00000000000E+00 0. -1.
</event>
<event>
 7    1  0.2394257E-009  0.6898328E+02  0.7561462E-02  0.1363585E+00
         -2   -1    0    0    0  501 -0.00000000000E+00  0.00000000000E+00  0.29918613309E+02  0.29918613309E+02  0.00000000000E+00 0. -1.
          2   -1    0    0  501    0  0.00000000000E+00 -0.00000000000E+00 -0.45301248889E+03  0.45301248889E+03  0.00000000000E+00 0.  1.
         25    2    1    2    0    0  0.21217211260E+02 -0.12380060790E+02 -0.31774394441E+03  0.34236218308E+03  0.12508882537E+03 0.  0.
          5    1    3    3  502    0 -0.18085387382E+02  0.30219484240E+02 -0.23756596537E+02  0.42686610823E+02  0.41800000000E+01 0. -1.
         -5    1    3    3    0  502  0.39302598642E+02 -0.42599545031E+02 -0.29398734787E+03  0.29967557225E+03  0.41800000000E+01 0. -1.
        -11    1    1    2    0    0 -0.62720881296E+01  0.24411423002E+02 -0.11594418869E+03  0.11865206089E+03  0.00000000000E+00 0.  1.
         11    1    1    2    0    0 -0.14945123131E+02 -0.12031362212E+02  0.10594257523E+02  0.21916858227E+02  0.00000000000E+00 0. -1.
</event>
<event>
 7    1  0.2394257E-009  0.1856910E+03  0.7561462E-02  0.1162406E+00
         -2   -1    0    0    0  501 -0.00000000000E+00  0.00000000000E+00  0.51990634337E+02  0.51990634337E+02  0.00000000000E+00 0.  1.
          2   -1    0    0  501    0  0.00000000000E+00 -0.00000000000E+00 -0.70232001968E+03  0.70232001968E+03  0.00000000000E+00 0. -1.
         25    2    1    2    0    0  0.12157677667E+03  0.95317410851E+02 -0.39895723521E+03  0.44573316014E+03  0.12507938712E+03 0.  0.
          5    1    3    3  502    0  0.32224727289E+02 -0.28700245704E+02 -0.61468178460E+02  0.75219322754E+02  0.41800000000E+01 0.  1.
         -5    1    3    3    0  502  0.89352049385E+02  0.12401765655E+03 -0.33748905675E+03  0.37051383738E+03  0.41800000000E+01 0.  1.
        -11    1    1    2    0    0 -0.30034147982E+02 -0.75777045812E+02 -0.85586152868E+02  0.11819137143E+03  0.00000000000E+00 0.  1.
         11    1    1    2    0    0 -0.91542628693E+02 -0.19540365039E+02 -0.16578599727E+03  0.19038612246E+03  0.00000000000E+00 0. -1.
</event>
<event>
 7    1  0.2394257E-009  0.8290768E+02  0.7561462E-02  0.1320997E+00
          1   -1    0    0  501    0  0.00000000000E+00  0.00000000000E+00  0.48765813620E+02  0.48765813620E+02  0.00000000000E+00 0. -1.
         -1   -1    0    0    0  501 -0.00000000000E+00 -0.00000000000E+00 -0.27209421012E+03  0.27209421012E+03  0.00000000000E+00 0.  1.
         25    2    1    2    0    0 -0.73874207108E+01 -0.26901279761E+02 -0.88866447757E+02  0.15595764103E+03  0.12508911792E+03 0.  0.
          5    1    3    3  502    0 -0.35570389314E+02 -0.25865024712E+02 -0.11125630788E+03  0.11970668545E+03  0.41800000000E+01 0. -1.
         -5    1    3    3    0  502  0.28182968603E+02 -0.10362550484E+01  0.22389860123E+02  0.36250955576E+02  0.41800000000E+01 0. -1.
        -11    1    1    2    0    0  0.82480783477E+01 -0.32596035365E+02 -0.66891835537E+02  0.74866881727E+02  0.00000000000E+00 0.  1.
         11    1    1    2    0    0 -0.86065763694E+00  0.59497315125E+02 -0.67570113208E+02  0.90035500985E+02  0.00000000000E+00 0. -1.
</event>
<event>
 7    1  0.2394257E-009  0.1692570E+03  0.7561462E-02  0.1178625E+00
         -1   -1    0    0    0  501 -0.00000000000E+00  0.00000000000E+00  0.60902174840E+03  0.60902174840E+03  0.00000000000E+00 0.  1.
          1   -1    0    0  501    0  0.00000000000E+00 -0.00000000000E+00 -0.59261614073E+02  0.59261614073E+02  0.00000000000E+00 0. -1.
         25    2    1    2    0    0  0.36950384856E+02  0.13960412915E+03  0.39001862339E+03  0.43429630111E+03  0.12507640364E+03 0.  0.
          5    1    3    3  502    0  0.69278252723E+02  0.33164121893E+02  0.19688810159E+03  0.21138053891E+03  0.41800000000E+01 0.  1.
         -5    1    3    3    0  502 -0.32327867867E+02  0.10644000726E+03  0.19313052180E+03  0.22291576219E+03  0.41800000000E+01 0.  1.
        -11    1    1    2    0    0 -0.11179589006E+02 -0.34466564478E+01  0.65182782528E+02  0.66224299084E+02  0.00000000000E+00 0.  1.
         11    1    1    2    0    0 -0.25770795849E+02 -0.13615747270E+03  0.94558728411E+02  0.16776276229E+03  0.00000000000E+00 0. -1.
</event>
<event>
 7    1  0.2394257E-009  0.2024907E+03  0.7561462E-02  0.1147654E+00
          3   -1    0    0  501    0  0.00000000000E+00  0.00000000000E+00  0.56521363161E+02  0.56521363161E+02  0.00000000000E+00 0. -1.
         -3   -1    0    0    0  501 -0.00000000000E+00 -0.00000000000E+00 -0.88319046403E+03  0.88319046403E+03  0.00000000000E+00 0.  1.
         25    2    1    2    0    0  0.38444240891E+02 -0.18584860289E+03 -0.33307836706E+03  0.40324369428E+03  0.12508643218E+03 0.  0.
          5    1    3    3  502    0  0.10135785124E+01 -0.16376120545E+03 -0.17700639927E+03  0.24117938870E+03  0.41800000000E+01 0.  1.
         -5    1    3    3    0  502  0.37430662379E+02 -0.22087397446E+02 -0.15607196779E+03  0.16206430558E+03  0.41800000000E+01 0.  1.
        -11    1    1    2    0    0  0.10718396324E+00  0.12790589812E+03 -0.22306885450E+03  0.25713740317E+03  0.00000000000E+00 0.  1.
         11    1    1    2    0    0 -0.38551424854E+02  0.57942704769E+02 -0.27052187931E+03  0.27933072974E+03  0.00000000000E+00 0. -1.
</event>
<event>
 7    1  0.2394257E-009  0.2140278E+03  0.7561462E-02  0.1138415E+00
         -2   -1    0    0    0  501 -0.00000000000E+00  0.00000000000E+00  0.47836851620E+02  0.47836851620E+02  0.00000000000E+00 0.  1.
          2   -1    0    0  501    0  0.00000000000E+00 -0.00000000000E+00 -0.11908009518E+04  0.11908009518E+04  0.00000000000E+00 0. -1.
         25    2    1    2    0    0  0.91172101877E+02  0.19107338455E+03 -0.53832093987E+03  0.59182584617E+03  0.12508799883E+03 0.  0.
          5    1    3    3  502    0  0.22752177151E+00  0.37873224917E+02 -0.18602041193E+02  0.42402137544E+02  0.41800000000E+01 0.  1.
         -5    1    3    3    0  502  0.90944580106E+02  0.15320015963E+03 -0.51971889867E+03  0.54942370863E+03  0.41800000000E+01 0.  1.
        -11    1    1    2    0    0 -0.54464509491E+02 -0.10995516420E+03 -0.21908929557E+03  0.25111081291E+03  0.00000000000E+00 0.  1.
         11    1    1    2    0    0 -0.36707592386E+02 -0.81118220349E+02 -0.38555386476E+03  0.39570114436E+03  0.00000000000E+00 0. -1.
</event>
<event>
 7    1  0.2394257E-009  0.1233878E+03  0.7561462E-02  0.1237611E+00
          1   -1    0    0  501    0  0.00000000000E+00  0.00000000000E+00  0.32356015740E+03  0.32356015740E+03  0.00000000000E+00 0. -1.
         -1   -1    0    0    0  501 -0.00000000000E+00 -0.00000000000E+00 -0.89365330021E+02  0.89365330021E+02  0.00000000000E+00 0.  1.
         25    2    1    2    0    0  0.10475026539E+03  0.38333798398E+01  0.22042829443E+03  0.27427723500E+03  0.12510817622E+03 0.  0.
          5    1    3    3  502    0  0.23489921662E+02 -0.10728052023E+02 -0.11113651502E+02  0.28422757952E+02  0.41800000000E+01 0. -1.
         -5    1    3    3    0  502  0.81260343724E+02  0.14561431863E+02  0.23154194593E+03  0.24585447705E+03  0.41800000000E+01 0. -1.
        -11    1    1    2    0    0 -0.53212152699E+02  0.42924731265E+02  0.75648445606E+01  0.68784392287E+02  0.00000000000E+00 0.  1.
         11    1    1    2    0    0 -0.51538112687E+02 -0.46758111105E+02  0.62016883876E+01  0.69863860130E+02  0.00000000000E+00 0. -1.
</event>
<event>
 7    1  0.2394257E-009  0.2873035E+03  0.7561462E-02  0.1091765E+00
          2   -1    0    0  501    0  0.00000000000E+00  0.00000000000E+00  0.63054448432E+03  0.63054448432E+03  0.00000000000E+00 0. -1.
         -2   -1    0    0    0  501 -0.00000000000E+00 -0.00000000000E+00 -0.13330958460E+03  0.13330958460E+03  0.00000000000E+00 0.  1.
         25    2    1    2    0    0  0.21999901469E+03  0.15435261675E+03  0.24212737066E+03  0.38275223311E+03  0.12509720846E+03 0.  0.
          5    1    3    3  502    0  0.23236231434E+03  0.13510304329E+03  0.23819629106E+03  0.35916573181E+03  0.41800000000E+01 0.  1.
         -5    1    3    3    0  502 -0.12363299650E+02  0.19249573460E+02  0.39310795990E+01  0.23586501297E+02  0.41800000000E+01 0.  1.
        -11    1    1    2    0    0 -0.19934106288E+03 -0.16547370119E+03  0.24029746426E+03  0.35335715143E+03  0.00000000000E+00 0.  1.
         11    1    1    2    0    0 -0.20657951811E+02  0.11121084444E+02  0.14810064796E+02  0.27744684383E+02  0.00000000000E+00 0. -1.
</event>
<event>
 7    1  0.2394257E-009  0.1483175E+03  0.7561462E-02  0.1202556E+00
         -1   -1    0    0    0  501 -0.00000000000E+00  0.00000000000E+00  0.81528950606E+02  0.81528950606E+02  0.00000000000E+00 0.  1.
          1   -1    0    0  501    0  0.00000000000E+00 -0.00000000000E+00 -0.29223775812E+03  0.29223775812E+03  0.00000000000E+00 0. -1.
         25    2    1    2    0    0 -0.41917348705E+02 -0.99559232870E+02 -0.13091763281E+03  0.21084800220E+03  0.12509335905E+03 0.  0.
          5    1    3    3  502    0 -0.78562261481E+02 -0.84376569204E+02 -0.12571340017E+03  0.17062463404E+03  0.41800000000E+01 0.  1.
         -5    1    3    3    0  502  0.36644912776E+02 -0.15182663665E+02 -0.52042326365E+01  0.40223368154E+02  0.41800000000E+01 0.  1.
        -11    1    1    2    0    0 -0.28792610452E+02  0.37692141525E+02 -0.34278706220E+02  0.58521292275E+02  0.00000000000E+00 0. -1.
         11    1    1    2    0    0  0.70709959158E+02  0.61867091345E+02 -0.45512468490E+02  0.10439741426E+03  0.00000000000E+00 0.  1.
</event>
<event>
 7    1  0.2394257E-009  0.1032135E+03  0.7561462E-02  0.1273680E+00
         -1   -1    0    0    0  501 -0.00000000000E+00  0.00000000000E+00  0.14409855215E+03  0.14409855215E+03  0.00000000000E+00 0.  1.
          1   -1    0    0  501    0  0.00000000000E+00 -0.00000000000E+00 -0.14243020821E+03  0.14243020821E+03  0.00000000000E+00 0. -1.
         25    2    1    2    0    0  0.56831398729E+02  0.63619765017E+02  0.39505353804E+02  0.15648131717E+03  0.12509375389E+03 0.  0.
          5    1    3    3  502    0  0.15642258868E+02  0.29095851488E+02 -0.45161790051E+02  0.56109789849E+02  0.41800000000E+01 0. -1.
         -5    1    3    3    0  502  0.41189139862E+02  0.34523913529E+02  0.84667143854E+02  0.10037152732E+03  0.41800000000E+01 0. -1.
        -11    1    1    2    0    0  0.64413981599E+01  0.16161121685E+02  0.70443177907E+01  0.18769546546E+02  0.00000000000E+00 0.  1.
         11    1    1    2    0    0 -0.63272796889E+02 -0.79780886703E+02 -0.44881327660E+02  0.11127789665E+03  0.00000000000E+00 0. -1.
</event>
<event>
 7    1  0.2394257E-009  0.2953579E+03  0.7561462E-02  0.1087584E+00
          2   -1    0    0  501    0  0.00000000000E+00  0.00000000000E+00  0.11982749932E+03  0.11982749932E+03  0.00000000000E+00 0. -1.
         -2   -1    0    0    0  501 -0.00000000000E+00 -0.00000000000E+00 -0.79901747413E+03  0.79901747413E+03  0.00000000000E+00 0.  1.
         25    2    1    2    0    0  0.27486779120E+03  0.88820139783E+02 -0.37061557115E+03  0.48625760244E+03  0.12509690038E+03 0.  0.
          5    1    3    3  502    0  0.18784128988E+03  0.45516033733E+02 -0.14852270653E+03  0.24378787145E+03  0.41800000000E+01 0. -1.
         -5    1    3    3    0  502  0.87026501318E+02  0.43304106050E+02 -0.22209286462E+03  0.24246973099E+03  0.41800000000E+01 0. -1.
        -11    1    1    2    0    0 -0.47150504125E+02  0.15486607762E+02 -0.76129459100E+02  0.90877387738E+02  0.00000000000E+00 0.  1.
         11    1    1    2    0    0 -0.22771728708E+03 -0.10430674754E+03 -0.23244494456E+03  0.34170998327E+03  0.00000000000E+00 0. -1.
</event>
<event>
 7    1  0.2394257E-009  0.8888711E+02  0.7561462E-02  0.1305569E+00
         -2   -1    0    0    0  501 -0.00000000000E+00  0.00000000000E+00  0.15845806305E+02  0.15845806305E+02  0.00000000000E+00 0. -1.
          2   -1    0    0  501    0  0.00000000000E+00 -0.00000000000E+00 -0.78053260749E+03  0.78053260749E+03  0.00000000000E+00 0.  1.
         25    2    1    2    0    0  0.14377523323E+02 -0.12021934406E+02 -0.54816238273E+03  0.56256628363E+03  0.12509030961E+03 0.  0.
          5    1    3    3  502    0  0.57988634675E+02  0.10790008895E+02 -0.14813576094E+03  0.15950166805E+03  0.41800000000E+01 0.  1.
         -5    1    3    3    0  502 -0.43611111351E+02 -0.22811943301E+02 -0.40002662179E+03  0.40306461558E+03  0.41800000000E+01 0.  1.
        -11    1    1    2    0    0 -0.30938920199E+02 -0.17392026480E+02 -0.18236948644E+03  0.18579108954E+03  0.00000000000E+00 0.  1.
         11    1    1    2    0    0  0.16561396876E+02  0.29413960886E+02 -0.34154932023E+02  0.48021040628E+02  0.00000000000E+00 0. -1.
</event>
<event>
 7    1  0.2394257E-009  0.1483537E+03  0.7561462E-02  0.1202511E+00
         -2   -1    0    0    0  501 -0.00000000000E+00  0.00000000000E+00  0.86176612573E+02  0.86176612573E+02  0.00000000000E+00 0.  1.
          2   -1    0    0  501    0  0.00000000000E+00 -0.00000000000E+00 -0.43481965719E+03  0.43481965719E+03  0.00000000000E+00 0. -1.
         25    2    1    2    0    0 -0.92896369017E+02  0.87203551780E+02 -0.53752343016E+02  0.18646767423E+03  0.12508670726E+03 0.  0.
          5    1    3    3  502    0 -0.55328792980E+02  0.11130369303E+03 -0.11555379522E+02  0.12490310889E+03  0.41800000000E+01 0.  1.
         -5    1    3    3    0  502 -0.37567576037E+02 -0.24100141247E+02 -0.42196963494E+02  0.61564565340E+02  0.41800000000E+01 0.  1.
        -11    1    1    2    0    0  0.27799868561E+02 -0.23011087144E+02 -0.13287192037E+02  0.38456368728E+02  0.00000000000E+00 0.  1.
         11    1    1    2    0    0  0.65096500456E+02 -0.64192464637E+02 -0.28160350956E+03  0.29607222680E+03  0.00000000000E+00 0. -1.
</event>
<event>
 7    1  0.2394257E-009  0.1696670E+03  0.7561462E-02  0.1178196E+00
          1   -1    0    0  501    0  0.00000000000E+00  0.00000000000E+00  0.17440177015E+03  0.17440177015E+03  0.00000000000E+00 0. -1.
         -1   -1    0    0    0  501 -0.00000000000E+00 -0.00000000000E+00 -0.17787870501E+03  0.17787870501E+03  0.00000000000E+00 0.  1.
         25    2    1    2    0    0  0.10747810207E+03 -0.89356738911E+02 -0.35220519407E+01  0.18760496166E+03  0.12508815921E+03 0.  0.
          5    1    3    3  502    0  0.10340541695E+03 -0.18740882675E+02 -0.33913549309E+02  0.11050566576E+03  0.41800000000E+01 0.  1.
         -5    1    3    3    0  502  0.40726851224E+01 -0.70615856236E+02  0.30391497368E+02  0.77099295900E+02  0.41800000000E+01 0.  1.
        -11    1    1    2    0    0  0.22954147819E+01  0.44758081214E+02 -0.94705730828E+01  0.45806620891E+02  0.00000000000E+00 0.  1.
         11    1    1    2    0    0 -0.10977351685E+03  0.44598657697E+02  0.95156901632E+01  0.11886889261E+03  0.00000000000E+00 0. -1.
</event>
<event>
 7    1  0.2394257E-009  0.1048648E+03  0.7561462E-02  0.1270386E+00
         -1   -1    0    0    0  501 -0.00000000000E+00  0.00000000000E+00  0.22158390245E+02  0.22158390245E+02  0.00000000000E+00 0.  1.
          1   -1    0    0  501    0  0.00000000000E+00 -0.00000000000E+00 -0.59363706425E+03  0.59363706425E+03  0.00000000000E+00 0. -1.
         25    2    1    2    0    0  0.52194206827E+01 -0.16071810059E+02 -0.42000438670E+03  0.43855891454E+03  0.12507874016E+03 0.  0.
          5    1    3    3  502    0 -0.55422843716E+02 -0.12736254038E+02 -0.28225227749E+03  0.28795437889E+03  0.41800000000E+01 0. -1.
         -5    1    3    3    0  502  0.60642264399E+02 -0.33355560207E+01 -0.13775210921E+03  0.15060453565E+03  0.41800000000E+01 0. -1.
        -11    1    1    2    0    0 -0.44361194105E+01 -0.37746902089E+02 -0.68388963910E+02  0.78240386997E+02  0.00000000000E+00 0. -1.
         11    1    1    2    0    0 -0.78330127218E+00  0.53818712148E+02 -0.83085323394E+02  0.98996152964E+02  0.00000000000E+00 0.  1.
</event>
<event>
 7    1  0.2394257E-009  0.1341689E+03  0.7561462E-02  0.1221398E+00
         -2   -1    0    0    0  501 -0.00000000000E+00  0.00000000000E+00  0.20570885254E+03  0.20570885254E+03  0.00000000000E+00 0. -1.
          2   -1    0    0  501    0  0.00000000000E+00 -0.00000000000E+00 -0.10886509064E+03  0.10886509064E+03  0.00000000000E+00 0.  1.
         25    2    1    2    0    0 -0.63180350739E+02 -0.56968325367E+02 -0.80368354730E+01  0.15149046385E+03  0.12509045966E+03 0.  0.
          5    1    3    3  502    0 -0.88654511394E+01 -0.84372469533E+02  0.15094453057E+02  0.86270648265E+02  0.41800000000E+01 0.  1.
         -5    1    3    3    0  502 -0.54314899600E+02  0.27404144166E+02 -0.23131288530E+02  0.65219815586E+02  0.41800000000E+01 0.  1.
        -11    1    1    2    0    0 -0.54852983428E+00  0.58663936288E+02  0.66461914425E+02  0.88650687390E+02  0.00000000000E+00 0. -1.
         11    1    1    2    0    0  0.63728880573E+02 -0.16956109207E+01  0.38418682948E+02  0.74432791933E+02  0.00000000000E+00 0.  1.
</event>
<event>
 7    1  0.2394257E-009  0.1017476E+03  0.7561462E-02  0.1276663E+00
          1   -1    0    0  501    0  0.00000000000E+00  0.00000000000E+00  0.23653977080E+03  0.23653977080E+03  0.00000000000E+00 0. -1.
         -1   -1    0    0    0  501 -0.00000000000E+00 -0.00000000000E+00 -0.57458098339E+02  0.57458098339E+02  0.00000000000E+00 0.  1.
         25    2    1    2    0    0 -0.35858253245E+02  0.16419596594E+02  0.11464231765E+03  0.17419870830E+03  0.12508761529E+03 0.  0.
          5    1    3    3  502    0 -0.34194053729E+02  0.67976351037E+02  0.48966524439E+02  0.90582617131E+02  0.41800000000E+01 0. -1.
         -5    1    3    3    0  502 -0.16641995159E+01 -0.51556754443E+02  0.65675793209E+02  0.83616091169E+02  0.41800000000E+01 0. -1.
        -11    1    1    2    0    0  0.40280093015E+02  0.15612290322E+02  0.74340986631E+02  0.85981461930E+02  0.00000000000E+00 0. -1.
         11    1    1    2    0    0 -0.44218397708E+01 -0.32031886916E+02 -0.99016318235E+01  0.33817698903E+02  0.00000000000E+00 0.  1.
</event>
<event>
 7    1  0.2394257E-009  0.1855208E+03  0.7561462E-02  0.1162564E+00
         -2   -1    0    0    0  501 -0.00000000000E+00  0.00000000000E+00  0.49790067345E+02  0.49790067345E+02  0.00000000000E+00 0. -1.
          2   -1    0    0  501    0  0.00000000000E+00 -0.00000000000E+00 -0.83085356008E+03  0.83085356008E+03  0.00000000000E+00 0.  1.
         25    2    1    2    0    0  0.45944362492E+02 -0.15521598106E+03 -0.52973092071E+03  0.56786014999E+03  0.12508963331E+03 0.  0.
          5    1    3    3  502    0  0.53477885529E+02 -0.55966864820E+01 -0.11933070775E+03  0.13095227128E+03  0.41800000000E+01 0.  1.
         -5    1    3    3    0  502 -0.75335230367E+01 -0.14961929458E+03 -0.41040021296E+03  0.43690787871E+03  0.41800000000E+01 0.  1.
        -11    1    1    2    0    0 -0.41426974775E+02  0.66081042326E+02 -0.18744760175E+03  0.20302586485E+03  0.00000000000E+00 0. -1.
         11    1    1    2    0    0 -0.45173877175E+01  0.89134938738E+02 -0.63884970274E+02  0.10975761259E+03  0.00000000000E+00 0.  1.
</event>
<event>
 7    1  0.2394257E-009  0.1451269E+03  0.7561462E-02  0.1206592E+00
          4   -1    0    0  501    0  0.00000000000E+00  0.00000000000E+00  0.65138978463E+03  0.65138978463E+03  0.00000000000E+00 0. -1.
         -4   -1    0    0    0  501 -0.00000000000E+00 -0.00000000000E+00 -0.38658741577E+02  0.38658741577E+02  0.00000000000E+00 0.  1.
         25    2    1    2    0    0 -0.66574250329E+02  0.71825424941E+02  0.46102720850E+03  0.48763166141E+03  0.12509007858E+03 0.  0.
          5    1    3    3  502    0 -0.47800431967E+02  0.10647994390E+03  0.30353488687E+03  0.32522878055E+03  0.41800000000E+01 0. -1.
         -5    1    3    3    0  502 -0.18773818362E+02 -0.34654518963E+02  0.15749232163E+03  0.16240288086E+03  0.41800000000E+01 0. -1.
        -11    1    1    2    0    0 -0.18619239351E+02  0.48178377089E+01  0.18247957913E+02  0.26511801187E+02  0.00000000000E+00 0.  1.
         11    1    1    2    0    0  0.85193489680E+02 -0.76643262649E+02  0.13345587664E+03  0.17590506361E+03  0.00000000000E+00 0. -1.
</event>
<event>
 7    1  0.2394257E-009  0.1049169E+03  0.7561462E-02  0.1270283E+00
         -2   -1    0    0    0  501 -0.00000000000E+00  0.00000000000E+00  0.25664250456E+02  0.25664250456E+02  0.00000000000E+00 0.  1.
          2   -1    0    0  501    0  0.00000000000E+00 -0.00000000000E+00 -0.75114878993E+03  0.75114878993E+03  0.00000000000E+00 0. -1.
         25    2    1    2    0    0  0.36887995282E+02 -0.72311049346E+02 -0.31760402917E+03  0.35086901053E+03  0.12508849328E+03 0.  0.
          5    1    3    3  502    0  0.21968748589E+02 -0.10217450540E+02 -0.26997719249E+03  0.27109440990E+03  0.41800000000E+01 0.  1.
         -5    1    3    3    0  502  0.14919246694E+02 -0.62093598806E+02 -0.47626836677E+02  0.79774600635E+02  0.41800000000E+01 0.  1.
        -11    1    1    2    0    0 -0.18179258118E+00 -0.20988586329E+02 -0.48651494212E+02  0.52986051879E+02  0.00000000000E+00 0.  1.
         11    1    1    2    0    0 -0.36706202701E+02  0.93299635676E+02 -0.35922901609E+03  0.37295797797E+03  0.00000000000E+00 0. -1.
</event>
<event>
 7    1  0.2394257E-009  0.1308752E+03  0.7561462E-02  0.1226163E+00
         -2   -1    0    0    0  501 -0.00000000000E+00  0.00000000000E+00  0.44909593062E+03  0.44909593062E+03  0.00000000000E+00 0.  1.
          2   -1    0    0  501    0  0.00000000000E+00 -0.00000000000E+00 -0.64882483473E+02  0.64882483473E+02  0.00000000000E+00 0. -1.
         25    2    1    2    0    0 -0.44657259206E+02  0.49204488160E+02  0.63817678328E+02  0.15535216987E+03  0.12508496377E+03 0.  0.
          5    1    3    3  502    0 -0.58421913366E+02  0.19443351986E+01  0.83635922584E+02  0.10212414184E+03  0.41800000000E+01 0.  1.
         -5    1    3    3    0  502  0.13764654160E+02  0.47260152961E+02 -0.19818244256E+02  0.53228028025E+02  0.41800000000E+01 0.  1.
        -11    1    1    2    0    0  0.95137431430E+02 -0.30387511243E+02  0.25523284590E+03  0.27407724700E+03  0.00000000000E+00 0. -1.
         11    1    1    2    0    0 -0.50480172224E+02 -0.18816976917E+02  0.65162922924E+02  0.84548997226E+02  0.00000000000E+00 0.  1.
</event>
<event>
 7    1  0.2394257E-009  0.1710203E+03  0.7561462E-02  0.1176788E+00
          1   -1    0    0  501    0  0.00000000000E+00  0.00000000000E+00  0.12587378705E+04  0.12587378705E+04  0.00000000000E+00 0. -1.
         -1   -1    0    0    0  501 -0.00000000000E+00 -0.00000000000E+00 -0.30885109591E+02  0.30885109591E+02  0.00000000000E+00 0.  1.
         25    2    1    2    0    0  0.11108138956E+03 -0.11370348402E+03  0.50164671738E+03  0.54089195971E+03  0.12508847122E+03 0.  0.
          5    1    3    3  502    0  0.91657135034E+02 -0.86430906368E+02  0.19370426251E+03  0.23110635148E+03  0.41800000000E+01 0.  1.
         -5    1    3    3    0  502  0.19424254527E+02 -0.27272577651E+02  0.30794245487E+03  0.30978560823E+03  0.41800000000E+01 0.  1.
        -11    1    1    2    0    0 -0.60466549009E+02  0.11681491814E+03  0.51860730313E+03  0.53502846981E+03  0.00000000000E+00 0.  1.
         11    1    1    2    0    0 -0.50614840551E+02 -0.31114341219E+01  0.20759874040E+03  0.21370255058E+03  0.00000000000E+00 0. -1.
</event>
<event>
 7    1  0.2394257E-009  0.7373948E+02  0.7561462E-02  0.1347819E+00
          4   -1    0    0  501    0  0.00000000000E+00  0.00000000000E+00  0.92788974420E+02  0.92788974420E+02  0.00000000000E+00 0. -1.
         -4   -1    0    0    0  501 -0.00000000000E+00 -0.00000000000E+00 -0.18307351725E+03  0.18307351725E+03  0.00000000000E+00 0.  1.
         25    2    1    2    0    0 -0.87500465025E+01  0.47246663184E+02 -0.10479877662E+03  0.17011324387E+03  0.12508765591E+03 0.  0.
          5    1    3    3  502    0 -0.88340472537E+01  0.25847296770E+02 -0.13222179227E+03  0.13507848789E+03  0.41800000000E+01 0.  1.
         -5    1    3    3    0  502  0.84000751212E-01  0.21399366414E+02  0.27423015643E+02  0.35034755972E+02  0.41800000000E+01 0.  1.
        -11    1    1    2    0    0  0.38075906873E+02 -0.55746574979E+02 -0.77623577946E+01  0.67953730616E+02  0.00000000000E+00 0. -1.
         11    1    1    2    0    0 -0.29325860371E+02  0.84999117951E+01  0.22276591588E+02  0.37795517191E+02  0.00000000000E+00 0.  1.
</event>
<event>
 7    1  0.2394257E-009  0.9729486E+02  0.7561462E-02  0.1286090E+00
         -1   -1    0    0    0  501 -0.00000000000E+00  0.00000000000E+00  0.24215671762E+02  0.24215671762E+02  0.00000000000E+00 0.  1.
          1   -1    0    0  501    0  0.00000000000E+00 -0.00000000000E+00 -0.83958197232E+03  0.83958197232E+03  0.00000000000E+00 0. -1.
         25    2    1    2    0    0 -0.81439500930E+02 -0.91884401205E+01 -0.57765416351E+03  0.59669790295E+03  0.12508890849E+03 0.  0.
          5    1    3    3  502    0 -0.58694955414E+02 -0.99048128057E+01 -0.56880562944E+03  0.57192702296E+03  0.41800000000E+01 0.  1.
         -5    1    3    3    0  502 -0.22744545516E+02  0.71637268521E+00 -0.88485340680E+01  0.24770879994E+02  0.41800000000E+01 0.  1.
        -11    1    1    2    0    0  0.87978534487E+02  0.27630036823E+02 -0.14134510802E+03  0.16876635040E+03  0.00000000000E+00 0.  1.
         11    1    1    2    0    0 -0.65390335565E+01 -0.18441596703E+02 -0.96367029023E+02  0.98333390725E+02  0.00000000000E+00 0. -1.
</event>
<event>
 7    1  0.2394257E-009  0.9324847E+02  0.7561462E-02  0.1295170E+00
          1   -1    0    0  501    0  0.00000000000E+00  0.00000000000E+00  0.55029435793E+03  0.55029435793E+03  0.00000000000E+00 0. -1.
         -1   -1    0    0    0  501 -0.00000000000E+00 -0.00000000000E+00 -0.27248048818E+02  0.27248048818E+02  0.00000000000E+00 0.  1.
         25    2    1    2    0    0 -0.13529579580E+02 -0.42868183692E+02  0.35864367107E+03  0.38248268287E+03  0.12508792587E+03 0.  0.
          5    1    3    3  502    0  0.48794413186E+02  0.81760290545E+00  0.20754359574E+03  0.21324488216E+03  0.41800000000E+01 0. -1.
         -5    1    3    3    0  502 -0.62323992765E+02 -0.43685786597E+02  0.15110007533E+03  0.16923780071E+03  0.41800000000E+01 0. -1.
        -11    1    1    2    0    0 -0.11633297748E+02  0.31690933994E+02  0.60071605034E+01  0.34288990816E+02  0.00000000000E+00 0.  1.
         11    1    1    2    0    0  0.25162877327E+02  0.11177249698E+02  0.15839547754E+03  0.16077073307E+03  0.00000000000E+00 0. -1.
</event>
<event>
 7    1  0.2394257E-009  0.1127378E+03  0.7561462E-02  0.1255582E+00
         -2   -1    0    0    0  501 -0.00000000000E+00  0.00000000000E+00  0.11634731152E+03  0.11634731152E+03  0.00000000000E+00 0. -1.
          2   -1    0    0  501    0  0.00000000000E+00 -0.00000000000E+00 -0.18198964797E+03  0.18198964797E+03  0.00000000000E+00 0.  1.
         25    2    1    2    0    0 -0.10411786523E+02  0.64955050201E+02  0.36087766268E+02  0.14586066045E+03  0.12508173947E+03 0.  0.
          5    1    3    3  502    0  0.28439524683E+02 -0.21756374825E+02  0.35721365827E+02  0.50750712175E+02  0.41800000000E+01 0.  1.
         -5    1    3    3    0  502 -0.38851311206E+02  0.86711425025E+02  0.36640044113E+00  0.95109948279E+02  0.41800000000E+01 0.  1.
        -11    1    1    2    0    0  0.37427869849E+02 -0.52729733222E+02 -0.10429303820E+03  0.12271229777E+03  0.00000000000E+00 0.  1.
         11    1    1    2    0    0 -0.27016083326E+02 -0.12225316979E+02  0.25629354825E+01  0.29764001273E+02  0.00000000000E+00 0. -1.
</event>
<event>
 7    1  0.2394257E-009  0.1877129E+03  0.7561462E-02  0.1160540E+00
          2   -1    0    0  501    0  0.00000000000E+00  0.00000000000E+00  0.57159278495E+03  0.57159278495E+03  0.00000000000E+00 0. -1.
         -2   -1    0    0    0  501 -0.00000000000E+00 -0.00000000000E+00 -0.75296179385E+02  0.75296179385E+02  0.00000000000E+00 0.  1.
         25    2    1    2    0    0  0.13711138744E+03 -0.97354365196E+02  0.34524251856E+03  0.40387716480E+03  0.12508781971E+03 0.  0.
          5    1    3    3  502    0  0.10056325255E+03 -0.59279132482E+01  0.23665283044E+03  0.25723557777E+03  0.41800000000E+01 0.  1.
         -5    1    3    3    0  502  0.36548134884E+02 -0.91426451948E+02  0.10858968812E+03  0.14664158703E+03  0.41800000000E+01 0.  1.
        -11    1    1    2    0    0 -0.89048412190E+02  0.31357434365E+02  0.12632560097E+03  0.15770563041E+03  0.00000000000E+00 0. -1.
         11    1    1    2    0    0 -0.48062975245E+02  0.65996930831E+02  0.24728486040E+02  0.85306169122E+02  0.00000000000E+00 0.  1.
</event>
<event>
 7    1  0.2394257E-009  0.1043548E+03  0.7561462E-02  0.1271396E+00
          4   -1    0    0  501    0  0.00000000000E+00  0.00000000000E+00  0.22334705857E+02  0.22334705857E+02  0.00000000000E+00 0.  1.
         -4   -1    0    0    0  501 -0.00000000000E+00 -0.00000000000E+00 -0.60421388984E+03  0.60421388984E+03  0.00000000000E+00 0. -1.
         25    2    1    2    0    0  0.39767245837E+02  0.71384744565E+01 -0.32133667978E+03  0.34718478906E+03  0.12509046454E+03 0.  0.
          5    1    3    3  502    0 -0.21694079042E+02 -0.29830848212E+02 -0.21913725108E+03  0.22225912755E+03  0.41800000000E+01 0. -1.
         -5    1    3    3    0  502  0.61461324879E+02  0.36969322668E+02 -0.10219942870E+03  0.12492566150E+03  0.41800000000E+01 0. -1.
        -11    1    1    2    0    0 -0.19094810691E+02  0.42161896759E+02 -0.10092563597E+03  0.11103252375E+03  0.00000000000E+00 0.  1.
         11    1    1    2    0    0 -0.20672435147E+02 -0.49300371215E+02 -0.15961686823E+03  0.16833128290E+03  0.00000000000E+00 0. -1.
</event>
<event>
 7    1  0.2394257E-009  0.1292051E+03  0.7561462E-02  0.1228640E+00
         -1   -1    0    0    0  501 -0.00000000000E+00  0.00000000000E+00  0.31971645274E+02  0.31971645274E+02  0.00000000000E+00 0.  1.
          1   -1    0    0  501    0  0.00000000000E+00 -0.00000000000E+00 -0.87082423952E+03  0.87082423952E+03  0.00000000000E+00 0. -1.
         25    2    1    2    0    0 -0.95345602984E+02 -0.59732676536E+02 -0.59504493842E+03  0.61837199457E+03  0.12508664307E+03 0.  0.
          5    1    3    3  502    0 -0.38756643096E+02 -0.50389947881E+02 -0.91155375658E+02  0.11121150634E+03  0.41800000000E+01 0.  1.
         -5    1    3    3    0  502 -0.56588959888E+02 -0.93427286555E+01 -0.50388956276E+03  0.50716048822E+03  0.41800000000E+01 0.  1.
        -11    1    1    2    0    0  0.57589666095E+02  0.76607355955E+02 -0.11813760905E+03  0.15212413122E+03  0.00000000000E+00 0.  1.
         11    1    1    2    0    0  0.37755936889E+02 -0.16874679418E+02 -0.12567004678E+03  0.13229975901E+03  0.00000000000E+00 0. -1.
</event>
<event>
 7    1  0.2394257E-009  0.6841936E+02  0.7561462E-02  0.1365552E+00
          1   -1    0    0  501    0  0.00000000000E+00  0.00000000000E+00  0.24666394308E+03  0.24666394308E+03  0.00000000000E+00 0. -1.
         -1   -1    0    0    0  501 -0.00000000000E+00 -0.00000000000E+00 -0.63205761252E+02  0.63205761252E+02  0.00000000000E+00 0.  1.
         25    2    1    2    0    0  0.13710461226E+02  0.17294248729E+01  0.17795874430E+03  0.21796837432E+03  0.12509967975E+03 0.  0.
          5    1    3    3  502    0 -0.74559770175E+01 -0.23838005095E+02 -0.98729755422E+01  0.27180693999E+02  0.41800000000E+01 0.  1.
         -5    1    3    3    0  502  0.21166438244E+02  0.25567429968E+02  0.18783171985E+03  0.19078768033E+03  0.41800000000E+01 0.  1.
        -11    1    1    2    0    0  0.80131093213E+01  0.34717621209E+02 -0.21495158801E+02  0.41612077517E+02  0.00000000000E+00 0.  1.
         11    1    1    2    0    0 -0.21723570548E+02 -0.36447046082E+02  0.26994596324E+02  0.50289252491E+02  0.00000000000E+00 0. -1.
</event>
<event>
 7    1  0.2394257E-009  0.1306536E+03  0.7561462E-02  0.1226489E+00
         -1   -1    0    0    0  501 -0.00000000000E+00  0.00000000000E+00  0.68109481029E+02  0.68109481029E+02  0.00000000000E+00 0.  1.
          1   -1    0    0  501    0  0.00000000000E+00 -0.00000000000E+00 -0.61495510865E+03  0.61495510865E+03  0.00000000000E+00 0. -1.
         25    2    1    2    0    0  0.54521337592E+01 -0.74720452504E+02 -0.24489602727E+02  0.14785448951E+03  0.12509331574E+03 0.  0.
          5    1    3    3  502    0 -0.19122689858E+02 -0.10427674740E+03 -0.25716579389E+02  0.10917019818E+03  0.41800000000E+01 0.  1.
         -5    1    3    3    0  502  0.24574823617E+02  0.29556294897E+02  0.12269766618E+01  0.38684291328E+02  0.41800000000E+01 0.  1.
        -11    1    1    2    0    0  0.26578467840E+02  0.79803282474E+02 -0.36993288656E+03  0.37937490614E+03  0.00000000000E+00 0.  1.
         11    1    1    2    0    0 -0.32030601600E+02 -0.50828299698E+01 -0.15242313833E+03  0.15583519403E+03  0.00000000000E+00 0. -1.
</event>
<event>
 7    1  0.2394257E-009  0.1381098E+03  0.7561462E-02  0.1215895E+00
          1   -1    0    0  501    0  0.00000000000E+00  0.00000000000E+00  0.11704981729E+03  0.11704981729E+03  0.00000000000E+00 0. -1.
         -1   -1    0    0    0  501 -0.00000000000E+00 -0.00000000000E+00 -0.16499875167E+03  0.16499875167E+03  0.00000000000E+00 0.  1.
         25    2    1    2    0    0 -0.52509222527E+02 -0.70126585438E+02 -0.21755568928E+02  0.15425897766E+03  0.12509025132E+03 0.  0.
          5    1    3    3  502    0 -0.27482157579E+02 -0.10527078323E+03 -0.99473748104E+01  0.10933265501E+03  0.41800000000E+01 0.  1.
         -5    1    3    3    0  502 -0.25027064948E+02  0.35144197791E+02 -0.11808194118E+02  0.44926322647E+02  0.41800000000E+01 0.  1.
        -11    1    1    2    0    0 -0.23981778256E+02  0.27269419311E+02 -0.11581658503E+00  0.36314739863E+02  0.00000000000E+00 0. -1.
         11    1    1    2    0    0  0.76491000783E+02  0.42857166128E+02 -0.26077548869E+02  0.91474851431E+02  0.00000000000E+00 0.  1.
</event>
<event>
 7    1  0.2394257E-009  0.1843370E+03  0.7561462E-02  0.1163670E+00
          2   -1    0    0  501    0  0.00000000000E+00  0.00000000000E+00  0.89450009559E+03  0.89450009559E+03  0.00000000000E+00 0. -1.
         -2   -1    0    0    0  501 -0.00000000000E+00 -0.00000000000E+00 -0.39227085931E+02  0.39227085931E+02  0.00000000000E+00 0.  1.
         25    2    1    2    0    0  0.12421413169E+03  0.83991325373E+02  0.37761598665E+03  0.42511695372E+03  0.12508756022E+03 0.  0.
          5    1    3    3  502    0  0.10477445930E+03  0.11649515240E+03  0.29205318820E+03  0.33145338284E+03  0.41800000000E+01 0. -1.
         -5    1    3    3    0  502  0.19439672383E+02 -0.32503827024E+02  0.85562798446E+02  0.93663570888E+02  0.41800000000E+01 0. -1.
        -11    1    1    2    0    0 -0.84862239811E+02 -0.10017162287E+03  0.38157393561E+03  0.40352772162E+03  0.00000000000E+00 0. -1.
         11    1    1    2    0    0 -0.39351891876E+02  0.16180297494E+02  0.96083087400E+02  0.10508250618E+03  0.00000000000E+00 0.  1.
</event>
<event>
 7    1  0.2394257E-009  0.1456446E+03  0.7561462E-02  0.1205929E+00
          1   -1    0    0  501    0  0.00000000000E+00  0.00000000000E+00  0.33678847933E+03  0.33678847933E+03  0.00000000000E+00 0. -1.
         -1   -1    0    0    0  501 -0.00000000000E+00 -0.00000000000E+00 -0.81695545802E+02  0.81695545802E+02  0.00000000000E+00 0.  1.
         25    2    1    2    0    0  0.55428029149E+02 -0.80695459845E+02  0.23491588143E+03  0.28357214986E+03  0.12507465439E+03 0.  0.
          5    1    3    3  502    0  0.27577147036E+02  0.32007216259E+02  0.56576454702E+02  0.70734210661E+02  0.41800000000E+01 0.  1.
         -5    1    3    3    0  502  0.27850882113E+02 -0.11270267610E+03  0.17833942673E+03  0.21283793920E+03  0.41800000000E+01 0.  1.
        -11    1    1    2    0    0 -0.71194664202E+02  0.26081539828E+02  0.45467534573E+01  0.75957882393E+02  0.00000000000E+00 0.  1.
         11    1    1    2    0    0  0.15766635053E+02  0.54613920017E+02  0.15630298634E+02  0.58953992875E+02  0.00000000000E+00 0. -1.
</event>
<event>
 7    1  0.2394257E-009  0.1652596E+03  0.7561462E-02  0.1182883E+00
         -2   -1    0    0    0  501 -0.00000000000E+00  0.00000000000E+00  0.51069396698E+02  0.51069396698E+02  0.00000000000E+00 0. -1.
          2   -1    0    0  501    0  0.00000000000E+00 -0.00000000000E+00 -0.59248458386E+03  0.59248458386E+03  0.00000000000E+00 0.  1.
         25    2    1    2    0    0  0.12632518369E+03  0.42788956089E+02 -0.33101881153E+03  0.37816573821E+03  0.12508766994E+03 0.  0.
          5    1    3    3  502    0  0.92896279289E+02 -0.32614503138E+02 -0.20561864491E+03  0.22801299098E+03  0.41800000000E+01 0.  1.
         -5    1    3    3    0  502  0.33428904404E+02  0.75403459227E+02 -0.12540016662E+03  0.15015274723E+03  0.41800000000E+01 0.  1.
        -11    1    1    2    0    0 -0.21947589449E+02 -0.39227458000E+02 -0.22148789918E+02  0.50110468354E+02  0.00000000000E+00 0. -1.
         11    1    1    2    0    0 -0.10437759424E+03 -0.35614980887E+01 -0.18824758572E+03  0.21527777400E+03  0.00000000000E+00 0.  1.
</event>
<event>
 7    1  0.2394257E-009  0.1079547E+03  0.7561462E-02  0.1264405E+00
          2   -1    0    0  501    0  0.00000000000E+00  0.00000000000E+00  0.30410006550E+02  0.30410006550E+02  0.00000000000E+00 0.  1.
         -2   -1    0    0    0  501 -0.00000000000E+00 -0.00000000000E+00 -0.61287695123E+03  0.61287695123E+03  0.00000000000E+00 0. -1.
         25    2    1    2    0    0 -0.77981348282E+02  0.31143965709E+02 -0.32054596360E+03  0.35418597145E+03  0.12508777044E+03 0.  0.
          5    1    3    3  502    0 -0.93101448296E+02  0.16139014051E+02 -0.12157069109E+03  0.15403003857E+03  0.41800000000E+01 0. -1.
         -5    1    3    3    0  502  0.15120100013E+02  0.15004951658E+02 -0.19897527250E+03  0.20015593288E+03  0.41800000000E+01 0. -1.
        -11    1    1    2    0    0  0.39885157823E+02 -0.44023487836E+02 -0.23059926655E+03  0.23812793836E+03  0.00000000000E+00 0. -1.
         11    1    1    2    0    0  0.38096190459E+02  0.12879522127E+02 -0.31321714534E+02  0.50973047967E+02  0.00000000000E+00 0.  1.
</event>
<event>
 7    1  0.2394257E-009  0.1360746E+03  0.7561462E-02  0.1218711E+00
          4   -1    0    0  501    0  0.00000000000E+00  0.00000000000E+00  0.41135301036E+02  0.41135301036E+02  0.00000000000E+00 0. -1.
         -4   -1    0    0    0  501 -0.00000000000E+00 -0.00000000000E+00 -0.48484854881E+03  0.48484854881E+03  0.00000000000E+00 0.  1.
         25    2    1    2    0    0 -0.24719340880E+02 -0.85623336710E+02 -0.23497092193E+03  0.28071942951E+03  0.12509861050E+03 0.  0.
          5    1    3    3  502    0  0.44947880808E+02 -0.52825824043E+02 -0.15374316196E+03  0.16871666167E+03  0.41800000000E+01 0.  1.
         -5    1    3    3    0  502 -0.69667221689E+02 -0.32797512667E+02 -0.81227759968E+02  0.11200276784E+03  0.41800000000E+01 0.  1.
        -11    1    1    2    0    0  0.20478613350E+02 -0.14653768774E+02 -0.22829601506E+02  0.33989663855E+02  0.00000000000E+00 0. -1.
         11    1    1    2    0    0  0.42407275301E+01  0.10027710548E+03 -0.18591272434E+03  0.21127475648E+03  0.00000000000E+00 0.  1.
</event>
<event>
 7    1  0.2394257E-009  0.1324324E+03  0.7561462E-02  0.1223890E+00
          2   -1    0    0  501    0  0.00000000000E+00  0.00000000000E+00  0.87496715885E+03  0.87496715885E+03  0.00000000000E+00 0. -1.
         -2   -1    0    0    0  501 -0.00000000000E+00 -0.00000000000E+00 -0.29411007897E+02  0.29411007897E+02  0.00000000000E+00 0.  1.
         25    2    1    2    0    0  0.66308448123E+02  0.55502653252E+02  0.66528157705E+03  0.68244141714E+03  0.12509738710E+03 0.  0.
          5    1    3    3  502    0  0.79193692315E+02 -0.12644376107E+01  0.23058220161E+03  0.24384188279E+03  0.41800000000E+01 0.  1.
         -5    1    3    3    0  502 -0.12885244192E+02  0.56767090863E+02  0.43469937544E+03  0.43859953435E+03  0.41800000000E+01 0.  1.
        -11    1    1    2    0    0 -0.15764311319E+02  0.26515852179E+02  0.63132328659E+02  0.70265886816E+02  0.00000000000E+00 0. -1.
         11    1    1    2    0    0 -0.50544136804E+02 -0.82018505430E+02  0.11714224524E+03  0.15167086279E+03  0.00000000000E+00 0.  1.
</event>
<event>
 7    1  0.2394257E-009  0.1482740E+03  0.7561462E-02  0.1202610E+00
         -1   -1    0    0    0  501 -0.00000000000E+00  0.00000000000E+00  0.13096813002E+03  0.13096813002E+03  0.00000000000E+00 0.  1.
          1   -1    0    0  501    0  0.00000000000E+00 -0.00000000000E+00 -0.21377032101E+03  0.21377032101E+03  0.00000000000E+00 0. -1.
         25    2    1    2    0    0 -0.11661505607E+03 -0.47311052021E+02 -0.57609673903E+02  0.18655864717E+03  0.12509135607E+03 0.  0.
          5    1    3    3  502    0 -0.33122004664E+02  0.29067451110E+02 -0.58449950960E+02  0.73320209180E+02  0.41800000000E+01 0.  1.
         -5    1    3    3    0  502 -0.83493051404E+02 -0.76378503131E+02  0.84027705712E+00  0.11323843799E+03  0.41800000000E+01 0.  1.
        -11    1    1    2    0    0  0.56175351036E+02 -0.84580567742E+01 -0.46288024011E+02  0.73278850668E+02  0.00000000000E+00 0.  1.
         11    1    1    2    0    0  0.60439705033E+02  0.55769108796E+02  0.21095506920E+02  0.84900953189E+02  0.00000000000E+00 0. -1.
</event>
<event>
 7    1  0.2394257E-009  0.1847241E+03  0.7561462E-02  0.1163308E+00
          3   -1    0    0  501    0  0.00000000000E+00  0.00000000000E+00  0.33125120996E+03  0.33125120996E+03  0.00000000000E+00 0. -1.
         -3   -1    0    0    0  501 -0.00000000000E+00 -0.00000000000E+00 -0.12216228055E+03  0.12216228055E+03  0.00000000000E+00 0.  1.
         25    2    1    2    0    0  0.16212098639E+03 -0.12511093064E+02  0.16217792280E+03  0.26151467131E+03  0.12509397662E+03 0.  0.
          5    1    3    3  502    0  0.26575816939E+02 -0.42751112860E+02  0.35410916973E+01  0.50635396978E+02  0.41800000000E+01 0.  1.
         -5    1    3    3    0  502  0.13554516945E+03  0.30240019796E+02  0.15863683110E+03  0.21087927433E+03  0.41800000000E+01 0.  1.
        -11    1    1    2    0    0 -0.13466972407E+03 -0.21408068578E+02  0.13670271015E+02  0.13704421290E+03  0.00000000000E+00 0. -1.
         11    1    1    2    0    0 -0.27451262319E+02  0.33919161643E+02  0.33240735593E+02  0.54854606299E+02  0.00000000000E+00 0.  1.
</event>
<event>
 7    1  0.2394257E-009  0.1143002E+03  0.7561462E-02  0.1252808E+00
         -2   -1    0    0    0  501 -0.00000000000E+00  0.00000000000E+00  0.65155635064E+02  0.65155635064E+02  0.00000000000E+00 0.  1.
          2   -1    0    0  501    0  0.00000000000E+00 -0.00000000000E+00 -0.23810794000E+03  0.23810794000E+03  0.00000000000E+00 0. -1.
         25    2    1    2    0    0 -0.34533818031E+02 -0.61155668312E+02 -0.13274495511E+03  0.19545260763E+03  0.12509155993E+03 0.  0.
          5    1    3    3  502    0 -0.82544227047E+01 -0.92604284631E+02 -0.56731426709E+02  0.10899365212E+03  0.41800000000E+01 0.  1.
         -5    1    3    3    0  502 -0.26279395326E+02  0.31448616319E+02 -0.76013528401E+02  0.86458955505E+02  0.41800000000E+01 0.  1.
        -11    1    1    2    0    0 -0.15314809319E+02 -0.16182015989E+00 -0.21850058616E+02  0.26683227537E+02  0.00000000000E+00 0. -1.
         11    1    1    2    0    0  0.49848627350E+02  0.61317488472E+02 -0.18357291211E+02  0.81127739903E+02  0.00000000000E+00 0.  1.
</event>
<event>
 7    1  0.2394257E-009  0.9190976E+02  0.7561462E-02  0.1298292E+00
         -2   -1    0    0    0  501 -0.00000000000E+00  0.00000000000E+00  0.26891500889E+02  0.26891500889E+02  0.00000000000E+00 0.  1.
          2   -1    0    0  501    0  0.00000000000E+00 -0.00000000000E+00 -0.56333340773E+03  0.56333340773E+03  0.00000000000E+00 0. -1.
         25    2    1    2    0    0 -0.14024105648E+02 -0.35497717268E+02 -0.40455365191E+03  0.42516909086E+03  0.12509330550E+03 0.  0.
          5    1    3    3  502    0 -0.74522752359E+01  0.42974602946E+02 -0.22245392701E+03  0.22672797566E+03  0.41800000000E+01 0.  1.
         -5    1    3    3    0  502 -0.65718304118E+01 -0.78472320214E+02 -0.18209972489E+03  0.19844111520E+03  0.41800000000E+01 0.  1.
        -11    1    1    2    0    0 -0.15015537570E+02  0.26989807042E+02 -0.11987738859E+01  0.30908786963E+02  0.00000000000E+00 0.  1.
         11    1    1    2    0    0  0.29039643217E+02  0.85079102261E+01 -0.13068948105E+03  0.13414703079E+03  0.00000000000E+00 0. -1.
</event>
<event>
 7    1  0.2394257E-009  0.1165697E+03  0.7561462E-02  0.1248866E+00
         -2   -1    0    0    0  501 -0.00000000000E+00  0.00000000000E+00  0.15754559061E+03  0.15754559061E+03  0.00000000000E+00 0.  1.
          2   -1    0    0  501    0  0.00000000000E+00 -0.00000000000E+00 -0.13086411485E+03  0.13086411485E+03  0.00000000000E+00 0. -1.
         25    2    1    2    0    0  0.36203005695E+02  0.72927693011E+02 -0.31493615638E+02  0.15254192190E+03  0.12509230224E+03 0.  0.
          5    1    3    3  502    0  0.60272419257E+02  0.39003603238E+01  0.19164290414E+02  0.63503698796E+02  0.41800000000E+01 0.  1.
         -5    1    3    3    0  502 -0.24069413562E+02  0.69027332687E+02 -0.50657906052E+02  0.89038223099E+02  0.41800000000E+01 0.  1.
        -11    1    1    2    0    0 -0.47868023527E+02 -0.73478948505E+02  0.12329239643E+02  0.88557968021E+02  0.00000000000E+00 0. -1.
         11    1    1    2    0    0  0.11665017833E+02  0.55125549374E+00  0.45845851754E+02  0.47309815543E+02  0.00000000000E+00 0.  1.
</event>
<event>
 7    1  0.2394257E-009  0.1492858E+03  0.7561462E-02  0.1201353E+00
         -4   -1    0    0    0  501 -0.00000000000E+00  0.00000000000E+00  0.97100086695E+03  0.97100086695E+03  0.00000000000E+00 0. -1.
          4   -1    0    0  501    0  0.00000000000E+00 -0.00000000000E+00 -0.31000536574E+02  0.31000536574E+02  0.00000000000E+00 0.  1.
         25    2    1    2    0    0 -0.12827635069E+03 -0.44264143295E+02  0.49268945532E+03  0.52612259706E+03  0.12509177123E+03 0.  0.
          5    1    3    3  502    0 -0.13014953899E+03 -0.27975021063E+02  0.25370672528E+03  0.28654158364E+03  0.41800000000E+01 0.  1.
         -5    1    3    3    0  502  0.18731882917E+01 -0.16289122232E+02  0.23898273004E+03  0.23958101342E+03  0.41800000000E+01 0.  1.
        -11    1    1    2    0    0  0.96349012969E+02  0.59338737235E+02  0.23703230984E+03  0.26265668456E+03  0.00000000000E+00 0.  1.
         11    1    1    2    0    0  0.31927337725E+02 -0.15074593940E+02  0.21027856523E+03  0.21322212191E+03  0.00000000000E+00 0. -1.
</event>
<event>
 7    1  0.2394257E-009  0.9195905E+02  0.7561462E-02  0.1298176E+00
          2   -1    0    0  501    0  0.00000000000E+00  0.00000000000E+00  0.41246456693E+02  0.41246456693E+02  0.00000000000E+00 0. -1.
         -2   -1    0    0    0  501 -0.00000000000E+00 -0.00000000000E+00 -0.27194222762E+03  0.27194222762E+03  0.00000000000E+00 0.  1.
         25    2    1    2    0    0  0.30668900729E+01  0.27413140844E+02 -0.17614220561E+03  0.21779244627E+03  0.12508631798E+03 0.  0.
          5    1    3    3  502    0 -0.22651377718E+02 -0.44076401188E+02 -0.50297460021E+02  0.70732743046E+02  0.41800000000E+01 0.  1.
         -5    1    3    3    0  502  0.25718267791E+02  0.71489542032E+02 -0.12584474559E+03  0.14705970322E+03  0.41800000000E+01 0.  1.
        -11    1    1    2    0    0  0.13435314652E+01 -0.42426822327E+02 -0.64236473016E+02  0.76994576400E+02  0.00000000000E+00 0.  1.
         11    1    1    2    0    0 -0.44104215381E+01  0.15013681483E+02  0.96829077013E+01  0.18401661647E+02  0.00000000000E+00 0. -1.
</event>
<event>
 7    1  0.2394257E-009  0.1074803E+03  0.7561462E-02  0.1265308E+00
          3   -1    0    0  501    0  0.00000000000E+00  0.00000000000E+00  0.89533662050E+02  0.89533662050E+02  0.00000000000E+00 0. -1.
         -3   -1    0    0    0  501 -0.00000000000E+00 -0.00000000000E+00 -0.23969893713E+03  0.23969893713E+03  0.00000000000E+00 0.  1.
         25    2    1    2    0    0  0.35016921050E+01  0.73738990946E+02 -0.15521635049E+03  0.21258358213E+03  0.12509981335E+03 0.  0.
          5    1    3    3  502    0 -0.43515837604E+02  0.41734343752E+02 -0.16574484381E+02  0.62670323945E+02  0.41800000000E+01 0. -1.
         -5    1    3    3    0  502  0.47017529709E+02  0.32004647193E+02 -0.13864186611E+03  0.14991325819E+03  0.41800000000E+01 0. -1.
        -11    1    1    2    0    0  0.29853768619E+02 -0.41330324343E+02 -0.29324677070E+02  0.58816493404E+02  0.00000000000E+00 0.  1.
         11    1    1    2    0    0 -0.33355460724E+02 -0.32408666602E+02  0.34375752488E+02  0.57832523637E+02  0.00000000000E+00 0. -1.
</event>
<event>
 7    1  0.2394257E-009  0.9141532E+02  0.7561462E-02  0.1299460E+00
         -1   -1    0    0    0  501 -0.00000000000E+00  0.00000000000E+00  0.47566595171E+02  0.47566595171E+02  0.00000000000E+00 0.  1.
          1   -1    0    0  501    0  0.00000000000E+00 -0.00000000000E+00 -0.34478385669E+03  0.34478385669E+03  0.00000000000E+00 0. -1.
         25    2    1    2    0    0  0.45982632961E+02  0.36107048602E+02 -0.21509400189E+03  0.25559669789E+03  0.12508445478E+03 0.  0.
          5    1    3    3  502    0  0.17817407482E+02  0.48910859603E+02 -0.21806932015E+03  0.22423521799E+03  0.41800000000E+01 0. -1.
         -5    1    3    3    0  502  0.28165225479E+02 -0.12803811001E+02  0.29753182582E+01  0.31361479894E+02  0.41800000000E+01 0. -1.
        -11    1    1    2    0    0  0.30337707233E+00 -0.50819167794E+02 -0.13322248473E+02  0.52537245429E+02  0.00000000000E+00 0.  1.
         11    1    1    2    0    0 -0.46286010034E+02  0.14712119192E+02 -0.68801011151E+02  0.84216508544E+02  0.00000000000E+00 0. -1.
</event>
<event>
 7    1  0.2394257E-009  0.1826805E+03  0.7561462E-02  0.1165234E+00
          2   -1    0    0  501    0  0.00000000000E+00  0.00000000000E+00  0.18242901099E+03  0.18242901099E+03  0.00000000000E+00 0. -1.
         -2   -1    0    0    0  501 -0.00000000000E+00 -0.00000000000E+00 -0.18933774843E+03  0.18933774843E+03  0.00000000000E+00 0.  1.
         25    2    1    2    0    0 -0.14829254027E+03  0.21626187213E+02 -0.21526819092E+01  0.19521932720E+03  0.12509029619E+03 0.  0.
          5    1    3    3  502    0 -0.71762292225E+02  0.68809801098E+02 -0.24504110242E+02  0.10248189660E+03  0.41800000000E+01 0.  1.
         -5    1    3    3    0  502 -0.76530248048E+02 -0.47183613885E+02  0.22351428333E+02  0.92737430599E+02  0.41800000000E+01 0.  1.
        -11    1    1    2    0    0  0.10533614169E+03  0.29192606212E+02 -0.10211473952E+02  0.10978244488E+03  0.00000000000E+00 0. -1.
         11    1    1    2    0    0  0.42956398583E+02 -0.50818793425E+02  0.54554184198E+01  0.66764987340E+02  0.00000000000E+00 0.  1.
</event>
<event>
 7    1  0.2394257E-009  0.1076055E+03  0.7561462E-02  0.1265069E+00
         -3   -1    0    0    0  501 -0.00000000000E+00  0.00000000000E+00  0.53250167300E+02  0.53250167300E+02  0.00000000000E+00 0.  1.
          3   -1    0    0  501    0  0.00000000000E+00 -0.00000000000E+00 -0.32089168816E+03  0.32089168816E+03  0.00000000000E+00 0. -1.
         25    2    1    2    0    0  0.13886894661E+02  0.70311656218E+02 -0.13385970123E+03  0.19672803871E+03  0.12508767627E+03 0.  0.
          5    1    3    3  502    0 -0.36878905381E+02  0.57786110328E+02 -0.12625352432E+03  0.14372443429E+03  0.41800000000E+01 0. -1.
         -5    1    3    3    0  502  0.50765800042E+02  0.12525545890E+02 -0.76061769139E+01  0.53003604415E+02  0.41800000000E+01 0. -1.
        -11    1    1    2    0    0  0.14199671078E+02 -0.63645804492E+02 -0.34003251156E+02  0.73543457747E+02  0.00000000000E+00 0.  1.
         11    1    1    2    0    0 -0.28086565739E+02 -0.66658517257E+01 -0.99778568469E+02  0.10387035901E+03  0.00000000000E+00 0. -1.
</event>
<event>
 7    1  0.2394257E-009  0.1468809E+03  0.7561462E-02  0.1204359E+00
         -1   -1    0    0    0  501 -0.00000000000E+00  0.00000000000E+00  0.24115336485E+02  0.24115336485E+02  0.00000000000E+00 0.  1.
          1   -1    0    0  501    0  0.00000000000E+00 -0.00000000000E+00 -0.12221504010E+04  0.12221504010E+04  0.00000000000E+00 0. -1.
         25    2    1    2    0    0 -0.57601605963E+02  0.87521278517E+02 -0.93356849703E+03  0.94772189924E+03  0.12509492576E+03 0.  0.
          5    1    3    3  502    0 -0.92147888210E+02  0.33653192881E+02 -0.61112860613E+03  0.61896640968E+03  0.41800000000E+01 0. -1.
         -5    1    3    3    0  502  0.34546282247E+02  0.53868085636E+02 -0.32243989091E+03  0.32875548956E+03  0.41800000000E+01 0. -1.
        -11    1    1    2    0    0  0.72853090858E+02 -0.43496448163E+02 -0.12163904056E+03  0.14830903560E+03  0.00000000000E+00 0.  1.
         11    1    1    2    0    0 -0.15251484894E+02 -0.44024830354E+02 -0.14282752687E+03  0.15023480260E+03  0.00000000000E+00 0. -1.
</event>
<event>
 7    1  0.2394257E-009  0.1533516E+03  0.7561462E-02  0.1196414E+00
          2   -1    0    0  501    0  0.00000000000E+00  0.00000000000E+00  0.42971836125E+02  0.42971836125E+02  0.00000000000E+00 0. -1.
         -2   -1    0    0    0  501 -0.00000000000E+00 -0.00000000000E+00 -0.69191518717E+03  0.69191518717E+03  0.00000000000E+00 0.  1.
         25    2    1    2    0    0  0.66593873951E+02 -0.86324040764E+02 -0.50912001365E+03  0.53547936597E+03  0.12509348114E+03 0.  0.
          5    1    3    3  502    0 -0.36589036669E+02 -0.33860467051E+02 -0.16124131981E+03  0.16882394512E+03  0.41800000000E+01 0.  1.
         -5    1    3    3    0  502  0.10318291062E+03 -0.52463573713E+02 -0.34787869384E+03  0.36665542085E+03  0.41800000000E+01 0.  1.
        -11    1    1    2    0    0 -0.12731656181E+02  0.86045755051E+02 -0.99259695114E+02  0.13197899115E+03  0.00000000000E+00 0. -1.
         11    1    1    2    0    0 -0.53862217770E+02  0.27828571305E+00 -0.40563642281E+02  0.67428666167E+02  0.00000000000E+00 0.  1.
</event>
<event>
 7    1  0.2394257E-009  0.9586778E+02  0.7561462E-02  0.1289234E+00
          2   -1    0    0  501    0  0.00000000000E+00  0.00000000000E+00  0.19026555696E+03  0.19026555696E+03  0.00000000000E+00 0. -1.
         -2   -1    0    0    0  501 -0.00000000000E+00 -0.00000000000E+00 -0.83350295539E+02  0.83350295539E+02  0.00000000000E+00 0.  1.
         25    2    1    2    0    0  0.38226044926E+02  0.49204100666E+02  0.50783753448E+02  0.14869330247E+03  0.12509370309E+03 0.  0.
          5    1    3    3  502    0  0.54923097223E+02 -0.19516600033E+02  0.51431671901E+02  0.77846859667E+02  0.41800000000E+01 0.  1.
         -5    1    3    3    0  502 -0.16697052296E+02  0.68720700699E+02 -0.64791845360E+00  0.70846442806E+02  0.41800000000E+01 0.  1.
        -11    1    1    2    0    0 -0.62630910348E+01 -0.10852548055E+02  0.71575257725E+02  0.72663757314E+02  0.00000000000E+00 0. -1.
         11    1    1    2    0    0 -0.31962953892E+02 -0.38351552610E+02 -0.15443749754E+02  0.52258792710E+02  0.00000000000E+00 0.  1.
</event>
<event>
 7    1  0.2394257E-009  0.1191308E+03  0.7561462E-02  0.1244538E+00
         -2   -1    0    0    0  501 -0.00000000000E+00  0.00000000000E+00  0.50708511335E+02  0.50708511335E+02  0.00000000000E+00 0.  1.
          2   -1    0    0  501    0  0.00000000000E+00 -0.00000000000E+00 -0.33951944344E+03  0.33951944344E+03  0.00000000000E+00 0. -1.
         25    2    1    2    0    0 -0.85350547846E+01 -0.57341369224E+02 -0.91017902362E+02  0.16520605349E+03  0.12509157355E+03 0.  0.
          5    1    3    3  502    0 -0.51654761791E+02  0.12334009793E+02 -0.20704506641E+02  0.57153225705E+02  0.41800000000E+01 0. -1.
         -5    1    3    3    0  502  0.43119707007E+02 -0.69675379017E+02 -0.70313395721E+02  0.10805282778E+03  0.41800000000E+01 0. -1.
        -11    1    1    2    0    0  0.20078002687E+02  0.77313057884E+02 -0.17604376247E+03  0.19331798007E+03  0.00000000000E+00 0.  1.
         11    1    1    2    0    0 -0.11542947902E+02 -0.19971688660E+02 -0.21749267267E+02  0.31703921222E+02  0.00000000000E+00 0. -1.
</event>
<event>
 7    1  0.3181763E-009  0.1226350E+03  0.7561462E-02  0.1238812E+00
          2   -1    0    0  501    0  0.00000000000E+00  0.00000000000E+00  0.76104031490E+03  0.76104031490E+03  0.00000000000E+00 0.  1.
         -2   -1    0    0    0  501 -0.00000000000E+00 -0.00000000000E+00 -0.36206927041E+02  0.36206927041E+02  0.00000000000E+00 0. -1.
         25    2    1    2    0    0  0.11271255917E+03  0.33379527120E+02  0.49248394964E+03  0.52154224939E+03  0.12509022115E+03 0.  0.
          5    1    3    3  502    0  0.29778157720E+02  0.31191303003E+02  0.37591521178E+03  0.37840369304E+03  0.41800000000E+01 0. -1.
         -5    1    3    3    0  502  0.82934401453E+02  0.21882241173E+01  0.11656873786E+03  0.14313855635E+03  0.41800000000E+01 0. -1.
        -11    1    1    2    0    0 -0.57362166073E+02 -0.77626374138E+01  0.19674216772E+03  0.20508085526E+03  0.00000000000E+00 0.  1.
         11    1    1    2    0    0 -0.55350393100E+02 -0.25616889706E+02  0.35607270502E+02  0.70624137284E+02  0.00000000000E+00 0. -1.
</event>
<event>
 7    1  0.2394257E-009  0.1877352E+03  0.7561462E-02  0.1160520E+00
         -1   -1    0    0    0  501 -0.00000000000E+00  0.00000000000E+00  0.10911028457E+04  0.10911028457E+04  0.00000000000E+00 0.  1.
          1   -1    0    0  501    0  0.00000000000E+00 -0.00000000000E+00 -0.42256951449E+02  0.42256951449E+02  0.00000000000E+00 0. -1.
         25    2    1    2    0    0 -0.90215468958E+02  0.14478073227E+03  0.73366500307E+03  0.76355222319E+03  0.12508944610E+03 0.  0.
          5    1    3    3  502    0 -0.78268680087E+02  0.21942465988E+02  0.38923288017E+03  0.39765206589E+03  0.41800000000E+01 0.  1.
         -5    1    3    3    0  502 -0.11946788871E+02  0.12283826628E+03  0.34443212290E+03  0.36590015730E+03  0.41800000000E+01 0.  1.
        -11    1    1    2    0    0  0.51870767626E+02 -0.83221541912E+02  0.89520667110E+02  0.13277933353E+03  0.00000000000E+00 0. -1.
         11    1    1    2    0    0  0.38344701332E+02 -0.61559190356E+02  0.22566022410E+03  0.23702824047E+03  0.00000000000E+00 0.  1.
</event>
<event>
 7    1  0.2394257E-009  0.2229026E+03  0.7561462E-02  0.1131737E+00
         -1   -1    0    0    0  501 -0.00000000000E+00  0.00000000000E+00  0.75231566447E+02  0.75231566447E+02  0.00000000000E+00 0.  1.
          1   -1    0    0  501    0  0.00000000000E+00 -0.00000000000E+00 -0.88202973432E+03  0.88202973432E+03  0.00000000000E+00 0. -1.
         25    2    1    2    0    0  0.15822080555E+03 -0.12965377726E+03 -0.20683583686E+03  0.31665759195E+03  0.12508813639E+03 0.  0.
          5    1    3    3  502    0  0.21182947237E+02 -0.84948139021E+02 -0.40617455426E+02  0.96603072736E+02  0.41800000000E+01 0.  1.
         -5    1    3    3    0  502  0.13703785831E+03 -0.44705638235E+02 -0.16621838143E+03  0.22005451921E+03  0.41800000000E+01 0.  1.
        -11    1    1    2    0    0 -0.14551831769E+03  0.87219153701E+02 -0.37891267389E+03  0.41515969939E+03  0.00000000000E+00 0. -1.
         11    1    1    2    0    0 -0.12702487856E+02  0.42434623555E+02 -0.22104965712E+03  0.22544400943E+03  0.00000000000E+00 0.  1.
</event>
<event>
 7    1  0.2477621E-009  0.8361673E+02  0.7561462E-02  0.1319090E+00
          2   -1    0    0  501    0  0.00000000000E+00  0.00000000000E+00  0.30945523227E+03  0.30945523227E+03  0.00000000000E+00 0. -1.
         -2   -1    0    0    0  501 -0.00000000000E+00 -0.00000000000E+00 -0.52219495431E+02  0.52219495431E+02  0.00000000000E+00 0.  1.
         25    2    1    2    0    0  0.16776531692E+02 -0.24405439497E+02  0.22671189875E+03  0.26062093791E+03  0.12509160943E+03 0.  0.
          5    1    3    3  502    0 -0.34937448827E+02 -0.26061097401E+02  0.19485904525E+03  0.19971811646E+03  0.41800000000E+01 0.  1.
         -5    1    3    3    0  502  0.51713980518E+02  0.16556579031E+01  0.31852853497E+02  0.60902821445E+02  0.41800000000E+01 0.  1.
        -11    1    1    2    0    0 -0.39259466871E+02  0.28721873674E+02 -0.14316629999E+02  0.50707175635E+02  0.00000000000E+00 0.  1.
         11    1    1    2    0    0  0.22482935179E+02 -0.43164341765E+01  0.44840468091E+02  0.50346614155E+02  0.00000000000E+00 0. -1.
</event>
<event>
 7    1  0.2394257E-009  0.8899110E+02  0.7561462E-02  0.1305313E+00
          4   -1    0    0  501    0  0.00000000000E+00  0.00000000000E+00  0.26509338109E+03  0.26509338109E+03  0.00000000000E+00 0. -1.
         -4   -1    0    0    0  501 -0.00000000000E+00 -0.00000000000E+00 -0.44950752931E+02  0.44950752931E+02  0.00000000000E+00 0.  1.
         25    2    1    2    0    0  0.94561190669E+01  0.93591281590E+01  0.13670193613E+03  0.18577332998E+03  0.12508916549E+03 0.  0.
          5    1    3    3  502    0  0.52798554480E+02 -0.19791127127E+02  0.11671822558E+03  0.12969191436E+03  0.41800000000E+01 0.  1.
         -5    1    3    3    0  502 -0.43342435414E+02  0.29150255286E+02  0.19983710548E+02  0.56081415621E+02  0.41800000000E+01 0.  1.
        -11    1    1    2    0    0 -0.33750010497E+00  0.29309852373E+02  0.79037788060E+02  0.84298002905E+02  0.00000000000E+00 0. -1.
         11    1    1    2    0    0 -0.91186189619E+01 -0.38668980532E+02  0.44029039730E+01  0.39972801135E+02  0.00000000000E+00 0.  1.
</event>
<event>
 7    1  0.2394257E-009  0.8089185E+02  0.7561462E-02  0.1326539E+00
          1   -1    0    0  501    0  0.00000000000E+00  0.00000000000E+00  0.90301467540E+02  0.90301467540E+02  0.00000000000E+00 0. -1.
         -1   -1    0    0    0  501 -0.00000000000E+00 -0.00000000000E+00 -0.18268004996E+03  0.18268004996E+03  0.00000000000E+00 0.  1.
         25    2    1    2    0    0 -0.36332685776E+02 -0.46050970101E+02 -0.15252835234E+02  0.13899832892E+03  0.12508849091E+03 0.  0.
          5    1    3    3  502    0 -0.17798252727E+02 -0.18405767226E+02  0.55186108949E+02  0.60979743262E+02  0.41800000000E+01 0. -1.
         -5    1    3    3    0  502 -0.18534433049E+02 -0.27645202875E+02 -0.70438944183E+02  0.78018585659E+02  0.41800000000E+01 0. -1.
        -11    1    1    2    0    0  0.51306326010E+02  0.61962637857E+02 -0.78086919961E+02  0.11211277647E+03  0.00000000000E+00 0.  1.
         11    1    1    2    0    0 -0.14973640235E+02 -0.15911667756E+02  0.96117277732E+00  0.21870412108E+02  0.00000000000E+00 0. -1.
</event>
<event>
 7    1  0.2394257E-009  0.3298629E+03  0.7561462E-02  0.1071198E+00
          1   -1    0    0  501    0  0.00000000000E+00  0.00000000000E+00  0.15586253864E+04  0.15586253864E+04  0.00000000000E+00 0. -1.
         -1   -1    0    0    0  501 -0.00000000000E+00 -0.00000000000E+00 -0.75573747448E+02  0.75573747448E+02  0.00000000000E+00 0.  1.
         25    2    1    2    0    0 -0.32693605319E+03 -0.13892445459E+02  0.78188347261E+03  0.85677661304E+03  0.12507684435E+03 0.  0.
          5    1    3    3  502    0 -0.13805334416E+03 -0.33771184359E+02  0.47525464311E+03  0.49606820794E+03  0.41800000000E+01 0.  1.
         -5    1    3    3    0  502 -0.18888270903E+03  0.19878738900E+02  0.30662882950E+03  0.36070840510E+03  0.41800000000E+01 0.  1.
        -11    1    1    2    0    0  0.30634070050E+03  0.16631623246E+02  0.59714170250E+03  0.67134152899E+03  0.00000000000E+00 0.  1.
         11    1    1    2    0    0  0.20595352697E+02 -0.27391777874E+01  0.10402646388E+03  0.10608099187E+03  0.00000000000E+00 0. -1.
</event>
<event>
 7    1  0.2394257E-009  0.7150792E+02  0.7561462E-02  0.1355039E+00
         -1   -1    0    0    0  501 -0.00000000000E+00  0.00000000000E+00  0.63001764647E+03  0.63001764647E+03  0.00000000000E+00 0.  1.
          1   -1    0    0  501    0  0.00000000000E+00 -0.00000000000E+00 -0.11391247450E+02  0.11391247450E+02  0.00000000000E+00 0. -1.
         25    2    1    2    0    0 -0.18858153418E+02  0.43723264028E+00  0.41510679236E+03  0.43395633180E+03  0.12509447518E+03 0.  0.
          5    1    3    3  502    0 -0.27397117415E+02 -0.46937340032E+02  0.89562981874E+02  0.10484615422E+03  0.41800000000E+01 0. -1.
         -5    1    3    3    0  502  0.85389639965E+01  0.47374572672E+02  0.32554381049E+03  0.32911017758E+03  0.41800000000E+01 0. -1.
        -11    1    1    2    0    0  0.72207287082E+01 -0.17843951706E+02  0.94604558010E+02  0.96543088473E+02  0.00000000000E+00 0. -1.
         11    1    1    2    0    0  0.11637424710E+02  0.17406719066E+02  0.10891504865E+03  0.11090947364E+03  0.00000000000E+00 0.  1.
</event>
<event>
 7    1  0.2394257E-009  0.1170233E+03  0.7561462E-02  0.1248090E+00
          2   -1    0    0  501    0  0.00000000000E+00  0.00000000000E+00  0.87830375386E+03  0.87830375386E+03  0.00000000000E+00 0.  1.
         -2   -1    0    0    0  501 -0.00000000000E+00 -0.00000000000E+00 -0.18532556572E+02  0.18532556572E+02  0.00000000000E+00 0. -1.
         25    2    1    2    0    0 -0.10558073520E+02 -0.62772183841E+02  0.41543132975E+03  0.43850006128E+03  0.12508914430E+03 0.  0.
          5    1    3    3  502    0 -0.32433585302E+02  0.28907796239E+02  0.96610524035E+02  0.10601256479E+03  0.41800000000E+01 0.  1.
         -5    1    3    3    0  502  0.21875511782E+02 -0.91679980080E+02  0.31882080572E+03  0.33248749649E+03  0.41800000000E+01 0.  1.
        -11    1    1    2    0    0 -0.42912784570E+01 -0.15655034083E+02  0.16619106742E+02  0.23231226223E+02  0.00000000000E+00 0. -1.
         11    1    1    2    0    0  0.14849351977E+02  0.78427217924E+02  0.42772076080E+03  0.43510502293E+03  0.00000000000E+00 0.  1.
</event>
<event>
 7    1  0.2394257E-009  0.8662501E+02  0.7561462E-02  0.1311237E+00
          1   -1    0    0  501    0  0.00000000000E+00  0.00000000000E+00  0.11000833329E+04  0.11000833329E+04  0.00000000000E+00 0. -1.
         -1   -1    0    0    0  501 -0.00000000000E+00 -0.00000000000E+00 -0.13422997069E+02  0.13422997069E+02  0.00000000000E+00 0.  1.
         25    2    1    2    0    0 -0.16455577253E+02 -0.46666589241E+02  0.54015589009E+03  0.55665485786E+03  0.12509072151E+03 0.  0.
          5    1    3    3  502    0 -0.24478320648E+02 -0.51327274911E+02  0.91027222038E+02  0.10741091604E+03  0.41800000000E+01 0. -1.
         -5    1    3    3    0  502  0.80227433951E+01  0.46606856702E+01  0.44912866805E+03  0.44924394183E+03  0.41800000000E+01 0. -1.
        -11    1    1    2    0    0 -0.30369335709E+02  0.50654060836E+02  0.27023822153E+03  0.27661675077E+03  0.00000000000E+00 0.  1.
         11    1    1    2    0    0  0.46824912962E+02 -0.39874715955E+01  0.27626622421E+03  0.28023472134E+03  0.00000000000E+00 0. -1.
</event>
<event>
 7    1  0.2394257E-009  0.2092335E+03  0.7561462E-02  0.1142174E+00
         -1   -1    0    0    0  501 -0.00000000000E+00  0.00000000000E+00  0.76060137815E+02  0.76060137815E+02  0.00000000000E+00 0.  1.
          1   -1    0    0  501    0  0.00000000000E+00 -0.00000000000E+00 -0.74863380736E+03  0.74863380736E+03  0.00000000000E+00 0. -1.
         25    2    1    2    0    0 -0.19649974215E+03  0.61419235672E+02 -0.43486065989E+03  0.49712635463E+03  0.12508536192E+03 0.  0.
          5    1    3    3  502    0 -0.52873642239E+02  0.35868877129E+02 -0.26757001456E+03  0.27512430551E+03  0.41800000000E+01 0.  1.
         -5    1    3    3    0  502 -0.14362609991E+03  0.25550358543E+02 -0.16729064533E+03  0.22200204912E+03  0.41800000000E+01 0.  1.
        -11    1    1    2    0    0  0.79940218947E+02 -0.81894079614E+01 -0.15631599529E+03  0.17576175748E+03  0.00000000000E+00 0. -1.
         11    1    1    2    0    0  0.11655952320E+03 -0.53229827711E+02 -0.81397014358E+02  0.15180583307E+03  0.00000000000E+00 0.  1.
</event>
<event>
 7    1  0.2394257E-009  0.9403248E+02  0.7561462E-02  0.1293370E+00
          2   -1    0    0  501    0  0.00000000000E+00  0.00000000000E+00  0.82433481220E+03  0.82433481220E+03  0.00000000000E+00 0. -1.
         -2   -1    0    0    0  501 -0.00000000000E+00 -0.00000000000E+00 -0.31535010141E+02  0.31535010141E+02  0.00000000000E+00 0.  1.
         25    2    1    2    0    0  0.68714724171E+02  0.69704009138E+01  0.68670397955E+03  0.70141319772E+03  0.12509124107E+03 0.  0.
          5    1    3    3  502    0  0.85923401024E+02  0.16537923401E+02  0.26248152663E+03  0.27671349439E+03  0.41800000000E+01 0.  1.
         -5    1    3    3    0  502 -0.17208676853E+02 -0.95675224872E+01  0.42422245292E+03  0.42469970333E+03  0.41800000000E+01 0.  1.
        -11    1    1    2    0    0 -0.28499734678E+02 -0.23419103074E+02  0.10467509248E+03  0.11098452258E+03  0.00000000000E+00 0. -1.
         11    1    1    2    0    0 -0.40214989493E+02  0.16448702160E+02  0.14207300254E+01  0.43472102048E+02  0.00000000000E+00 0.  1.
</event>
<event>
 7    1  0.2394257E-009  0.1099311E+03  0.7561462E-02  0.1260698E+00
          2   -1    0    0  501    0  0.00000000000E+00  0.00000000000E+00  0.43136323426E+03  0.43136323426E+03  0.00000000000E+00 0. -1.
         -2   -1    0    0    0  501 -0.00000000000E+00 -0.00000000000E+00 -0.33256097416E+02  0.33256097416E+02  0.00000000000E+00 0.  1.
         25    2    1    2    0    0 -0.55610260704E+01 -0.48525130055E+02  0.24378592973E+03  0.27832273405E+03  0.12508537682E+03 0.  0.
          5    1    3    3  502    0 -0.63593927991E+02 -0.34773405865E+02  0.11016295874E+03  0.13193455693E+03  0.41800000000E+01 0.  1.
         -5    1    3    3    0  502  0.58032901921E+02 -0.13751724190E+02  0.13362297099E+03  0.14638817712E+03  0.41800000000E+01 0.  1.
        -11    1    1    2    0    0 -0.39706747876E+01 -0.18934111082E+02  0.20194691491E+01  0.19451094478E+02  0.00000000000E+00 0.  1.
         11    1    1    2    0    0  0.95317008580E+01  0.67459241138E+02  0.15230173796E+03  0.16684550315E+03  0.00000000000E+00 0. -1.
</event>
<event>
 7    1  0.2394257E-009  0.1799245E+03  0.7561462E-02  0.1167876E+00
         -2   -1    0    0    0  501 -0.00000000000E+00  0.00000000000E+00  0.70233736520E+02  0.70233736520E+02  0.00000000000E+00 0.  1.
          2   -1    0    0  501    0  0.00000000000E+00 -0.00000000000E+00 -0.73078421027E+03  0.73078421027E+03  0.00000000000E+00 0. -1.
         25    2    1    2    0    0 -0.12729985569E+03 -0.70313134527E+02 -0.10332276036E+03  0.21787959824E+03  0.12508691529E+03 0.  0.
          5    1    3    3  502    0 -0.11328822512E+03 -0.10467884560E+03 -0.79466868142E+02  0.17356364308E+03  0.41800000000E+01 0. -1.
         -5    1    3    3    0  502 -0.14011630572E+02  0.34365711073E+02 -0.23855892214E+02  0.44315955165E+02  0.41800000000E+01 0. -1.
        -11    1    1    2    0    0  0.47393934388E+02  0.74372839694E+02 -0.35165076009E+03  0.36254070306E+03  0.00000000000E+00 0. -1.
         11    1    1    2    0    0  0.79905921304E+02 -0.40597051672E+01 -0.20557695330E+03  0.22059764549E+03  0.00000000000E+00 0.  1.
</event>
<event>
 7    1  0.2394257E-009  0.9992501E+02  0.7561462E-02  0.1280454E+00
          4   -1    0    0  501    0  0.00000000000E+00  0.00000000000E+00  0.34873186467E+03  0.34873186467E+03  0.00000000000E+00 0. -1.
         -4   -1    0    0    0  501 -0.00000000000E+00 -0.00000000000E+00 -0.38920378091E+02  0.38920378091E+02  0.00000000000E+00 0.  1.
         25    2    1    2    0    0 -0.12524904944E+01  0.21559041455E+02  0.23798489070E+03  0.26972430296E+03  0.12509208770E+03 0.  0.
          5    1    3    3  502    0  0.59675598972E+02  0.26673116111E+02  0.11620340550E+03  0.13339166423E+03  0.41800000000E+01 0.  1.
         -5    1    3    3    0  502 -0.60928089467E+02 -0.51140746568E+01  0.12178148520E+03  0.13633263873E+03  0.41800000000E+01 0.  1.
        -11    1    1    2    0    0 -0.28465491019E+02 -0.30804803130E+02  0.75721731627E+02  0.86562120557E+02  0.00000000000E+00 0. -1.
         11    1    1    2    0    0  0.29717981513E+02  0.92457616753E+01 -0.38951357519E+01  0.31365819242E+02  0.00000000000E+00 0.  1.
</event>
<event>
 7    1  0.2394257E-009  0.1165089E+03  0.7561462E-02  0.1248970E+00
          2   -1    0    0  501    0  0.00000000000E+00  0.00000000000E+00  0.15647750236E+03  0.15647750236E+03  0.00000000000E+00 0. -1.
         -2   -1    0    0    0  501 -0.00000000000E+00 -0.00000000000E+00 -0.12420782206E+03  0.12420782206E+03  0.00000000000E+00 0.  1.
         25    2    1    2    0    0  0.11922650873E+02  0.43807409494E+02 -0.11541576678E+01  0.13307852235E+03  0.12508925734E+03 0.  0.
          5    1    3    3  502    0 -0.23839602918E+02  0.74412333771E+02 -0.22215695660E+02  0.81342065490E+02  0.41800000000E+01 0. -1.
         -5    1    3    3    0  502  0.35762253791E+02 -0.30604924276E+02  0.21061537992E+02  0.51736456863E+02  0.41800000000E+01 0. -1.
        -11    1    1    2    0    0 -0.16431022774E+02 -0.74602013585E+02 -0.25861296404E+02  0.80648903229E+02  0.00000000000E+00 0.  1.
         11    1    1    2    0    0  0.45083719013E+01  0.30794604091E+02  0.59285134379E+02  0.66957898837E+02  0.00000000000E+00 0. -1.
</event>
<event>
 7    1  0.2394257E-009  0.9622156E+02  0.7561462E-02  0.1288448E+00
          1   -1    0    0  501    0  0.00000000000E+00  0.00000000000E+00  0.13174980379E+04  0.13174980379E+04  0.00000000000E+00 0. -1.
         -1   -1    0    0    0  501 -0.00000000000E+00 -0.00000000000E+00 -0.12525425540E+02  0.12525425540E+02  0.00000000000E+00 0.  1.
         25    2    1    2    0    0 -0.33805733804E+02 -0.88492067040E+02  0.88745159523E+03  0.90121675470E+03  0.12509049329E+03 0.  0.
          5    1    3    3  502    0 -0.96268326008E+01 -0.10713945482E+02  0.64956289481E+03  0.64973601659E+03  0.41800000000E+01 0.  1.
         -5    1    3    3    0  502 -0.24178901203E+02 -0.77778121558E+02  0.23788870042E+03  0.25148073812E+03  0.41800000000E+01 0.  1.
        -11    1    1    2    0    0  0.17741357061E+02  0.26809330973E+02  0.10333420729E+03  0.10821947317E+03  0.00000000000E+00 0.  1.
         11    1    1    2    0    0  0.16064376743E+02  0.61682736067E+02  0.31418680982E+03  0.32058723554E+03  0.00000000000E+00 0. -1.
</event>
<event>
 7    1  0.2394257E-009  0.9424062E+02  0.7561462E-02  0.1292896E+00
          1   -1    0    0  501    0  0.00000000000E+00  0.00000000000E+00  0.35322175388E+02  0.35322175388E+02  0.00000000000E+00 0.  1.
         -1   -1    0    0    0  501 -0.00000000000E+00 -0.00000000000E+00 -0.38904245809E+03  0.38904245809E+03  0.00000000000E+00 0. -1.
         25    2    1    2    0    0  0.12458549335E+02  0.25660663803E+02 -0.26492527203E+03  0.29434994849E+03  0.12507120890E+03 0.  0.
          5    1    3    3  502    0 -0.44024349956E+02 -0.10035724149E+01 -0.36035632437E+02  0.57054270232E+02  0.41800000000E+01 0. -1.
         -5    1    3    3    0  502  0.56482899291E+02  0.26664236218E+02 -0.22888963960E+03  0.23729567826E+03  0.41800000000E+01 0. -1.
        -11    1    1    2    0    0  0.24236421007E+02  0.13695438078E+02 -0.20216204202E+01  0.27911576030E+02  0.00000000000E+00 0.  1.
         11    1    1    2    0    0 -0.36694970342E+02 -0.39356101881E+02 -0.86773390245E+02  0.10210310896E+03  0.00000000000E+00 0. -1.
</event>
<event>
 7    1  0.2394257E-009  0.1264370E+03  0.7561462E-02  0.1232840E+00
          2   -1    0    0  501    0  0.00000000000E+00  0.00000000000E+00  0.10907994000E+04  0.10907994000E+04  0.00000000000E+00 0. -1.
         -2   -1    0    0    0  501 -0.00000000000E+00 -0.00000000000E+00 -0.16411535575E+02  0.16411535575E+02  0.00000000000E+00 0.  1.
         25    2    1    2    0    0  0.43007684423E+01  0.76022663787E+02  0.51293990005E+03  0.53343560159E+03  0.12509299726E+03 0.  0.
          5    1    3    3  502    0 -0.23914716246E+02 -0.21831846145E+02  0.52308410338E+02  0.61661863022E+02  0.41800000000E+01 0. -1.
         -5    1    3    3    0  502  0.28215484688E+02  0.97854509932E+02  0.46063148971E+03  0.47177373857E+03  0.41800000000E+01 0. -1.
        -11    1    1    2    0    0 -0.15771522366E+02 -0.94903511318E+02  0.45607975084E+03  0.46611603330E+03  0.00000000000E+00 0. -1.
         11    1    1    2    0    0  0.11470753924E+02  0.18880847532E+02  0.10536821357E+03  0.10765930072E+03  0.00000000000E+00 0.  1.
</event>
<event>
 7    1  0.2394257E-009  0.2010231E+03  0.7561462E-02  0.1148879E+00
         -2   -1    0    0    0  501 -0.00000000000E+00  0.00000000000E+00  0.15771331286E+04  0.15771331286E+04  0.00000000000E+00 0.  1.
          2   -1    0    0  501    0  0.00000000000E+00 -0.00000000000E+00 -0.27093554487E+02  0.27093554487E+02  0.00000000000E+00 0. -1.
         25    2    1    2    0    0  0.18006178864E+02  0.17453080322E+03  0.77276144300E+03  0.80224239385E+03  0.12508951576E+03 0.  0.
          5    1    3    3  502    0  0.55181335808E+02  0.15949749443E+03  0.53249760045E+03  0.55861936722E+03  0.41800000000E+01 0. -1.
         -5    1    3    3    0  502 -0.37175156944E+02  0.15033308793E+02  0.24026384255E+03  0.24362302663E+03  0.41800000000E+01 0. -1.
        -11    1    1    2    0    0 -0.22184299754E+02 -0.42693945299E+01  0.47535195825E+02  0.52630463871E+02  0.00000000000E+00 0.  1.
         11    1    1    2    0    0  0.41781208895E+01 -0.17026140869E+03  0.72974293525E+03  0.74935382532E+03  0.00000000000E+00 0. -1.
</event>
<event>
 7    1  0.2394257E-009  0.1121909E+03  0.7561462E-02  0.1256566E+00
          1   -1    0    0  501    0  0.00000000000E+00  0.00000000000E+00  0.21665601476E+03  0.21665601476E+03  0.00000000000E+00 0. -1.
         -1   -1    0    0    0  501 -0.00000000000E+00 -0.00000000000E+00 -0.66411819132E+02  0.66411819132E+02  0.00000000000E+00 0.  1.
         25    2    1    2    0    0  0.40761611938E+02  0.50476237585E+01  0.10432633263E+03  0.16797584071E+03  0.12507962212E+03 0.  0.
          5    1    3    3  502    0  0.62694136186E+02 -0.44597081773E+02  0.65252104839E+02  0.10096912400E+03  0.41800000000E+01 0. -1.
         -5    1    3    3    0  502 -0.21932524248E+02  0.49644705531E+02  0.39074227790E+02  0.67006716712E+02  0.41800000000E+01 0. -1.
        -11    1    1    2    0    0 -0.58805803833E+02 -0.26807519854E+02  0.55557386516E+02  0.85225517784E+02  0.00000000000E+00 0. -1.
         11    1    1    2    0    0  0.18044191895E+02  0.21759896096E+02 -0.96395235162E+01  0.29866475401E+02  0.00000000000E+00 0.  1.
</event>
<event>
 7    1  0.2394257E-009  0.1379951E+03  0.7561462E-02  0.1216052E+00
          1   -1    0    0  501    0  0.00000000000E+00  0.00000000000E+00  0.22347982104E+03  0.22347982104E+03  0.00000000000E+00 0. -1.
         -1   -1    0    0    0  501 -0.00000000000E+00 -0.00000000000E+00 -0.23170056660E+03  0.23170056660E+03  0.00000000000E+00 0.  1.
         25    2    1    2    0    0  0.19897159126E+02 -0.10779047138E+03  0.16246579103E+03  0.23250188725E+03  0.12508921480E+03 0.  0.
          5    1    3    3  502    0  0.72100554745E+02 -0.51224219787E+02  0.76260900783E+02  0.11685721234E+03  0.41800000000E+01 0.  1.
         -5    1    3    3    0  502 -0.52203395619E+02 -0.56566251597E+02  0.86204890246E+02  0.11564467492E+03  0.41800000000E+01 0.  1.
        -11    1    1    2    0    0 -0.54130480870E+01  0.64168439477E+02 -0.23611672715E+02  0.68588634648E+02  0.00000000000E+00 0. -1.
         11    1    1    2    0    0 -0.14484111039E+02  0.43622031907E+02 -0.14707486387E+03  0.15408986574E+03  0.00000000000E+00 0.  1.
</event>
<event>
 7    1  0.2394257E-009  0.1001138E+03  0.7561462E-02  0.1280057E+00
          2   -1    0    0  501    0  0.00000000000E+00  0.00000000000E+00  0.33585019666E+03  0.33585019666E+03  0.00000000000E+00 0. -1.
         -2   -1    0    0    0  501 -0.00000000000E+00 -0.00000000000E+00 -0.47206877740E+02  0.47206877740E+02  0.00000000000E+00 0.  1.
         25    2    1    2    0    0 -0.31737517175E+02  0.40909571717E+02  0.21403289820E+03  0.25325588416E+03  0.12509036052E+03 0.  0.
          5    1    3    3  502    0 -0.13715481312E+02  0.82763345584E+02  0.17063932939E+03  0.19019237349E+03  0.41800000000E+01 0.  1.
         -5    1    3    3    0  502 -0.18022035863E+02 -0.41853773868E+02  0.43393568810E+02  0.63063510667E+02  0.41800000000E+01 0.  1.
        -11    1    1    2    0    0  0.14787981210E+02 -0.49363045473E+02  0.91115789065E+02  0.10467799035E+03  0.00000000000E+00 0. -1.
         11    1    1    2    0    0  0.16949535966E+02  0.84534737569E+01 -0.16505368351E+02  0.25123199884E+02  0.00000000000E+00 0.  1.
</event>
<event>
 7    1  0.2739666E-009  0.1554002E+03  0.7561462E-02  0.1193990E+00
         -1   -1    0    0    0  501 -0.00000000000E+00  0.00000000000E+00  0.34049391884E+03  0.34049391884E+03  0.00000000000E+00 0.  1.
          1   -1    0    0  501    0  0.00000000000E+00 -0.00000000000E+00 -0.10428912623E+03  0.10428912623E+03  0.00000000000E+00 0. -1.
         25    2    1    2    0    0 -0.11696511245E+02 -0.11960448164E+03  0.11416187852E+02  0.17383623154E+03  0.12508663256E+03 0.  0.
          5    1    3    3  502    0 -0.46478928807E+02 -0.44370524588E+00 -0.10187464807E+02  0.47767609702E+02  0.41800000000E+01 0.  1.
         -5    1    3    3    0  502  0.34782417562E+02 -0.11916077640E+03  0.21603652659E+02  0.12606862184E+03  0.41800000000E+01 0.  1.
        -11    1    1    2    0    0 -0.26647693129E+02  0.20365222132E+02  0.10742776457E+03  0.11254139870E+03  0.00000000000E+00 0.  1.
         11    1    1    2    0    0  0.38344204374E+02  0.99239259512E+02  0.11736084019E+03  0.15840541483E+03  0.00000000000E+00 0. -1.
</event>
<event>
 7    1  0.2394257E-009  0.1148555E+03  0.7561462E-02  0.1251834E+00
         -2   -1    0    0    0  501 -0.00000000000E+00  0.00000000000E+00  0.15363950740E+02  0.15363950740E+02  0.00000000000E+00 0.  1.
          2   -1    0    0  501    0  0.00000000000E+00 -0.00000000000E+00 -0.92986701422E+03  0.92986701422E+03  0.00000000000E+00 0. -1.
         25    2    1    2    0    0 -0.81510985919E+01 -0.50228373261E+02 -0.44866703790E+03  0.46855236266E+03  0.12509946350E+03 0.  0.
          5    1    3    3  502    0  0.55375510024E+02 -0.22635921610E+02 -0.27651469869E+03  0.28294289715E+03  0.41800000000E+01 0.  1.
         -5    1    3    3    0  502 -0.63526608616E+02 -0.27592451651E+02 -0.17215233921E+03  0.18560946551E+03  0.41800000000E+01 0.  1.
        -11    1    1    2    0    0  0.10966792479E+02  0.74811812596E+02 -0.37405817269E+03  0.38162362924E+03  0.00000000000E+00 0.  1.
         11    1    1    2    0    0 -0.28156938876E+01 -0.24583439335E+02 -0.91777852899E+02  0.95054973065E+02  0.00000000000E+00 0. -1.
</event>
<event>
 7    1  0.2394257E-009  0.1064006E+03  0.7561462E-02  0.1267384E+00
          2   -1    0    0  501    0  0.00000000000E+00  0.00000000000E+00  0.34692105542E+02  0.34692105542E+02  0.00000000000E+00 0. -1.
         -2   -1    0    0    0  501 -0.00000000000E+00 -0.00000000000E+00 -0.48578333247E+03  0.48578333247E+03  0.00000000000E+00 0.  1.
         25    2    1    2    0    0 -0.43761306015E+02  0.54774808232E+02 -0.22566670291E+03  0.26736462029E+03  0.12507217062E+03 0.  0.
          5    1    3    3  502    0 -0.53784923111E+01  0.59247659213E+02 -0.22017693933E+03  0.22811087286E+03  0.41800000000E+01 0.  1.
         -5    1    3    3    0  502 -0.38382813704E+02 -0.44728509806E+01 -0.54897635746E+01  0.39253747437E+02  0.41800000000E+01 0.  1.
        -11    1    1    2    0    0 -0.68779510892E+01 -0.62668245976E+02 -0.10928578836E+03  0.12616655183E+03  0.00000000000E+00 0. -1.
         11    1    1    2    0    0  0.50639257104E+02  0.78934377441E+01 -0.11613873567E+03  0.12694426589E+03  0.00000000000E+00 0.  1.
</event>
<event>
 7    1  0.2394257E-009  0.9058523E+02  0.7561462E-02  0.1301441E+00
          3   -1    0    0  501    0  0.00000000000E+00  0.00000000000E+00  0.33622378319E+02  0.33622378319E+02  0.00000000000E+00 0. -1.
         -3   -1    0    0    0  501 -0.00000000000E+00 -0.00000000000E+00 -0.42532654373E+03  0.42532654373E+03  0.00000000000E+00 0.  1.
         25    2    1    2    0    0 -0.47931526559E+01  0.10766888452E+02 -0.12799812644E+03  0.17936240915E+03  0.12509377780E+03 0.  0.
          5    1    3    3  502    0  0.49207398642E+02  0.14148511439E+02 -0.14216885532E+02  0.53302351649E+02  0.41800000000E+01 0. -1.
         -5    1    3    3    0  502 -0.54000551298E+02 -0.33816229870E+01 -0.11378124091E+03  0.12606005750E+03  0.41800000000E+01 0. -1.
        -11    1    1    2    0    0  0.22289643693E+02  0.26340674196E+02 -0.20549066140E+03  0.20836763485E+03  0.00000000000E+00 0.  1.
         11    1    1    2    0    0 -0.17496491037E+02 -0.37107562647E+02 -0.58215377579E+02  0.71218878051E+02  0.00000000000E+00 0. -1.
</event>
<event>
 7    1  0.2394257E-009  0.8944881E+02  0.7561462E-02  0.1304192E+00
          2   -1    0    0  501    0  0.00000000000E+00  0.00000000000E+00  0.13245424514E+03  0.13245424514E+03  0.00000000000E+00 0. -1.
         -2   -1    0    0    0  501 -0.00000000000E+00 -0.00000000000E+00 -0.17880596421E+03  0.17880596421E+03  0.00000000000E+00 0.  1.
         25    2    1    2    0    0 -0.38421038229E+01 -0.45037005957E+02 -0.12316417060E+03  0.18127284127E+03  0.12508931367E+03 0.  0.
          5    1    3    3  502    0 -0.60272076140E+01  0.40677701350E+02 -0.66880669918E+02  0.78622509674E+02  0.41800000000E+01 0. -1.
         -5    1    3    3    0  502  0.21851037911E+01 -0.85714707307E+02 -0.56283500685E+02  0.10265033160E+03  0.41800000000E+01 0. -1.
        -11    1    1    2    0    0  0.14619230923E+02  0.24643807049E+02  0.95874195661E+02  0.10006448187E+03  0.00000000000E+00 0. -1.
         11    1    1    2    0    0 -0.10777127100E+02  0.20393198908E+02 -0.19061744130E+02  0.29922886216E+02  0.00000000000E+00 0.  1.
</event>
<event>
 7    1  0.2394257E-009  0.1137900E+03  0.7561462E-02  0.1253708E+00
          4   -1    0    0  501    0  0.00000000000E+00  0.00000000000E+00  0.47214804398E+02  0.47214804398E+02  0.00000000000E+00 0. -1.
         -4   -1    0    0    0  501 -0.00000000000E+00 -0.00000000000E+00 -0.46885104013E+03  0.46885104013E+03  0.00000000000E+00 0.  1.
         25    2    1    2    0    0  0.99525747490E+02 -0.14542369285E+02 -0.25445160657E+03  0.30084788027E+03  0.12508785734E+03 0.  0.
          5    1    3    3  502    0  0.82085086128E+02  0.20384853898E+02 -0.63351999884E+02  0.10575656917E+03  0.41800000000E+01 0.  1.
         -5    1    3    3    0  502  0.17440661363E+02 -0.34927223183E+02 -0.19109960669E+03  0.19509131110E+03  0.41800000000E+01 0.  1.
        -11    1    1    2    0    0 -0.33744993927E+02  0.17048830498E+02 -0.13822275342E+03  0.14330009351E+03  0.00000000000E+00 0.  1.
         11    1    1    2    0    0 -0.65780753564E+02 -0.25064612123E+01 -0.28961875733E+02  0.71917870750E+02  0.00000000000E+00 0. -1.
</event>
<event>
 7    1  0.2394257E-009  0.1576528E+03  0.7561462E-02  0.1191372E+00
         -2   -1    0    0    0  501 -0.00000000000E+00  0.00000000000E+00  0.23352769802E+03  0.23352769802E+03  0.00000000000E+00 0.  1.
          2   -1    0    0  501    0  0.00000000000E+00 -0.00000000000E+00 -0.15467383729E+03  0.15467383729E+03  0.00000000000E+00 0. -1.
         25    2    1    2    0    0  0.16537872433E+02 -0.13130896278E+03 -0.41791881517E+02  0.18684077598E+03  0.12508944511E+03 0.  0.
          5    1    3    3  502    0 -0.20080284095E+02 -0.14215583029E+03 -0.31006486874E+02  0.14693662758E+03  0.41800000000E+01 0.  1.
         -5    1    3    3    0  502  0.36618156528E+02  0.10846867510E+02 -0.10785394643E+02  0.39904148405E+02  0.41800000000E+01 0.  1.
        -11    1    1    2    0    0 -0.10807820758E+02  0.31828210298E+02 -0.11793266557E+02  0.35621974909E+02  0.00000000000E+00 0. -1.
         11    1    1    2    0    0 -0.57300516748E+01  0.99480752484E+02  0.13243900881E+03  0.16573878442E+03  0.00000000000E+00 0.  1.
</event>
<event>
 7    1  0.2394257E-009  0.9023255E+02  0.7561462E-02  0.1302290E+00
          4   -1    0    0  501    0  0.00000000000E+00  0.00000000000E+00  0.24647823878E+02  0.24647823878E+02  0.00000000000E+00 0. -1.
         -4   -1    0    0    0  501 -0.00000000000E+00 -0.00000000000E+00 -0.73014546084E+03  0.73014546084E+03  0.00000000000E+00 0.  1.
         25    2    1    2    0    0 -0.64982825430E+02  0.27980978583E+02 -0.52962869253E+03  0.54877847379E+03  0.12508220732E+03 0.  0.
          5    1    3    3  502    0 -0.12012104085E+02  0.15475625906E+02 -0.45936912564E+03  0.45980566725E+03  0.41800000000E+01 0.  1.
         -5    1    3    3    0  502 -0.52970721345E+02  0.12505352677E+02 -0.70259566889E+02  0.88972806547E+02  0.41800000000E+01 0.  1.
        -11    1    1    2    0    0  0.20816282480E+02  0.27779565362E+02 -0.42622426596E+02  0.54969929207E+02  0.00000000000E+00 0.  1.
         11    1    1    2    0    0  0.44166542950E+02 -0.55760543946E+02 -0.13324651784E+03  0.15104488172E+03  0.00000000000E+00 0. -1.
</event>
<event>
 7    1  0.2394257E-009  0.1107892E+03  0.7561462E-02  0.1259115E+00
          2   -1    0    0  501    0  0.00000000000E+00  0.00000000000E+00  0.31750390617E+03  0.31750390617E+03  0.00000000000E+00 0. -1.
         -2   -1    0    0    0  501 -0.00000000000E+00 -0.00000000000E+00 -0.46818940917E+02  0.46818940917E+02  0.00000000000E+00 0.  1.
         25    2    1    2    0    0 -0.16753484747E+02 -0.37840535981E+02  0.21390171472E+03  0.25122561632E+03  0.12509109210E+03 0.  0.
          5    1    3    3  502    0 -0.50426498101E+02  0.27306844766E+02  0.10785661755E+03  0.12222527493E+03  0.41800000000E+01 0.  1.
         -5    1    3    3    0  502  0.33673013353E+02 -0.65147380747E+02  0.10604509716E+03  0.12900034139E+03  0.41800000000E+01 0.  1.
        -11    1    1    2    0    0 -0.31702714178E+02  0.50107542266E+01  0.80351435584E+00  0.32106313701E+02  0.00000000000E+00 0.  1.
         11    1    1    2    0    0  0.48456198925E+02  0.32829781754E+02  0.55979736182E+02  0.80990917067E+02  0.00000000000E+00 0. -1.
</event>
<event>
 7    1  0.2394257E-009  0.8364077E+02  0.7561462E-02  0.1319026E+00
         -1   -1    0    0    0  501 -0.00000000000E+00  0.00000000000E+00  0.23870792144E+03  0.23870792144E+03  0.00000000000E+00 0.  1.
          1   -1    0    0  501    0  0.00000000000E+00 -0.00000000000E+00 -0.51167650461E+02  0.51167650461E+02  0.00000000000E+00 0. -1.
         25    2    1    2    0    0 -0.69331996862E+01 -0.18784436151E+02  0.72494468171E+02  0.14595840063E+03  0.12508989767E+03 0.  0.
          5    1    3    3  502    0 -0.48415517394E+02  0.37534371227E+01 -0.10985478746E+02  0.49963023908E+02  0.41800000000E+01 0. -1.
         -5    1    3    3    0  502  0.41482317707E+02 -0.22537873274E+02  0.83479946917E+02  0.95995376718E+02  0.41800000000E+01 0. -1.
        -11    1    1    2    0    0 -0.29302528422E+02 -0.20049708549E+01  0.10261282382E+02  0.31111926912E+02  0.00000000000E+00 0.  1.
         11    1    1    2    0    0  0.36235728108E+02  0.20789407006E+02  0.10478452043E+03  0.11280524437E+03  0.00000000000E+00 0. -1.
</event>
<event>
 7    1  0.2394257E-009  0.1403957E+03  0.7561462E-02  0.1212798E+00
         -2   -1    0    0    0  501 -0.00000000000E+00  0.00000000000E+00  0.29668225273E+02  0.29668225273E+02  0.00000000000E+00 0.  1.
          2   -1    0    0  501    0  0.00000000000E+00 -0.00000000000E+00 -0.10879256439E+04  0.10879256439E+04  0.00000000000E+00 0. -1.
         25    2    1    2    0    0 -0.13155412150E+03  0.48870656933E+01 -0.72895662971E+03  0.75123641072E+03  0.12509199217E+03 0.  0.
          5    1    3    3  502    0 -0.48380621495E+02 -0.23397332625E+02 -0.80738030667E+02  0.97078430695E+02  0.41800000000E+01 0. -1.
         -5    1    3    3    0  502 -0.83173500007E+02  0.28284398319E+02 -0.64821859904E+03  0.65415798003E+03  0.41800000000E+01 0. -1.
        -11    1    1    2    0    0  0.39124078539E+02  0.18966225931E+02 -0.20538577157E+03  0.20993743452E+03  0.00000000000E+00 0. -1.
         11    1    1    2    0    0  0.92430042963E+02 -0.23853291624E+02 -0.12391501736E+03  0.15642002394E+03  0.00000000000E+00 0.  1.
</event>
<event>
 7    1  0.2394257E-009  0.9239324E+02  0.7561462E-02  0.1297157E+00
          1   -1    0    0  501    0  0.00000000000E+00  0.00000000000E+00  0.59638882804E+03  0.59638882804E+03  0.00000000000E+00 0. -1.
         -1   -1    0    0    0  501 -0.00000000000E+00 -0.00000000000E+00 -0.21987352266E+02  0.21987352266E+02  0.00000000000E+00 0.  1.
         25    2    1    2    0    0 -0.13340785075E+02  0.36018809075E+02  0.33930572582E+03  0.36366433523E+03  0.12509213399E+03 0.  0.
          5    1    3    3  502    0  0.67858970205E-02  0.64351469121E+02  0.32043840967E+03  0.32686290461E+03  0.41800000000E+01 0.  1.
         -5    1    3    3    0  502 -0.13347570972E+02 -0.28332660046E+02  0.18867316159E+02  0.36801430613E+02  0.41800000000E+01 0.  1.
        -11    1    1    2    0    0  0.19592414679E+02 -0.60417850133E+02  0.20902347666E+03  0.21846050701E+03  0.00000000000E+00 0. -1.
         11    1    1    2    0    0 -0.62516296045E+01  0.24399041058E+02  0.26072273289E+02  0.36251338068E+02  0.00000000000E+00 0.  1.
</event>
<event>
 7    1  0.2394257E-009  0.1017564E+03  0.7561462E-02  0.1276645E+00
         -2   -1    0    0    0  501 -0.00000000000E+00  0.00000000000E+00  0.24829782279E+02  0.24829782279E+02  0.00000000000E+00 0. -1.
          2   -1    0    0  501    0  0.00000000000E+00 -0.00000000000E+00 -0.85253072621E+03  0.85253072621E+03  0.00000000000E+00 0.  1.
         25    2    1    2    0    0 -0.18049580689E+02 -0.56286935891E+02 -0.68126907842E+03  0.69517576561E+03  0.12509109231E+03 0.  0.
          5    1    3    3  502    0  0.19295388061E+02  0.30962073362E+02 -0.10757870618E+03  0.11367327043E+03  0.41800000000E+01 0.  1.
         -5    1    3    3    0  502 -0.37344968750E+02 -0.87249009253E+02 -0.57369037224E+03  0.58150249518E+03  0.41800000000E+01 0.  1.
        -11    1    1    2    0    0 -0.86928399519E+01  0.38986334526E+02 -0.14489180157E+03  0.15029681936E+03  0.00000000000E+00 0.  1.
         11    1    1    2    0    0  0.26742420641E+02  0.17300601365E+02 -0.15400639434E+01  0.31887923518E+02  0.00000000000E+00 0. -1.
</event>
<event>
 7    1  0.2394257E-009  0.1168846E+03  0.7561462E-02  0.1248327E+00
         -1   -1    0    0    0  501 -0.00000000000E+00  0.00000000000E+00  0.24554735248E+02  0.24554735248E+02  0.00000000000E+00 0.  1.
          1   -1    0    0  501    0  0.00000000000E+00 -0.00000000000E+00 -0.62435585945E+03  0.62435585945E+03  0.00000000000E+00 0. -1.
         25    2    1    2    0    0 -0.46721393322E+02  0.23206711966E+02 -0.36046541357E+03  0.38510315853E+03  0.12509072011E+03 0.  0.
          5    1    3    3  502    0 -0.83357660044E+02  0.87772953868E+01 -0.30885007303E+03  0.32004902814E+03  0.41800000000E+01 0. -1.
         -5    1    3    3    0  502  0.36636266722E+02  0.14429416580E+02 -0.51615340535E+02  0.65054130389E+02  0.41800000000E+01 0. -1.
        -11    1    1    2    0    0  0.13288018213E+02  0.38137621142E+02 -0.10247645958E+03  0.11014751174E+03  0.00000000000E+00 0.  1.
         11    1    1    2    0    0  0.33433375110E+02 -0.61344333109E+02 -0.13685925105E+03  0.15365992443E+03  0.00000000000E+00 0. -1.
</event>
<event>
 7    1  0.2394257E-009  0.2470722E+03  0.7561462E-02  0.1115169E+00
          2   -1    0    0  501    0  0.00000000000E+00  0.00000000000E+00  0.25246900868E+04  0.25246900868E+04  0.00000000000E+00 0. -1.
         -2   -1    0    0    0  501 -0.00000000000E+00 -0.00000000000E+00 -0.37263635549E+02  0.37263635549E+02  0.00000000000E+00 0.  1.
         25    2    1    2    0    0 -0.18914737792E+03 -0.12293270514E+03  0.19827969447E+04  0.19995050664E+04  0.12509039159E+03 0.  0.
          5    1    3    3  502    0 -0.20239939753E+03 -0.13132189556E+03  0.18275540566E+04  0.18434159212E+04  0.41800000000E+01 0.  1.
         -5    1    3    3    0  502  0.13252019612E+02  0.83891904161E+01  0.15524288810E+03  0.15608914519E+03  0.41800000000E+01 0.  1.
        -11    1    1    2    0    0  0.11910135317E+03  0.34904399785E+02  0.34904774536E+03  0.37045617554E+03  0.00000000000E+00 0.  1.
         11    1    1    2    0    0  0.70046024741E+02  0.88028305357E+02  0.15558176126E+03  0.19199248048E+03  0.00000000000E+00 0. -1.
</event>
<event>
 7    1  0.2394257E-009  0.9583579E+02  0.7561462E-02  0.1289305E+00
          3   -1    0    0  501    0  0.00000000000E+00  0.00000000000E+00  0.10709442882E+03  0.10709442882E+03  0.00000000000E+00 0. -1.
         -3   -1    0    0    0  501 -0.00000000000E+00 -0.00000000000E+00 -0.12002227959E+03  0.12002227959E+03  0.00000000000E+00 0.  1.
         25    2    1    2    0    0  0.26810414568E+02  0.32727664865E+02  0.12767597256E+01  0.13205041252E+03  0.12508310419E+03 0.  0.
          5    1    3    3  502    0  0.46124818485E+02 -0.20077124254E+02  0.39361933223E+02  0.64011123921E+02  0.41800000000E+01 0.  1.
         -5    1    3    3    0  502 -0.19314403917E+02  0.52804789119E+02 -0.38085173497E+02  0.68039288598E+02  0.41800000000E+01 0.  1.
        -11    1    1    2    0    0  0.72888318717E+01  0.20410940634E+02  0.14118276693E+02  0.25866180708E+02  0.00000000000E+00 0. -1.
         11    1    1    2    0    0 -0.34099246440E+02 -0.53138605499E+02 -0.28322887194E+02  0.69200115181E+02  0.00000000000E+00 0.  1.
</event>
<event>
 7    1  0.2394257E-009  0.8467138E+02  0.7561462E-02  0.1316294E+00
          2   -1    0    0  501    0  0.00000000000E+00  0.00000000000E+00  0.15868951756E+03  0.15868951756E+03  0.00000000000E+00 0. -1.
         -2   -1    0    0    0  501 -0.00000000000E+00 -0.00000000000E+00 -0.89368183316E+02  0.89368183316E+02  0.00000000000E+00 0.  1.
         25    2    1    2    0    0 -0.44655616373E+02  0.20117376274E+02  0.48344863898E+02  0.14277030522E+03  0.12508917333E+03 0.  0.
          5    1    3    3  502    0  0.34176833651E+02 -0.38981898950E+01  0.49287847771E+02  0.60249615607E+02  0.41800000000E+01 0.  1.
         -5    1    3    3    0  502 -0.78832450024E+02  0.24015566169E+02 -0.94298387325E+00  0.82520689611E+02  0.41800000000E+01 0.  1.
        -11    1    1    2    0    0  0.16807762599E+02 -0.17405946299E+02 -0.35092045911E+02  0.42625339135E+02  0.00000000000E+00 0.  1.
         11    1    1    2    0    0  0.27847853774E+02 -0.27114299744E+01  0.56068516256E+02  0.62662056521E+02  0.00000000000E+00 0. -1.
</event>
<event>
 7    1  0.2394257E-009  0.1173263E+03  0.7561462E-02  0.1247574E+00
          2   -1    0    0  501    0  0.00000000000E+00  0.00000000000E+00  0.16678486373E+03  0.16678486373E+03  0.00000000000E+00 0. -1.
         -2   -1    0    0    0  501 -0.00000000000E+00 -0.00000000000E+00 -0.13304379610E+03  0.13304379610E+03  0.00000000000E+00 0.  1.
         25    2    1    2    0    0  0.61028844856E+02 -0.76024837054E+02 -0.14359042373E+02  0.15924122258E+03  0.12508912470E+03 0.  0.
          5    1    3    3  502    0  0.67083589104E+02 -0.40251287175E+02  0.44404114725E+02  0.90053161249E+02  0.41800000000E+01 0. -1.
         -5    1    3    3    0  502 -0.60547442479E+01 -0.35773549879E+02 -0.58763157098E+02  0.69188061333E+02  0.41800000000E+01 0. -1.
        -11    1    1    2    0    0 -0.64850075353E+02  0.26406050566E+02  0.56682288517E+02  0.90087144540E+02  0.00000000000E+00 0. -1.
         11    1    1    2    0    0  0.38212304965E+01  0.49618786488E+02 -0.85821785138E+01  0.50500292703E+02  0.00000000000E+00 0.  1.
</event>
<event>
 7    1  0.2394257E-009  0.7867908E+02  0.7561462E-02  0.1332842E+00
         -3   -1    0    0    0  501 -0.00000000000E+00  0.00000000000E+00  0.56227860834E+02  0.56227860834E+02  0.00000000000E+00 0.  1.
          3   -1    0    0  501    0  0.00000000000E+00 -0.00000000000E+00 -0.28383810922E+03  0.28383810922E+03  0.00000000000E+00 0. -1.
         25    2    1    2    0    0  0.55045466704E+02 -0.14221827504E+02 -0.18540685213E+03  0.23076809541E+03  0.12508376898E+03 0.  0.
          5    1    3    3  502    0  0.15159571755E+02 -0.42710206160E+01 -0.18862036697E+03  0.18932292378E+03  0.41800000000E+01 0. -1.
         -5    1    3    3    0  502  0.39885894950E+02 -0.99508068877E+01  0.32135148471E+01  0.41445171629E+02  0.41800000000E+01 0. -1.
        -11    1    1    2    0    0  0.16809966517E+02 -0.14655747883E+02 -0.30108677393E+01  0.22504027303E+02  0.00000000000E+00 0.  1.
         11    1    1    2    0    0 -0.71855433221E+02  0.28877575387E+02 -0.39192528515E+02  0.86793847334E+02  0.00000000000E+00 0. -1.
</event>
<event>
 7    1  0.2394257E-009  0.1491487E+03  0.7561462E-02  0.1201523E+00
         -1   -1    0    0    0  501 -0.00000000000E+00  0.00000000000E+00  0.47371694765E+02  0.47371694765E+02  0.00000000000E+00 0.  1.
          1   -1    0    0  501    0  0.00000000000E+00 -0.00000000000E+00 -0.86020570767E+03  0.86020570767E+03  0.00000000000E+00 0. -1.
         25    2    1    2    0    0  0.22686223184E+02 -0.10509294633E+03 -0.71898200133E+03  0.73765997993E+03  0.12509170900E+03 0.  0.
          5    1    3    3  502    0  0.57997684189E+02 -0.12913666651E+02 -0.37757714077E+03  0.38224660076E+03  0.41800000000E+01 0.  1.
         -5    1    3    3    0  502 -0.35311461006E+02 -0.92179279679E+02 -0.34140486056E+03  0.35541337917E+03  0.41800000000E+01 0.  1.
        -11    1    1    2    0    0 -0.54751821525E+02  0.41463269080E+02 -0.59257484252E+02  0.90710606232E+02  0.00000000000E+00 0.  1.
         11    1    1    2    0    0  0.32065598342E+02  0.63629677251E+02 -0.34594527327E+02  0.79206816279E+02  0.00000000000E+00 0. -1.
</event>
<event>
 7    1  0.2394257E-009  0.2393768E+03  0.7561462E-02  0.1120209E+00
         -2   -1    0    0    0  501 -0.00000000000E+00  0.00000000000E+00  0.44136603162E+02  0.44136603162E+02  0.00000000000E+00 0. -1.
          2   -1    0    0  501    0  0.00000000000E+00 -0.00000000000E+00 -0.14476574183E+04  0.14476574183E+04  0.00000000000E+00 0.  1.
         25    2    1    2    0    0 -0.89192582448E+02  0.20038449015E+03 -0.91186155552E+03  0.94617593186E+03  0.12509251355E+03 0.  0.
          5    1    3    3  502    0 -0.33400151411E+02 -0.33859078443E+01 -0.22545722902E+03  0.22798129091E+03  0.41800000000E+01 0. -1.
         -5    1    3    3    0  502 -0.55792431036E+02  0.20377039800E+03 -0.68640432650E+03  0.71819464095E+03  0.41800000000E+01 0. -1.
        -11    1    1    2    0    0  0.21054949146E+02 -0.14296211244E+03 -0.26078281769E+03  0.29814284241E+03  0.00000000000E+00 0.  1.
         11    1    1    2    0    0  0.68137633302E+02 -0.57422377716E+02 -0.23087644191E+03  0.24747524717E+03  0.00000000000E+00 0. -1.
</event>
<event>
 7    1  0.2394257E-009  0.9128035E+02  0.7561462E-02  0.1299780E+00
          1   -1    0    0  501    0  0.00000000000E+00  0.00000000000E+00  0.34989393816E+03  0.34989393816E+03  0.00000000000E+00 0. -1.
         -1   -1    0    0    0  501 -0.00000000000E+00 -0.00000000000E+00 -0.69663696312E+02  0.69663696312E+02  0.00000000000E+00 0.  1.
         25    2    1    2    0    0 -0.22006147992E+02  0.46653382765E+02  0.28411693699E+03  0.31468970187E+03  0.12508543442E+03 0.  0.
          5    1    3    3  502    0 -0.40014661910E+02 -0.29982204828E+02  0.67011874162E+02  0.83714810236E+02  0.41800000000E+01 0. -1.
         -5    1    3    3    0  502  0.18008513918E+02  0.76635587593E+02  0.21710506283E+03  0.23097489163E+03  0.41800000000E+01 0. -1.
        -11    1    1    2    0    0  0.12035954986E+02 -0.10255743119E+02  0.42337964630E+02  0.45194554189E+02  0.00000000000E+00 0. -1.
         11    1    1    2    0    0  0.99701930064E+01 -0.36397639646E+02 -0.46224659771E+02  0.59673378414E+02  0.00000000000E+00 0.  1.
</event>
<event>
 7    1  0.2394257E-009  0.1689624E+03  0.7561462E-02  0.1178934E+00
          2   -1    0    0  501    0  0.00000000000E+00  0.00000000000E+00  0.27891320491E+03  0.27891320491E+03  0.00000000000E+00 0. -1.
         -2   -1    0    0    0  501 -0.00000000000E+00 -0.00000000000E+00 -0.10700047369E+03  0.10700047369E+03  0.00000000000E+00 0.  1.
         25    2    1    2    0    0  0.84925768612E+02  0.10509769723E+03  0.83156723130E+02  0.20204192663E+03  0.12509191571E+03 0.  0.
          5    1    3    3  502    0  0.67165955460E+02  0.13345306494E+03  0.59578018248E+02  0.16089747907E+03  0.41800000000E+01 0. -1.
         -5    1    3    3    0  502  0.17759813152E+02 -0.28355367703E+02  0.23578704882E+02  0.41144447556E+02  0.41800000000E+01 0. -1.
        -11    1    1    2    0    0  0.11741004753E+02 -0.30377862939E+02  0.41779852798E+02  0.52973784546E+02  0.00000000000E+00 0. -1.
         11    1    1    2    0    0 -0.96666773365E+02 -0.74719834294E+02  0.46976155288E+02  0.13089796742E+03  0.00000000000E+00 0.  1.
</event>
<event>
 7    1  0.2394257E-009  0.1133375E+03  0.7561462E-02  0.1254511E+00
          2   -1    0    0  501    0  0.00000000000E+00  0.00000000000E+00  0.46935218969E+02  0.46935218969E+02  0.00000000000E+00 0. -1.
         -2   -1    0    0    0  501 -0.00000000000E+00 -0.00000000000E+00 -0.37032220010E+03  0.37032220010E+03  0.00000000000E+00 0.  1.
         25    2    1    2    0    0  0.46652265796E+02  0.59157932692E+02 -0.17307849403E+03  0.22644983433E+03  0.12508903816E+03 0.  0.
          5    1    3    3  502    0  0.81038662902E+02  0.39464744908E+02 -0.16142745826E+03  0.18493519853E+03  0.41800000000E+01 0.  1.
         -5    1    3    3    0  502 -0.34386397105E+02  0.19693187784E+02 -0.11651035769E+02  0.41514635798E+02  0.41800000000E+01 0.  1.
        -11    1    1    2    0    0 -0.38969498375E+02 -0.21045766923E+01 -0.11735916843E+02  0.40752702865E+02  0.00000000000E+00 0. -1.
         11    1    1    2    0    0 -0.76827674214E+01 -0.57053356000E+02 -0.13857257026E+03  0.15005488188E+03  0.00000000000E+00 0.  1.
</event>
<event>
 7    1  0.2394257E-009  0.1053933E+03  0.7561462E-02  0.1269347E+00
         -3   -1    0    0    0  501 -0.00000000000E+00  0.00000000000E+00  0.56584046320E+03  0.56584046320E+03  0.00000000000E+00 0.  1.
          3   -1    0    0  501    0  0.00000000000E+00 -0.00000000000E+00 -0.34304505797E+02  0.34304505797E+02  0.00000000000E+00 0. -1.
         25    2    1    2    0    0  0.51303668308E+02 -0.65403571566E+02  0.22690495683E+03  0.27210035008E+03  0.12507216924E+03 0.  0.
          5    1    3    3  502    0  0.61394142802E+02 -0.37360295990E+02  0.23078847296E+03  0.24175571170E+03  0.41800000000E+01 0.  1.
         -5    1    3    3    0  502 -0.10090474494E+02 -0.28043275576E+02 -0.38835161290E+01  0.30344638374E+02  0.41800000000E+01 0.  1.
        -11    1    1    2    0    0 -0.68424801472E+02  0.44244005987E+02  0.27900754750E+03  0.29066251406E+03  0.00000000000E+00 0.  1.
         11    1    1    2    0    0  0.17121133164E+02  0.21159565579E+02  0.25623453071E+02  0.37382104858E+02  0.00000000000E+00 0. -1.
</event>
<event>
 7    1  0.2394257E-009  0.9698543E+02  0.7561462E-02  0.1286766E+00
          1   -1    0    0  501    0  0.00000000000E+00  0.00000000000E+00  0.63533857410E+02  0.63533857410E+02  0.00000000000E+00 0. -1.
         -1   -1    0    0    0  501 -0.00000000000E+00 -0.00000000000E+00 -0.24204591442E+03  0.24204591442E+03  0.00000000000E+00 0.  1.
         25    2    1    2    0    0 -0.43623482593E+02  0.33515981059E+02 -0.11308723117E+03  0.17737401110E+03  0.12508592543E+03 0.  0.
          5    1    3    3  502    0  0.29613110213E+02  0.63532221914E+01  0.94469921724E+01  0.32000277965E+02  0.41800000000E+01 0.  1.
         -5    1    3    3    0  502 -0.73236592806E+02  0.27162758868E+02 -0.12253422335E+03  0.14537373314E+03  0.41800000000E+01 0.  1.
        -11    1    1    2    0    0  0.50424512594E+02  0.55781952274E+00  0.39850688274E+01  0.50584813991E+02  0.00000000000E+00 0. -1.
         11    1    1    2    0    0 -0.68010300005E+01 -0.34073800582E+02 -0.69409894663E+02  0.77620946737E+02  0.00000000000E+00 0.  1.
</event>
<event>
 7    1  0.2394257E-009  0.1037533E+03  0.7561462E-02  0.1272595E+00
         -2   -1    0    0    0  501 -0.00000000000E+00  0.00000000000E+00  0.29927278326E+02  0.29927278326E+02  0.00000000000E+00 0.  1.
          2   -1    0    0  501    0  0.00000000000E+00 -0.00000000000E+00 -0.55074001109E+03  0.55074001109E+03  0.00000000000E+00 0. -1.
         25    2    1    2    0    0 -0.67594181592E+02  0.13851566078E+02 -0.26329964909E+03  0.29955630421E+03  0.12508571026E+03 0.  0.
          5    1    3    3  502    0 -0.81658035183E+02 -0.33783823854E+02 -0.20218249635E+03  0.22069122251E+03  0.41800000000E+01 0.  1.
         -5    1    3    3    0  502  0.14063853591E+02  0.47635389931E+02 -0.61117152738E+02  0.78865081693E+02  0.41800000000E+01 0.  1.
        -11    1    1    2    0    0  0.16846303291E+02 -0.11805255403E+01  0.14204538653E+01  0.16947249462E+02  0.00000000000E+00 0.  1.
         11    1    1    2    0    0  0.50747878300E+02 -0.12671040537E+02 -0.25893353754E+03  0.26416373575E+03  0.00000000000E+00 0. -1.
</event>
<event>
 7    1  0.3199935E-009  0.1267504E+03  0.7561462E-02  0.1232359E+00
         -1   -1    0    0    0  501 -0.00000000000E+00  0.00000000000E+00  0.24867935361E+02  0.24867935361E+02  0.00000000000E+00 0.  1.
          1   -1    0    0  501    0  0.00000000000E+00 -0.00000000000E+00 -0.88034101555E+03  0.88034101555E+03  0.00000000000E+00 0. -1.
         25    2    1    2    0    0 -0.86258535277E+02  0.80861428419E+01 -0.61963983282E+03  0.63804939285E+03  0.12509030612E+03 0.  0.
          5    1    3    3  502    0 -0.11192867188E+03 -0.18603662996E+01 -0.57202103692E+03  0.58288680516E+03  0.41800000000E+01 0. -1.
         -5    1    3    3    0  502  0.25670136607E+02  0.99465091415E+01 -0.47618795903E+02  0.55162587691E+02  0.41800000000E+01 0. -1.
        -11    1    1    2    0    0 -0.13283633505E+02 -0.45052746351E+01 -0.36222225528E+01  0.14486991229E+02  0.00000000000E+00 0.  1.
         11    1    1    2    0    0  0.99542168783E+02 -0.35808682067E+01 -0.23221102481E+03  0.25267256682E+03  0.00000000000E+00 0. -1.
</event>
<event>
 7    1  0.2394257E-009  0.8462978E+02  0.7561462E-02  0.1316404E+00
          1   -1    0    0  501    0  0.00000000000E+00  0.00000000000E+00  0.25083817212E+03  0.25083817212E+03  0.00000000000E+00 0. -1.
         -1   -1    0    0    0  501 -0.00000000000E+00 -0.00000000000E+00 -0.53131139766E+02  0.53131139766E+02  0.00000000000E+00 0.  1.
         25    2    1    2    0    0 -0.29712301971E+02  0.22157029499E+02  0.12893820378E+03  0.18343373714E+03  0.12509644553E+03 0.  0.
          5    1    3    3  502    0 -0.68081191643E+02  0.40866260337E+02  0.11191774951E+03  0.13728858272E+03  0.41800000000E+01 0. -1.
         -5    1    3    3    0  502  0.38368889672E+02 -0.18709230839E+02  0.17020454269E+02  0.46145154424E+02  0.41800000000E+01 0. -1.
        -11    1    1    2    0    0  0.22483786381E+02 -0.29138132613E+02  0.89897046764E+02  0.97139232234E+02  0.00000000000E+00 0. -1.
         11    1    1    2    0    0  0.72285155895E+01  0.69811031147E+01 -0.21128218196E+02  0.23396342502E+02  0.00000000000E+00 0.  1.
</event>
<event>
 7    1  0.2394257E-009  0.1879810E+03  0.7561462E-02  0.1160295E+00
         -1   -1    0    0    0  501 -0.00000000000E+00  0.00000000000E+00  0.49872321310E+02  0.49872321310E+02  0.00000000000E+00 0.  1.
          1   -1    0    0  501    0  0.00000000000E+00 -0.00000000000E+00 -0.75181357896E+03  0.75181357896E+03  0.00000000000E+00 0. -1.
         25    2    1    2    0    0  0.62141332717E+02  0.14641346549E+03 -0.33021212153E+03  0.38727979946E+03  0.12508856764E+03 0.  0.
          5    1    3    3  502    0 -0.21608361400E+02  0.10715275118E+03 -0.16711487037E+03  0.19973353666E+03  0.41800000000E+01 0.  1.
         -5    1    3    3    0  502  0.83749694118E+02  0.39260714308E+02 -0.16309725116E+03  0.18754626280E+03  0.41800000000E+01 0.  1.
        -11    1    1    2    0    0 -0.12135286613E+02 -0.11343185407E+03 -0.29997065149E+03  0.32093058821E+03  0.00000000000E+00 0. -1.
         11    1    1    2    0    0 -0.50006046104E+02 -0.32981611423E+02 -0.71758484633E+02  0.93475512601E+02  0.00000000000E+00 0.  1.
</event>
<event>
 7    1  0.2394257E-009  0.1094275E+03  0.7561462E-02  0.1261634E+00
         -1   -1    0    0    0  501 -0.00000000000E+00  0.00000000000E+00  0.16250029781E+03  0.16250029781E+03  0.00000000000E+00 0.  1.
          1   -1    0    0  501    0  0.00000000000E+00 -0.00000000000E+00 -0.91343232783E+02  0.91343232783E+02  0.00000000000E+00 0. -1.
         25    2    1    2    0    0  0.33267246805E+02 -0.42550712284E+02  0.30628163247E+02  0.13965465862E+03  0.12509223183E+03 0.  0.
          5    1    3    3  502    0  0.63819674650E+02  0.48017944529E+00  0.52133479213E+02  0.82513959423E+02  0.41800000000E+01 0. -1.
         -5    1    3    3    0  502 -0.30552427845E+02 -0.43030891729E+02 -0.21505315966E+02  0.57140699200E+02  0.41800000000E+01 0. -1.
        -11    1    1    2    0    0  0.14424369211E+01  0.62102803985E+02  0.40854044423E+02  0.74349793764E+02  0.00000000000E+00 0.  1.
         11    1    1    2    0    0 -0.34709683726E+02 -0.19552091701E+02 -0.32514264798E+00  0.39839078202E+02  0.00000000000E+00 0. -1.
</event>
<event>
 7    1  0.2394257E-009  0.8108249E+02  0.7561462E-02  0.1326007E+00
         -3   -1    0    0    0  501 -0.00000000000E+00  0.00000000000E+00  0.12652302419E+03  0.12652302419E+03  0.00000000000E+00 0.  1.
          3   -1    0    0  501    0  0.00000000000E+00 -0.00000000000E+00 -0.84501133995E+02  0.84501133995E+02  0.00000000000E+00 0. -1.
         25    2    1    2    0    0  0.54412731049E+01 -0.25181223288E+02  0.26566764171E+02  0.13045123298E+03  0.12509208515E+03 0.  0.
          5    1    3    3  502    0 -0.31077985659E+02 -0.64347690655E+02  0.27624990765E+02  0.76727302833E+02  0.41800000000E+01 0.  1.
         -5    1    3    3    0  502  0.36519258764E+02  0.39166467367E+02 -0.10582265943E+01  0.53723930145E+02  0.41800000000E+01 0.  1.
        -11    1    1    2    0    0  0.82526884547E+01  0.20981666708E+02  0.43548493044E+02  0.49038846346E+02  0.00000000000E+00 0.  1.
         11    1    1    2    0    0 -0.13693961560E+02  0.41995565800E+01 -0.28093367024E+02  0.31534078857E+02  0.00000000000E+00 0. -1.
</event>
<event>
 7    1  0.2394257E-009  0.1085636E+03  0.7561462E-02  0.1263253E+00
         -1   -1    0    0    0  501 -0.00000000000E+00  0.00000000000E+00  0.36748045613E+03  0.36748045613E+03  0.00000000000E+00 0.  1.
          1   -1    0    0  501    0  0.00000000000E+00 -0.00000000000E+00 -0.79870979601E+02  0.79870979601E+02  0.00000000000E+00 0. -1.
         25    2    1    2    0    0  0.27991119424E+02  0.70723292905E+02  0.11518340730E+02  0.14684974036E+03  0.12508751794E+03 0.  0.
          5    1    3    3  502    0 -0.19820881913E+02  0.71438230874E+01  0.52890964401E+02  0.57086146160E+02  0.41800000000E+01 0. -1.
         -5    1    3    3    0  502  0.47812001337E+02  0.63579469818E+02 -0.41372623671E+02  0.89763594200E+02  0.41800000000E+01 0. -1.
        -11    1    1    2    0    0 -0.60990734544E+01  0.20906687585E+02  0.30634279551E+02  0.37586531715E+02  0.00000000000E+00 0.  1.
         11    1    1    2    0    0 -0.21892045970E+02 -0.91629980491E+02  0.24545685625E+03  0.26291516366E+03  0.00000000000E+00 0. -1.
</event>
<event>
 7    1  0.2394257E-009  0.1196457E+03  0.7561462E-02  0.1243683E+00
          1   -1    0    0  501    0  0.00000000000E+00  0.00000000000E+00  0.18888137141E+03  0.18888137141E+03  0.00000000000E+00 0. -1.
         -1   -1    0    0    0  501 -0.00000000000E+00 -0.00000000000E+00 -0.93407868106E+02  0.93407868106E+02  0.00000000000E+00 0.  1.
         25    2    1    2    0    0 -0.57521385217E+02  0.36095810985E+02  0.12251024921E+02  0.14286127278E+03  0.12509052051E+03 0.  0.
          5    1    3    3  502    0 -0.21348180360E+02 -0.39449651138E+02 -0.24519970958E+02  0.51290556201E+02  0.41800000000E+01 0.  1.
         -5    1    3    3    0  502 -0.36173204857E+02  0.75545462124E+02  0.36770995879E+02  0.91570716580E+02  0.41800000000E+01 0.  1.
        -11    1    1    2    0    0 -0.61051190262E+01 -0.45633965911E+02  0.23712784498E+02  0.51788294737E+02  0.00000000000E+00 0. -1.
         11    1    1    2    0    0  0.63626504243E+02  0.95381549260E+01  0.59509693891E+02  0.87639672002E+02  0.00000000000E+00 0.  1.
</event>
<event>
 7    1  0.2394257E-009  0.1271570E+03  0.7561462E-02  0.1231736E+00
          2   -1    0    0  501    0  0.00000000000E+00  0.00000000000E+00  0.19072074098E+02  0.19072074098E+02  0.00000000000E+00 0. -1.
         -2   -1    0    0    0  501 -0.00000000000E+00 -0.00000000000E+00 -0.11501165471E+04  0.11501165471E+04  0.00000000000E+00 0.  1.
         25    2    1    2    0    0 -0.15916331444E+02  0.95661973737E+02 -0.71053080096E+03  0.72794629638E+03  0.12508896225E+03 0.  0.
          5    1    3    3  502    0  0.10838325028E+02 -0.10321871718E+02 -0.36895837520E+03  0.36928547948E+03  0.41800000000E+01 0. -1.
         -5    1    3    3    0  502 -0.26754656472E+02  0.10598384545E+03 -0.34157242576E+03  0.35866081690E+03  0.41800000000E+01 0. -1.
        -11    1    1    2    0    0  0.22524203680E+02  0.91892111633E+01 -0.43233894271E+02  0.49607972817E+02  0.00000000000E+00 0. -1.
         11    1    1    2    0    0 -0.66078722364E+01 -0.10485118490E+03 -0.37727977778E+03  0.39163435200E+03  0.00000000000E+00 0.  1.
</event>
<event>
 7    1  0.2394257E-009  0.1006347E+03  0.7561462E-02  0.1278967E+00
          1   -1    0    0  501    0  0.00000000000E+00  0.00000000000E+00  0.44361612044E+03  0.44361612044E+03  0.00000000000E+00 0. -1.
         -1   -1    0    0    0  501 -0.00000000000E+00 -0.00000000000E+00 -0.31721367083E+02  0.31721367083E+02  0.00000000000E+00 0.  1.
         25    2    1    2    0    0  0.17633465945E+02 -0.12485959488E+02  0.31389677898E+03  0.33859288963E+03  0.12508844372E+03 0.  0.
          5    1    3    3  502    0  0.17774170597E+02  0.51008273959E+02  0.20897306644E+03  0.21588186596E+03  0.41800000000E+01 0.  1.
         -5    1    3    3    0  502 -0.14070465203E+00 -0.63494233447E+02  0.10492371254E+03  0.12271102368E+03  0.41800000000E+01 0.  1.
        -11    1    1    2    0    0  0.19895694125E+02 -0.23961494654E+02  0.72193151333E+01  0.31970461082E+02  0.00000000000E+00 0.  1.
         11    1    1    2    0    0 -0.37529160070E+02  0.36447454142E+02  0.90778659250E+02  0.10477413681E+03  0.00000000000E+00 0. -1.
</event>
<event>
 7    1  0.2394257E-009  0.1064126E+03  0.7561462E-02  0.1267361E+00
          2   -1    0    0  501    0  0.00000000000E+00  0.00000000000E+00  0.28700523989E+03  0.28700523989E+03  0.00000000000E+00 0. -1.
         -2   -1    0    0    0  501 -0.00000000000E+00 -0.00000000000E+00 -0.74857142845E+02  0.74857142845E+02  0.00000000000E+00 0.  1.
         25    2    1    2    0    0 -0.81421223797E+02 -0.25436699615E+02  0.57172153702E+02  0.16183878388E+03  0.12508675164E+03 0.  0.
          5    1    3    3  502    0  0.13764461317E+02 -0.17783905786E+02  0.62048410280E+02  0.66130214869E+02  0.41800000000E+01 0.  1.
         -5    1    3    3    0  502 -0.95185685114E+02 -0.76527938287E+01 -0.48762565772E+01  0.95708569012E+02  0.41800000000E+01 0.  1.
        -11    1    1    2    0    0  0.96412963178E+01  0.20216687118E+02  0.11606965693E+03  0.11821097365E+03  0.00000000000E+00 0. -1.
         11    1    1    2    0    0  0.71779927479E+02  0.52200124965E+01  0.38906286411E+02  0.81812625197E+02  0.00000000000E+00 0.  1.
</event>
<event>
 7    1  0.2394257E-009  0.1118823E+03  0.7561462E-02  0.1257123E+00
          2   -1    0    0  501    0  0.00000000000E+00  0.00000000000E+00  0.12346641458E+04  0.12346641458E+04  0.00000000000E+00 0.  1.
         -2   -1    0    0    0  501 -0.00000000000E+00 -0.00000000000E+00 -0.29950812664E+02  0.29950812664E+02  0.00000000000E+00 0. -1.
         25    2    1    2    0    0 -0.51057813414E+02 -0.24418781409E+02  0.11141758939E+04  0.11226035158E+04  0.12509018322E+03 0.  0.
          5    1    3    3  502    0  0.23459627955E+02 -0.52380908771E+02  0.45215056947E+03  0.45579789777E+03  0.41800000000E+01 0. -1.
         -5    1    3    3    0  502 -0.74517441369E+02  0.27962127362E+02  0.66202532443E+03  0.66680561802E+03  0.41800000000E+01 0. -1.
        -11    1    1    2    0    0  0.67009106676E+02  0.18663982707E+02  0.24369464765E+02  0.73705057093E+02  0.00000000000E+00 0. -1.
         11    1    1    2    0    0 -0.15951293263E+02  0.57547987011E+01  0.66167974520E+02  0.68306385623E+02  0.00000000000E+00 0.  1.
</event>
<event>
 7    1  0.2394257E-009  0.9819684E+02  0.7561462E-02  0.1284134E+00
         -1   -1    0    0    0  501 -0.00000000000E+00  0.00000000000E+00  0.34568934533E+02  0.34568934533E+02  0.00000000000E+00 0.  1.
          1   -1    0    0  501    0  0.00000000000E+00 -0.00000000000E+00 -0.64256887596E+03  0.64256887596E+03  0.00000000000E+00 0. -1.
         25    2    1    2    0    0  0.79638155003E+02 -0.44818570149E+02 -0.42726453561E+03  0.45448013973E+03  0.12508506728E+03 0.  0.
          5    1    3    3  502    0  0.22652621303E+02  0.94804006462E+01 -0.56261923704E+01  0.25537143319E+02  0.41800000000E+01 0.  1.
         -5    1    3    3    0  502  0.56985533700E+02 -0.54298970796E+02 -0.42163834324E+03  0.42894299641E+03  0.41800000000E+01 0.  1.
        -11    1    1    2    0    0 -0.45528283658E+02  0.16837985429E+02 -0.17062544281E+03  0.17739612200E+03  0.00000000000E+00 0. -1.
         11    1    1    2    0    0 -0.34109871344E+02  0.27980584721E+02 -0.10109963006E+02  0.45261548763E+02  0.00000000000E+00 0.  1.
</event>
<event>
 7    1  0.2394257E-009  0.9471376E+02  0.7561462E-02  0.1291822E+00
          3   -1    0    0  501    0  0.00000000000E+00  0.00000000000E+00  0.53098065644E+03  0.53098065644E+03  0.00000000000E+00 0. -1.
         -3   -1    0    0    0  501 -0.00000000000E+00 -0.00000000000E+00 -0.32368730868E+02  0.32368730868E+02  0.00000000000E+00 0.  1.
         25    2    1    2    0    0 -0.44789981809E+02 -0.53732323139E+02  0.32441392250E+03  0.35466255542E+03  0.12509128700E+03 0.  0.
          5    1    3    3  502    0  0.11703734113E+02 -0.46922590220E+00  0.23835538978E+03  0.23867962168E+03  0.41800000000E+01 0.  1.
         -5    1    3    3    0  502 -0.56493715922E+02 -0.53263097237E+02  0.86058532719E+02  0.11598293374E+03  0.41800000000E+01 0.  1.
        -11    1    1    2    0    0 -0.86141804825E+00 -0.15926609293E+02  0.38984388169E+00  0.15954651449E+02  0.00000000000E+00 0.  1.
         11    1    1    2    0    0  0.45651399857E+02  0.69658932432E+02  0.17380815919E+03  0.19273218044E+03  0.00000000000E+00 0. -1.
</event>
<event>
 7    1  0.2394257E-009  0.1085649E+03  0.7561462E-02  0.1263251E+00
         -1   -1    0    0    0  501 -0.00000000000E+00  0.00000000000E+00  0.15544625209E+02  0.15544625209E+02  0.00000000000E+00 0.  1.
          1   -1    0    0  501    0  0.00000000000E+00 -0.00000000000E+00 -0.86397781957E+03  0.86397781957E+03  0.00000000000E+00 0. -1.
         25    2    1    2    0    0 -0.22069492066E+02 -0.19491716307E+02 -0.57858788984E+03  0.59268709431E+03  0.12508819288E+03 0.  0.
          5    1    3    3  502    0 -0.57266163442E+02 -0.49869825738E+02 -0.26693417478E+03  0.27755673125E+03  0.41800000000E+01 0. -1.
         -5    1    3    3    0  502  0.35196671375E+02  0.30378109432E+02 -0.31165371506E+03  0.31513036306E+03  0.41800000000E+01 0. -1.
        -11    1    1    2    0    0 -0.23137945868E+02 -0.22805378111E+02 -0.62421817244E+02  0.70369972843E+02  0.00000000000E+00 0.  1.
         11    1    1    2    0    0  0.45207437934E+02  0.42297094418E+02 -0.20742348728E+03  0.21646537764E+03  0.00000000000E+00 0. -1.
</event>
<event>
 7    1  0.2394257E-009  0.1203801E+03  0.7561462E-02  0.1242471E+00
         -3   -1    0    0    0  501 -0.00000000000E+00  0.00000000000E+00  0.78465271039E+03  0.78465271039E+03  0.00000000000E+00 0.  1.
          3   -1    0    0  501    0  0.00000000000E+00 -0.00000000000E+00 -0.21723652484E+02  0.21723652484E+02  0.00000000000E+00 0. -1.
         25    2    1    2    0    0  0.36056190371E+02 -0.62392847484E+02  0.46049896038E+03  0.48259733745E+03  0.12509189153E+03 0.  0.
          5    1    3    3  502    0  0.74936654538E+02 -0.29828501334E+02  0.37056840221E+03  0.37926726039E+03  0.41800000000E+01 0.  1.
         -5    1    3    3    0  502 -0.38880464167E+02 -0.32564346150E+02  0.89930558165E+02  0.10333007706E+03  0.41800000000E+01 0.  1.
        -11    1    1    2    0    0  0.22323158071E+02  0.41464052603E+02  0.18592170501E+03  0.19179278255E+03  0.00000000000E+00 0. -1.
         11    1    1    2    0    0 -0.58379348443E+02  0.20928794881E+02  0.11650839252E+03  0.13198624287E+03  0.00000000000E+00 0.  1.
</event>
<event>
 7    1  0.2394257E-009  0.1037817E+03  0.7561462E-02  0.1272539E+00
          4   -1    0    0  501    0  0.00000000000E+00  0.00000000000E+00  0.64787191905E+02  0.64787191905E+02  0.00000000000E+00 0. -1.
         -4   -1    0    0    0  501 -0.00000000000E+00 -0.00000000000E+00 -0.21358872584E+03  0.21358872584E+03  0.00000000000E+00 0.  1.
         25    2    1    2    0    0  0.92305620977E+01 -0.36254016556E+02 -0.57068004016E+02  0.14249182486E+03  0.12509039163E+03 0.  0.
          5    1    3    3  502    0  0.47178043834E+02 -0.47940392062E+02 -0.73139380258E+02  0.99452955490E+02  0.41800000000E+01 0.  1.
         -5    1    3    3    0  502 -0.37947481736E+02  0.11686375506E+02  0.16071376242E+02  0.43038869373E+02  0.41800000000E+01 0.  1.
        -11    1    1    2    0    0 -0.29756425081E+02  0.61134953610E+02 -0.62184312865E+02  0.92140198355E+02  0.00000000000E+00 0. -1.
         11    1    1    2    0    0  0.20525862984E+02 -0.24880937054E+02 -0.29549217055E+02  0.43743894528E+02  0.00000000000E+00 0.  1.
</event>
<event>
 7    1  0.2394257E-009  0.2441875E+03  0.7561462E-02  0.1117034E+00
         -1   -1    0    0    0  501 -0.00000000000E+00  0.00000000000E+00  0.12864161024E+03  0.12864161024E+03  0.00000000000E+00 0.  1.
          1   -1    0    0  501    0  0.00000000000E+00 -0.00000000000E+00 -0.63265213945E+03  0.63265213945E+03  0.00000000000E+00 0. -1.
         25    2    1    2    0    0  0.21635725248E+03 -0.88845201199E+02 -0.97269606699E+02  0.28251167544E+03  0.12509012710E+03 0.  0.
          5    1    3    3  502    0  0.15902309752E+03 -0.10917397218E+03 -0.10722326367E+03  0.22072970443E+03  0.41800000000E+01 0. -1.
         -5    1    3    3    0  502  0.57334154958E+02  0.20328770982E+02  0.99536569742E+01  0.61781971008E+02  0.41800000000E+01 0. -1.
        -11    1    1    2    0    0 -0.95272752507E+02  0.47949856088E+02 -0.98858757775E+02  0.14542743915E+03  0.00000000000E+00 0. -1.
         11    1    1    2    0    0 -0.12108449997E+03  0.40895345112E+02 -0.30788216473E+03  0.33335463510E+03  0.00000000000E+00 0.  1.
</event>
<event>
 7    1  0.2394257E-009  0.1075961E+03  0.7561462E-02  0.1265087E+00
          2   -1    0    0  501    0  0.00000000000E+00  0.00000000000E+00  0.20187711312E+03  0.20187711312E+03  0.00000000000E+00 0.  1.
         -2   -1    0    0    0  501 -0.00000000000E+00 -0.00000000000E+00 -0.64740851605E+02  0.64740851605E+02  0.00000000000E+00 0. -1.
         25    2    1    2    0    0 -0.12758246743E+02  0.24459963118E+02  0.48367463526E+02  0.13692320405E+03  0.12508992615E+03 0.  0.
          5    1    3    3  502    0  0.24985364641E+02  0.65865394191E+02  0.36701543988E+02  0.79542405855E+02  0.41800000000E+01 0. -1.
         -5    1    3    3    0  502 -0.37743611384E+02 -0.41405431072E+02  0.11665919539E+02  0.57380798193E+02  0.41800000000E+01 0. -1.
        -11    1    1    2    0    0  0.48717732594E+02 -0.10305211564E+02  0.72061812221E+02  0.87592920005E+02  0.00000000000E+00 0.  1.
         11    1    1    2    0    0 -0.35959485851E+02 -0.14154751555E+02  0.16706985763E+02  0.42101840667E+02  0.00000000000E+00 0. -1.
</event>
<event>
 7    1  0.2394257E-009  0.9517116E+02  0.7561462E-02  0.1290791E+00
         -1   -1    0    0    0  501 -0.00000000000E+00  0.00000000000E+00  0.77862046757E+02  0.77862046757E+02  0.00000000000E+00 0.  1.
          1   -1    0    0  501    0  0.00000000000E+00 -0.00000000000E+00 -0.20969193896E+03  0.20969193896E+03  0.00000000000E+00 0. -1.
         25    2    1    2    0    0 -0.66760767127E+01  0.27813309016E+01  0.29723027438E+01  0.12533485662E+03  0.12509071068E+03 0.  0.
          5    1    3    3  502    0 -0.11117741341E+02  0.54621492038E+02  0.33202338697E+02  0.65015223294E+02  0.41800000000E+01 0. -1.
         -5    1    3    3    0  502  0.44416646279E+01 -0.51840161136E+02 -0.30230035953E+02  0.60319633330E+02  0.41800000000E+01 0. -1.
        -11    1    1    2    0    0  0.43992410147E+02  0.45155701568E+01 -0.38324701811E+02  0.58519272836E+02  0.00000000000E+00 0.  1.
         11    1    1    2    0    0 -0.37316333434E+02 -0.72969010584E+01 -0.96477493132E+02  0.10369985625E+03  0.00000000000E+00 0. -1.
</event>
<event>
 7    1  0.2394257E-009  0.1432650E+03  0.7561462E-02  0.1209002E+00
          1   -1    0    0  501    0  0.00000000000E+00  0.00000000000E+00  0.88895084328E+03  0.88895084328E+03  0.00000000000E+00 0. -1.
         -1   -1    0    0    0  501 -0.00000000000E+00 -0.00000000000E+00 -0.30143467302E+02  0.30143467302E+02  0.00000000000E+00 0.  1.
         25    2    1    2    0    0  0.75650055407E+02  0.83471513522E+02  0.59391228485E+03  0.61730780085E+03  0.12508674769E+03 0.  0.
          5    1    3    3  502    0  0.73482942538E+02  0.11244923432E+03  0.42130294387E+03  0.44221964685E+03  0.41800000000E+01 0.  1.
         -5    1    3    3    0  502  0.21671128687E+01 -0.28977720794E+02  0.17260934098E+03  0.17508815401E+03  0.41800000000E+01 0.  1.
        -11    1    1    2    0    0 -0.37430709882E+02 -0.74716341354E+02  0.91101061647E+02  0.12362440350E+03  0.00000000000E+00 0.  1.
         11    1    1    2    0    0 -0.38219345525E+02 -0.87551721677E+01  0.17379402949E+03  0.17816210623E+03  0.00000000000E+00 0. -1.
</event>
<event>
 7    1  0.2394257E-009  0.9650846E+02  0.7561462E-02  0.1287814E+00
         -3   -1    0    0    0  501 -0.00000000000E+00  0.00000000000E+00  0.63310637681E+02  0.63310637681E+02  0.00000000000E+00 0.  1.
          3   -1    0    0  501    0  0.00000000000E+00 -0.00000000000E+00 -0.21186906756E+03  0.21186906756E+03  0.00000000000E+00 0. -1.
         25    2    1    2    0    0 -0.33848123158E+01  0.35972367251E+02 -0.63892179214E+02  0.14503513092E+03  0.12509000950E+03 0.  0.
          5    1    3    3  502    0  0.33459714314E+02  0.53874400796E+02 -0.78805764792E+02  0.10124141696E+03  0.41800000000E+01 0. -1.
         -5    1    3    3    0  502 -0.36844526630E+02 -0.17902033545E+02  0.14913585578E+02  0.43793713960E+02  0.41800000000E+01 0. -1.
        -11    1    1    2    0    0  0.40606257600E+02 -0.72029649859E+01 -0.69322113461E+02  0.80661677862E+02  0.00000000000E+00 0.  1.
         11    1    1    2    0    0 -0.37221445284E+02 -0.28769402265E+02 -0.15344137204E+02  0.49482896462E+02  0.00000000000E+00 0. -1.
</event>
<event>
 7    1  0.2394257E-009  0.1237461E+03  0.7561462E-02  0.1237042E+00
          1   -1    0    0  501    0  0.00000000000E+00  0.00000000000E+00  0.14416381395E+03  0.14416381395E+03  0.00000000000E+00 0. -1.
         -1   -1    0    0    0  501 -0.00000000000E+00 -0.00000000000E+00 -0.10834086096E+03  0.10834086096E+03  0.00000000000E+00 0.  1.
         25    2    1    2    0    0  0.51342804886E+02  0.12734232251E+02  0.27954542237E+02  0.13865547950E+03  0.12508253787E+03 0.  0.
          5    1    3    3  502    0  0.87536331016E+02  0.31978197380E+02  0.28177584145E+02  0.97450823514E+02  0.41800000000E+01 0.  1.
         -5    1    3    3    0  502 -0.36193526130E+02 -0.19243965129E+02 -0.22304190790E+00  0.41204655990E+02  0.41800000000E+01 0.  1.
        -11    1    1    2    0    0 -0.98270915869E+01  0.42658774963E+02  0.86425373719E+01  0.44621029377E+02  0.00000000000E+00 0. -1.
         11    1    1    2    0    0 -0.41515713299E+02 -0.55393007215E+02 -0.77412662131E+00  0.69228166024E+02  0.00000000000E+00 0.  1.
</event>
<event>
 7    1  0.2394257E-009  0.1128935E+03  0.7561462E-02  0.1255303E+00
         -2   -1    0    0    0  501 -0.00000000000E+00  0.00000000000E+00  0.29161644691E+02  0.29161644691E+02  0.00000000000E+00 0.  1.
          2   -1    0    0  501    0  0.00000000000E+00 -0.00000000000E+00 -0.70461009218E+03  0.70461009218E+03  0.00000000000E+00 0. -1.
         25    2    1    2    0    0  0.61506713284E+02  0.59366239543E+02 -0.46898402937E+03  0.49284955042E+03  0.12508890185E+03 0.  0.
          5    1    3    3  502    0  0.67695911458E+02  0.27704483518E+02 -0.44841648233E+03  0.45436228811E+03  0.41800000000E+01 0. -1.
         -5    1    3    3    0  502 -0.61891981740E+01  0.31661756025E+02 -0.20567547045E+02  0.38487262309E+02  0.41800000000E+01 0. -1.
        -11    1    1    2    0    0 -0.77258415640E+02 -0.23395584035E+02 -0.16572076942E+03  0.18433553525E+03  0.00000000000E+00 0. -1.
         11    1    1    2    0    0  0.15751702356E+02 -0.35970655508E+02 -0.40743648700E+02  0.56586651201E+02  0.00000000000E+00 0.  1.
</event>
<event>
 7    1  0.2394257E-009  0.1331453E+03  0.7561462E-02  0.1222862E+00
          1   -1    0    0  501    0  0.00000000000E+00  0.00000000000E+00  0.15737528477E+03  0.15737528477E+03  0.00000000000E+00 0. -1.
         -1   -1    0    0    0  501 -0.00000000000E+00 -0.00000000000E+00 -0.12227326298E+03  0.12227326298E+03  0.00000000000E+00 0.  1.
         25    2    1    2    0    0  0.74568272117E+01 -0.76428866092E+02 -0.19603738142E+02  0.14809253202E+03  0.12510042225E+03 0.  0.
          5    1    3    3  502    0 -0.58761479244E+02 -0.36035646022E+02 -0.72367998769E+01  0.69435746555E+02  0.41800000000E+01 0. -1.
         -5    1    3    3    0  502  0.66218306455E+02 -0.40393220070E+02 -0.12366938265E+02  0.78656785464E+02  0.41800000000E+01 0. -1.
        -11    1    1    2    0    0  0.10515669051E+02  0.93901493236E+02  0.41160807980E+02  0.10306445479E+03  0.00000000000E+00 0.  1.
         11    1    1    2    0    0 -0.17972496262E+02 -0.17472627144E+02  0.13544951951E+02  0.28491560936E+02  0.00000000000E+00 0. -1.
</event>
<event>
 7    1  0.2394257E-009  0.9845679E+02  0.7561462E-02  0.1283575E+00
          1   -1    0    0  501    0  0.00000000000E+00  0.00000000000E+00  0.26087263939E+03  0.26087263939E+03  0.00000000000E+00 0. -1.
         -1   -1    0    0    0  501 -0.00000000000E+00 -0.00000000000E+00 -0.48299534137E+02  0.48299534137E+02  0.00000000000E+00 0.  1.
         25    2    1    2    0    0  0.74378989049E+01 -0.26795321022E+02  0.13788641117E+03  0.18823872261E+03  0.12509133757E+03 0.  0.
          5    1    3    3  502    0 -0.16917230616E+02 -0.67238111660E+02  0.41715618650E+02  0.81023586632E+02  0.41800000000E+01 0. -1.
         -5    1    3    3    0  502  0.24355129521E+02  0.40442790639E+02  0.96170792518E+02  0.10721513598E+03  0.41800000000E+01 0. -1.
        -11    1    1    2    0    0 -0.38334378606E+02  0.30437824471E+02  0.11170172340E+02  0.50207155783E+02  0.00000000000E+00 0.  1.
         11    1    1    2    0    0  0.30896479701E+02 -0.36425034496E+01  0.63516521748E+02  0.70726295141E+02  0.00000000000E+00 0. -1.
</event>
<event>
 7    1  0.2394257E-009  0.1360661E+03  0.7561462E-02  0.1218722E+00
          1   -1    0    0  501    0  0.00000000000E+00  0.00000000000E+00  0.28832006887E+03  0.28832006887E+03  0.00000000000E+00 0. -1.
         -1   -1    0    0    0  501 -0.00000000000E+00 -0.00000000000E+00 -0.65438240017E+02  0.65438240017E+02  0.00000000000E+00 0.  1.
         25    2    1    2    0    0  0.50470682335E+02 -0.72585837813E+02  0.11637738250E+03  0.19237440879E+03  0.12509286300E+03 0.  0.
          5    1    3    3  502    0  0.91760928060E+02 -0.44926617151E+02  0.88526605436E+02  0.13525125181E+03  0.41800000000E+01 0.  1.
         -5    1    3    3    0  502 -0.41290245725E+02 -0.27659220662E+02  0.27850777063E+02  0.57123156974E+02  0.41800000000E+01 0.  1.
        -11    1    1    2    0    0  0.15426634932E+02  0.46739351220E+02  0.32524787393E+02  0.58994998202E+02  0.00000000000E+00 0.  1.
         11    1    1    2    0    0 -0.65897317267E+02  0.25846486593E+02  0.73979658962E+02  0.10238890190E+03  0.00000000000E+00 0. -1.
</event>
<event>
 7    1  0.2394257E-009  0.1119073E+03  0.7561462E-02  0.1257078E+00
          2   -1    0    0  501    0  0.00000000000E+00  0.00000000000E+00  0.42020582221E+02  0.42020582221E+02  0.00000000000E+00 0.  1.
         -2   -1    0    0    0  501 -0.00000000000E+00 -0.00000000000E+00 -0.35764148371E+03  0.35764148371E+03  0.00000000000E+00 0. -1.
         25    2    1    2    0    0 -0.19919908843E+02  0.37071333364E+02 -0.17020192056E+03  0.21537865184E+03  0.12509269915E+03 0.  0.
          5    1    3    3  502    0 -0.48354472129E+02 -0.15294550376E+02 -0.21715350848E+02  0.55327272737E+02  0.41800000000E+01 0.  1.
         -5    1    3    3    0  502  0.28434563285E+02  0.52365883740E+02 -0.14848656971E+03  0.16005137910E+03  0.41800000000E+01 0.  1.
        -11    1    1    2    0    0  0.38874698677E+02  0.26373633682E+02 -0.61203703823E+02  0.77153769269E+02  0.00000000000E+00 0.  1.
         11    1    1    2    0    0 -0.18954789833E+02 -0.63444967046E+02 -0.84215277114E+02  0.10712964483E+03  0.00000000000E+00 0. -1.
</event>
<event>
 7    1  0.2394257E-009  0.9402057E+02  0.7561462E-02  0.1293397E+00
          4   -1    0    0  501    0  0.00000000000E+00  0.00000000000E+00  0.33490156090E+03  0.33490156090E+03  0.00000000000E+00 0. -1.
         -4   -1    0    0    0  501 -0.00000000000E+00 -0.00000000000E+00 -0.89342431180E+02  0.89342431180E+02  0.00000000000E+00 0.  1.
         25    2    1    2    0    0 -0.10600435033E+02 -0.24263381427E+02  0.29285927176E+03  0.31955663879E+03  0.12509520950E+03 0.  0.
          5    1    3    3  502    0 -0.49625303210E+02  0.95083460839E+01  0.49886495020E+02  0.71128153001E+02  0.41800000000E+01 0. -1.
         -5    1    3    3    0  502  0.39024868177E+02 -0.33771727511E+02  0.24297277674E+03  0.24842848579E+03  0.41800000000E+01 0. -1.
        -11    1    1    2    0    0 -0.31328833109E+02  0.29838190643E+02 -0.44852691454E+02  0.62318354723E+02  0.00000000000E+00 0.  1.
         11    1    1    2    0    0  0.41929268142E+02 -0.55748092155E+01 -0.24474505909E+01  0.42368998561E+02  0.00000000000E+00 0. -1.
</event>
<event>
 7    1  0.2394257E-009  0.9866380E+02  0.7561462E-02  0.1283131E+00
          2   -1    0    0  501    0  0.00000000000E+00  0.00000000000E+00  0.33488902655E+03  0.33488902655E+03  0.00000000000E+00 0. -1.
         -2   -1    0    0    0  501 -0.00000000000E+00 -0.00000000000E+00 -0.62051562902E+02  0.62051562902E+02  0.00000000000E+00 0.  1.
         25    2    1    2    0    0  0.58279837014E+02 -0.45143945238E+02  0.63891329565E+02  0.15864272331E+03  0.12510354300E+03 0.  0.
          5    1    3    3  502    0  0.12614392570E+02 -0.36498433898E+02 -0.33085128144E+02  0.51023099486E+02  0.41800000000E+01 0. -1.
         -5    1    3    3    0  502  0.45665444444E+02 -0.86455113404E+01  0.96976457709E+02  0.10761962383E+03  0.41800000000E+01 0. -1.
        -11    1    1    2    0    0  0.14993013760E+02  0.34709035075E+02  0.96890704281E+02  0.10400632747E+03  0.00000000000E+00 0.  1.
         11    1    1    2    0    0 -0.73272850774E+02  0.10434910163E+02  0.11205542980E+03  0.13429153867E+03  0.00000000000E+00 0. -1.
</event>
<event>
 7    1  0.2394257E-009  0.1118878E+03  0.7561462E-02  0.1257113E+00
         -2   -1    0    0    0  501 -0.00000000000E+00  0.00000000000E+00  0.14722622058E+02  0.14722622058E+02  0.00000000000E+00 0.  1.
          2   -1    0    0  501    0  0.00000000000E+00 -0.00000000000E+00 -0.12138267201E+04  0.12138267201E+04  0.00000000000E+00 0. -1.
         25    2    1    2    0    0 -0.40855095235E+02 -0.31203970284E+02 -0.93354461961E+03  0.94329054989E+03  0.12509467670E+03 0.  0.
          5    1    3    3  502    0 -0.83552289046E+02 -0.17582960149E+02 -0.48333173748E+03  0.49083315530E+03  0.41800000000E+01 0. -1.
         -5    1    3    3    0  502  0.42697193811E+02 -0.13621010135E+02 -0.45021288214E+03  0.45245739459E+03  0.41800000000E+01 0. -1.
        -11    1    1    2    0    0  0.17508539332E+02  0.56325623551E+02 -0.22263688912E+03  0.23031784389E+03  0.00000000000E+00 0. -1.
         11    1    1    2    0    0  0.23346555903E+02 -0.25121653266E+02 -0.42922589307E+02  0.54940948373E+02  0.00000000000E+00 0.  1.
</event>
<event>
 7    1  0.2394257E-009  0.2359282E+03  0.7561462E-02  0.1122535E+00
          2   -1    0    0  501    0  0.00000000000E+00  0.00000000000E+00  0.13060157142E+04  0.13060157142E+04  0.00000000000E+00 0. -1.
         -2   -1    0    0    0  501 -0.00000000000E+00 -0.00000000000E+00 -0.56132179362E+02  0.56132179362E+02  0.00000000000E+00 0.  1.
         25    2    1    2    0    0  0.20047045573E+03 -0.11898768988E+03  0.43383866280E+03  0.50814339158E+03  0.12508895675E+03 0.  0.
          5    1    3    3  502    0  0.13813690554E+03 -0.55663761968E+02  0.36936360783E+03  0.39828031116E+03  0.41800000000E+01 0. -1.
         -5    1    3    3    0  502  0.62333550190E+02 -0.63323927916E+02  0.64475054977E+02  0.10986308042E+03  0.41800000000E+01 0. -1.
        -11    1    1    2    0    0 -0.16225244128E+03  0.87181087440E+02  0.74404377043E+03  0.76650344358E+03  0.00000000000E+00 0. -1.
         11    1    1    2    0    0 -0.38218014451E+02  0.31806602444E+02  0.72001101584E+02  0.87501058376E+02  0.00000000000E+00 0.  1.
</event>
<event>
 7    1  0.2394257E-009  0.1189924E+03  0.7561462E-02  0.1244769E+00
          2   -1    0    0  501    0  0.00000000000E+00  0.00000000000E+00  0.59727952223E+03  0.59727952223E+03  0.00000000000E+00 0. -1.
         -2   -1    0    0    0  501 -0.00000000000E+00 -0.00000000000E+00 -0.36854169594E+02  0.36854169594E+02  0.00000000000E+00 0.  1.
         25    2    1    2    0    0  0.40401414641E+02  0.88334388518E+02  0.24927001555E+03  0.29532740186E+03  0.12508994820E+03 0.  0.
          5    1    3    3  502    0  0.23999658342E+02  0.92215764123E+01  0.19764975476E+03  0.19935876963E+03  0.41800000000E+01 0. -1.
         -5    1    3    3    0  502  0.16401756300E+02  0.79112812106E+02  0.51620260789E+02  0.95968632234E+02  0.41800000000E+01 0. -1.
        -11    1    1    2    0    0 -0.67650829201E+02 -0.73930907451E+02  0.20366450796E+03  0.22698380024E+03  0.00000000000E+00 0.  1.
         11    1    1    2    0    0  0.27249414560E+02 -0.14403481067E+02  0.10749082912E+03  0.11182248972E+03  0.00000000000E+00 0. -1.
</event>
<event>
 7    1  0.2394257E-009  0.9007639E+02  0.7561462E-02  0.1302667E+00
         -1   -1    0    0    0  501 -0.00000000000E+00  0.00000000000E+00  0.46978094823E+02  0.46978094823E+02  0.00000000000E+00 0.  1.
          1   -1    0    0  501    0  0.00000000000E+00 -0.00000000000E+00 -0.27117653838E+03  0.27117653838E+03  0.00000000000E+00 0. -1.
         25    2    1    2    0    0  0.99896095072E+01 -0.18948832235E+02 -0.18914911492E+03  0.22777909476E+03  0.12508828001E+03 0.  0.
          5    1    3    3  502    0  0.63761833459E+02  0.78703135602E+01 -0.11914998054E+03  0.13543154546E+03  0.41800000000E+01 0. -1.
         -5    1    3    3    0  502 -0.53772223952E+02 -0.26819145795E+02 -0.69999134374E+02  0.92347549307E+02  0.41800000000E+01 0. -1.
        -11    1    1    2    0    0 -0.19985392101E+02  0.32827866420E+02  0.12041226767E+02  0.40275002833E+02  0.00000000000E+00 0.  1.
         11    1    1    2    0    0  0.99957825935E+01 -0.13879034185E+02 -0.47090555406E+02  0.50100535606E+02  0.00000000000E+00 0. -1.
</event>
<event>
 7    1  0.2394257E-009  0.1127249E+03  0.7561462E-02  0.1255605E+00
         -2   -1    0    0    0  501 -0.00000000000E+00  0.00000000000E+00  0.29502723956E+02  0.29502723956E+02  0.00000000000E+00 0. -1.
          2   -1    0    0  501    0  0.00000000000E+00 -0.00000000000E+00 -0.11703489956E+04  0.11703489956E+04  0.00000000000E+00 0.  1.
         25    2    1    2    0    0  0.31284433009E+02  0.79748419144E+02 -0.10369063185E+04  0.10479305523E+04  0.12508078551E+03 0.  0.
          5    1    3    3  502    0  0.54630640538E+02  0.95766229437E+02 -0.59806365865E+03  0.60815564601E+03  0.41800000000E+01 0.  1.
         -5    1    3    3    0  502 -0.23346207529E+02 -0.16017810293E+02 -0.43884265988E+03  0.43977490627E+03  0.41800000000E+01 0.  1.
        -11    1    1    2    0    0 -0.19044787666E+02 -0.62577866565E+02 -0.11170730401E+03  0.12944966238E+03  0.00000000000E+00 0.  1.
         11    1    1    2    0    0 -0.12239645343E+02 -0.17170552578E+02  0.77673508651E+01  0.22471504921E+02  0.00000000000E+00 0. -1.
</event>
<event>
 7    1  0.2394257E-009  0.1235440E+03  0.7561462E-02  0.1237363E+00
         -1   -1    0    0    0  501 -0.00000000000E+00  0.00000000000E+00  0.68522493830E+03  0.68522493830E+03  0.00000000000E+00 0.  1.
          1   -1    0    0  501    0  0.00000000000E+00 -0.00000000000E+00 -0.34303870608E+02  0.34303870608E+02  0.00000000000E+00 0. -1.
         25    2    1    2    0    0 -0.66255249345E+02  0.77259086580E+02  0.44016047422E+03  0.46877127140E+03  0.12508611951E+03 0.  0.
          5    1    3    3  502    0 -0.45284816762E+02  0.84392546593E+02  0.43527446220E+03  0.44570634547E+03  0.41800000000E+01 0.  1.
         -5    1    3    3    0  502 -0.20970432583E+02 -0.71334600132E+01  0.48860120218E+01  0.23064925925E+02  0.41800000000E+01 0.  1.
        -11    1    1    2    0    0 -0.53956961310E+01 -0.52643208263E+02  0.12825895473E+03  0.13874718153E+03  0.00000000000E+00 0.  1.
         11    1    1    2    0    0  0.71650945476E+02 -0.24615878318E+02  0.82501638739E+02  0.11201035598E+03  0.00000000000E+00 0. -1.
</event>
<event>
 7    1  0.2394257E-009  0.7662260E+02  0.7561462E-02  0.1338919E+00
          1   -1    0    0  501    0  0.00000000000E+00  0.00000000000E+00  0.61723598240E+03  0.61723598240E+03  0.00000000000E+00 0. -1.
         -1   -1    0    0    0  501 -0.00000000000E+00 -0.00000000000E+00 -0.18978051865E+02  0.18978051865E+02  0.00000000000E+00 0.  1.
         25    2    1    2    0    0  0.16262119945E+02  0.11898091225E+02  0.36658879783E+03  0.38786767759E+03  0.12509183629E+03 0.  0.
          5    1    3    3  502    0 -0.23692771027E+02  0.77499103788E+01  0.33664210871E+03  0.33758967737E+03  0.41800000000E+01 0.  1.
         -5    1    3    3    0  502  0.39954890973E+02  0.41481808461E+01  0.29946689120E+02  0.50278000221E+02  0.41800000000E+01 0.  1.
        -11    1    1    2    0    0 -0.41960612831E+02 -0.33750098716E+02  0.11659054702E+03  0.12842553425E+03  0.00000000000E+00 0.  1.
         11    1    1    2    0    0  0.25698492885E+02  0.21852007491E+02  0.11507858568E+03  0.11992082242E+03  0.00000000000E+00 0. -1.
</event>
<event>
 7    1  0.2394257E-009  0.1462688E+03  0.7561462E-02  0.1205134E+00
         -2   -1    0    0    0  501 -0.00000000000E+00  0.00000000000E+00  0.39387962852E+03  0.39387962852E+03  0.00000000000E+00 0.  1.
          2   -1    0    0  501    0  0.00000000000E+00 -0.00000000000E+00 -0.80066162698E+02  0.80066162698E+02  0.00000000000E+00 0. -1.
         25    2    1    2    0    0  0.41365424686E+02  0.10218477692E+03  0.28001900852E+03  0.32589867391E+03  0.12508586464E+03 0.  0.
          5    1    3    3  502    0  0.72018923707E+02  0.10433144002E+03  0.25912600605E+03  0.28850569172E+03  0.41800000000E+01 0. -1.
         -5    1    3    3    0  502 -0.30653499021E+02 -0.21466630950E+01  0.20893002470E+02  0.37392982187E+02  0.41800000000E+01 0. -1.
        -11    1    1    2    0    0  0.10764155940E+02  0.75819336753E+01 -0.12361811493E+02  0.18060098415E+02  0.00000000000E+00 0. -1.
         11    1    1    2    0    0 -0.52129580626E+02 -0.10976671060E+03  0.46156268802E+02  0.12998701889E+03  0.00000000000E+00 0.  1.
</event>
<event>
 7    1  0.2394257E-009  0.5977586E+02  0.7561462E-02  0.1398775E+00
          2   -1    0    0  501    0  0.00000000000E+00  0.00000000000E+00  0.12756251218E+03  0.12756251218E+03  0.00000000000E+00 0.  1.
         -2   -1    0    0    0  501 -0.00000000000E+00 -0.00000000000E+00 -0.98668472952E+02  0.98668472952E+02  0.00000000000E+00 0. -1.
         25    2    1    2    0    0 -0.69743073420E+01 -0.25566670541E+01 -0.10931466199E+02  0.12578569632E+03  0.12508943575E+03 0.  0.
          5    1    3    3  502    0 -0.21641893996E+02  0.15603568722E+02 -0.63014545781E+02  0.68557627676E+02  0.41800000000E+01 0. -1.
         -5    1    3    3    0  502  0.14667586654E+02 -0.18160235776E+02  0.52083079581E+02  0.57228068641E+02  0.41800000000E+01 0. -1.
        -11    1    1    2    0    0  0.34959235099E+02  0.15202011263E+02  0.54420440841E+02  0.66444214545E+02  0.00000000000E+00 0.  1.
         11    1    1    2    0    0 -0.27984927757E+02 -0.12645344208E+02 -0.14594935415E+02  0.34001074269E+02  0.00000000000E+00 0. -1.
</event>
<event>
 7    1  0.2410354E-009  0.1392659E+03  0.7561462E-02  0.1214320E+00
          2   -1    0    0  501    0  0.00000000000E+00  0.00000000000E+00  0.57627595215E+03  0.57627595215E+03  0.00000000000E+00 0. -1.
         -2   -1    0    0    0  501 -0.00000000000E+00 -0.00000000000E+00 -0.39102705834E+02  0.39102705834E+02  0.00000000000E+00 0.  1.
         25    2    1    2    0    0 -0.82504054908E+02  0.62194774364E+02  0.28659318990E+03  0.32932993999E+03  0.12508974317E+03 0.  0.
          5    1    3    3  502    0 -0.10526638921E+03  0.10831416175E+02  0.18766974163E+03  0.21548952781E+03  0.41800000000E+01 0. -1.
         -5    1    3    3    0  502  0.22762334307E+02  0.51363358189E+02  0.98923448269E+02  0.11384041218E+03  0.41800000000E+01 0. -1.
        -11    1    1    2    0    0  0.17734838982E+02  0.91292739342E+01  0.27310220365E+01  0.20132725539E+02  0.00000000000E+00 0.  1.
         11    1    1    2    0    0  0.64769215926E+02 -0.71324048298E+02  0.24784903438E+03  0.26591599245E+03  0.00000000000E+00 0. -1.
</event>
<event>
 7    1  0.2394257E-009  0.7411326E+02  0.7561462E-02  0.1346639E+00
         -2   -1    0    0    0  501 -0.00000000000E+00  0.00000000000E+00  0.78871974310E+02  0.78871974310E+02  0.00000000000E+00 0.  1.
          2   -1    0    0  501    0  0.00000000000E+00 -0.00000000000E+00 -0.17924227559E+03  0.17924227559E+03  0.00000000000E+00 0. -1.
         25    2    1    2    0    0  0.16220590087E+02  0.29948475788E+02 -0.15234243857E+02  0.13053191786E+03  0.12508589309E+03 0.  0.
          5    1    3    3  502    0  0.31699102984E+02 -0.72225319190E+01  0.46389043159E+02  0.56801530108E+02  0.41800000000E+01 0.  1.
         -5    1    3    3    0  502 -0.15478512897E+02  0.37171007707E+02 -0.61623287016E+02  0.73730387753E+02  0.41800000000E+01 0.  1.
        -11    1    1    2    0    0 -0.32587332868E+02 -0.43055885424E+02 -0.17487746727E+02  0.56758830314E+02  0.00000000000E+00 0.  1.
         11    1    1    2    0    0  0.16366742781E+02  0.13107409635E+02 -0.67648310697E+02  0.70823501726E+02  0.00000000000E+00 0. -1.
</event>
<event>
 7    1  0.2394257E-009  0.1054812E+03  0.7561462E-02  0.1269174E+00
          1   -1    0    0  501    0  0.00000000000E+00  0.00000000000E+00  0.41583909269E+03  0.41583909269E+03  0.00000000000E+00 0. -1.
         -1   -1    0    0    0  501 -0.00000000000E+00 -0.00000000000E+00 -0.29746746293E+02  0.29746746293E+02  0.00000000000E+00 0.  1.
         25    2    1    2    0    0  0.19957830246E+02 -0.23675780809E+01  0.22439669430E+03  0.25769220821E+03  0.12508987708E+03 0.  0.
          5    1    3    3  502    0 -0.31333090477E+02  0.45934489935E+02  0.10868935731E+03  0.12215804810E+03  0.41800000000E+01 0. -1.
         -5    1    3    3    0  502  0.51290920723E+02 -0.48302068016E+02  0.11570733699E+03  0.13553416011E+03  0.41800000000E+01 0. -1.
        -11    1    1    2    0    0  0.31764221516E+02 -0.57139746180E+01  0.10874777851E+03  0.11343586120E+03  0.00000000000E+00 0. -1.
         11    1    1    2    0    0 -0.51722051761E+02  0.80815526989E+01  0.52947873590E+02  0.74457769575E+02  0.00000000000E+00 0.  1.
</event>
<event>
 7    1  0.2394257E-009  0.1980430E+03  0.7561462E-02  0.1151401E+00
          1   -1    0    0  501    0  0.00000000000E+00  0.00000000000E+00  0.14805746259E+03  0.14805746259E+03  0.00000000000E+00 0. -1.
         -1   -1    0    0    0  501 -0.00000000000E+00 -0.00000000000E+00 -0.29772060562E+03  0.29772060562E+03  0.00000000000E+00 0.  1.
         25    2    1    2    0    0  0.13830870468E+03 -0.11339223339E+03 -0.58093803924E+02  0.22585076262E+03  0.12508629236E+03 0.  0.
          5    1    3    3  502    0  0.10830288970E+03 -0.92841551137E+01 -0.18059397668E+02  0.11026933254E+03  0.41800000000E+01 0.  1.
         -5    1    3    3    0  502  0.30005814974E+02 -0.10410807828E+03 -0.40034406256E+02  0.11558143008E+03  0.41800000000E+01 0.  1.
        -11    1    1    2    0    0 -0.75883896725E+02  0.64307204227E+02 -0.99802276529E+00  0.99472500456E+02  0.00000000000E+00 0. -1.
         11    1    1    2    0    0 -0.62424807953E+02  0.49085029164E+02 -0.90571316346E+02  0.12045480514E+03  0.00000000000E+00 0.  1.
</event>
<event>
 7    1  0.2394257E-009  0.1516919E+03  0.7561462E-02  0.1198409E+00
          2   -1    0    0  501    0  0.00000000000E+00  0.00000000000E+00  0.73561391921E+03  0.73561391921E+03  0.00000000000E+00 0. -1.
         -2   -1    0    0    0  501 -0.00000000000E+00 -0.00000000000E+00 -0.35189489208E+02  0.35189489208E+02  0.00000000000E+00 0.  1.
         25    2    1    2    0    0  0.10321887265E+03 -0.50245271056E+02  0.30523567297E+03  0.34927235801E+03  0.12507454210E+03 0.  0.
          5    1    3    3  502    0  0.61235055528E+02  0.30876496407E+02  0.75890982102E+02  0.10237188882E+03  0.41800000000E+01 0.  1.
         -5    1    3    3    0  502  0.41983817123E+02 -0.81121767464E+02  0.22934469087E+03  0.24690046919E+03  0.41800000000E+01 0.  1.
        -11    1    1    2    0    0 -0.79912876850E+02  0.74748395777E+02  0.25818638579E+03  0.28041683324E+03  0.00000000000E+00 0.  1.
         11    1    1    2    0    0 -0.23305995801E+02 -0.24503124721E+02  0.13700237124E+03  0.14111421717E+03  0.00000000000E+00 0. -1.
</event>
<event>
 7    1  0.2394257E-009  0.1005667E+03  0.7561462E-02  0.1279109E+00
         -4   -1    0    0    0  501 -0.00000000000E+00  0.00000000000E+00  0.29527284438E+02  0.29527284438E+02  0.00000000000E+00 0.  1.
          4   -1    0    0  501    0  0.00000000000E+00 -0.00000000000E+00 -0.68171005433E+03  0.68171005433E+03  0.00000000000E+00 0. -1.
         25    2    1    2    0    0 -0.61882689394E+02 -0.66071784035E+02 -0.39809368622E+03  0.42699187053E+03  0.12509407098E+03 0.  0.
          5    1    3    3  502    0  0.27169786736E+01 -0.18518741887E+02 -0.29817159532E+03  0.29878771466E+03  0.41800000000E+01 0.  1.
         -5    1    3    3    0  502 -0.64599668068E+02 -0.47553042148E+02 -0.99922090902E+02  0.12820415587E+03  0.41800000000E+01 0.  1.
        -11    1    1    2    0    0  0.42281434471E+02  0.11752888978E+02 -0.30811112278E+02  0.53620655908E+02  0.00000000000E+00 0.  1.
         11    1    1    2    0    0  0.19601254923E+02  0.54318895057E+02 -0.22327797139E+03  0.23062481233E+03  0.00000000000E+00 0. -1.
</event>
<event>
 7    1  0.2394257E-009  0.9400504E+02  0.7561462E-02  0.1293433E+00
          1   -1    0    0  501    0  0.00000000000E+00  0.00000000000E+00  0.43514102019E+03  0.43514102019E+03  0.00000000000E+00 0. -1.
         -1   -1    0    0    0  501 -0.00000000000E+00 -0.00000000000E+00 -0.31556220675E+02  0.31556220675E+02  0.00000000000E+00 0.  1.
         25    2    1    2    0    0 -0.35562103504E+01 -0.44392709910E+02  0.22050757897E+03  0.25739795619E+03  0.12508699431E+03 0.  0.
          5    1    3    3  502    0  0.42732499029E+02 -0.54553979877E+01  0.17840872910E+03  0.18358369987E+03  0.41800000000E+01 0.  1.
         -5    1    3    3    0  502 -0.46288709379E+02 -0.38937311922E+02  0.42098849869E+02  0.73814256320E+02  0.41800000000E+01 0.  1.
        -11    1    1    2    0    0  0.33522755504E+02  0.42417474392E+02  0.16636776357E+03  0.17493212977E+03  0.00000000000E+00 0. -1.
         11    1    1    2    0    0 -0.29966545154E+02  0.19752355184E+01  0.16709456982E+02  0.34367154907E+02  0.00000000000E+00 0.  1.
</event>
<event>
 7    1  0.2394257E-009  0.9857638E+02  0.7561462E-02  0.1283318E+00
         -2   -1    0    0    0  501 -0.00000000000E+00  0.00000000000E+00  0.53481986223E+02  0.53481986223E+02  0.00000000000E+00 0. -1.
          2   -1    0    0  501    0  0.00000000000E+00 -0.00000000000E+00 -0.26984701244E+03  0.26984701244E+03  0.00000000000E+00 0.  1.
         25    2    1    2    0    0 -0.41838175588E+02  0.18893073817E+02 -0.12413890320E+03  0.18211324603E+03  0.12508951162E+03 0.  0.
          5    1    3    3  502    0 -0.22774248655E+02 -0.52033369772E+02 -0.72690794783E+02  0.92344799626E+02  0.41800000000E+01 0. -1.
         -5    1    3    3    0  502 -0.19063926933E+02  0.70926443590E+02 -0.51448108414E+02  0.89768446404E+02  0.41800000000E+01 0. -1.
        -11    1    1    2    0    0 -0.68720209489E+01 -0.16493815832E+02 -0.90678252212E+02  0.92421945753E+02  0.00000000000E+00 0.  1.
         11    1    1    2    0    0  0.48710196537E+02 -0.23992579852E+01 -0.15478708045E+01  0.48793806877E+02  0.00000000000E+00 0. -1.
</event>
<event>
 7    1  0.2394257E-009  0.8252203E+02  0.7561462E-02  0.1322043E+00
          1   -1    0    0  501    0  0.00000000000E+00  0.00000000000E+00  0.26470862588E+03  0.26470862588E+03  0.00000000000E+00 0. -1.
         -1   -1    0    0    0  501 -0.00000000000E+00 -0.00000000000E+00 -0.51906083224E+02  0.51906083224E+02  0.00000000000E+00 0.  1.
         25    2    1    2    0    0 -0.30162751656E+02 -0.71993507694E+01  0.15735351362E+03  0.20339463275E+03  0.12509047184E+03 0.  0.
          5    1    3    3  502    0 -0.45069829753E+01  0.35340226031E+02  0.14848841346E+03  0.15275969954E+03  0.41800000000E+01 0. -1.
         -5    1    3    3    0  502 -0.25655768681E+02 -0.42539576800E+02  0.88651001624E+01  0.50634933216E+02  0.41800000000E+01 0. -1.
        -11    1    1    2    0    0  0.47164391956E+02  0.26094849887E+02  0.18895609501E+01  0.53935067441E+02  0.00000000000E+00 0.  1.
         11    1    1    2    0    0 -0.17001640301E+02 -0.18895499118E+02  0.53559468085E+02  0.59285008909E+02  0.00000000000E+00 0. -1.
</event>
<event>
 7    1  0.2394257E-009  0.1089701E+03  0.7561462E-02  0.1262489E+00
          2   -1    0    0  501    0  0.00000000000E+00  0.00000000000E+00  0.83720085456E+03  0.83720085456E+03  0.00000000000E+00 0.  1.
         -2   -1    0    0    0  501 -0.00000000000E+00 -0.00000000000E+00 -0.21286856439E+02  0.21286856439E+02  0.00000000000E+00 0. -1.
         25    2    1    2    0    0 -0.67500155131E+02 -0.20227160226E+02  0.55979269792E+03  0.57791023188E+03  0.12508781921E+03 0.  0.
          5    1    3    3  502    0 -0.33610620900E+01 -0.47157164229E+02  0.79510955140E+02  0.92598916104E+02  0.41800000000E+01 0. -1.
         -5    1    3    3    0  502 -0.64139093041E+02  0.26930004003E+02  0.48028174278E+03  0.48531131577E+03  0.41800000000E+01 0. -1.
        -11    1    1    2    0    0 -0.36735295725E+01  0.28861771016E+02  0.14808462977E+03  0.15091571893E+03  0.00000000000E+00 0.  1.
         11    1    1    2    0    0  0.71173684704E+02 -0.86346107900E+01  0.10803667043E+03  0.12966176019E+03  0.00000000000E+00 0. -1.
</event>
<event>
 7    1  0.2394257E-009  0.3015504E+03  0.7561462E-02  0.1084468E+00
         -2   -1    0    0    0  501 -0.00000000000E+00  0.00000000000E+00  0.39377045361E+03  0.39377045361E+03  0.00000000000E+00 0.  1.
          2   -1    0    0  501    0  0.00000000000E+00 -0.00000000000E+00 -0.25904327642E+03  0.25904327642E+03  0.00000000000E+00 0. -1.
         25    2    1    2    0    0  0.24370129535E+02 -0.28686614946E+03  0.15501562928E+03  0.35009223971E+03  0.12509452452E+03 0.  0.
          5    1    3    3  502    0 -0.35846440828E+02 -0.28825528835E+02  0.74949723306E+01  0.46792365220E+02  0.41800000000E+01 0. -1.
         -5    1    3    3    0  502  0.60216570363E+02 -0.25804062062E+03  0.14752065695E+03  0.30329987449E+03  0.41800000000E+01 0. -1.
        -11    1    1    2    0    0  0.14551658965E+02  0.97637595824E+02 -0.44007310610E+02  0.10808096171E+03  0.00000000000E+00 0.  1.
         11    1    1    2    0    0 -0.38921788500E+02  0.18922855363E+03  0.23718858515E+02  0.19464052861E+03  0.00000000000E+00 0. -1.
</event>
<event>
 7    1  0.2394257E-009  0.8198290E+02  0.7561462E-02  0.1323517E+00
          1   -1    0    0  501    0  0.00000000000E+00  0.00000000000E+00  0.42410512152E+02  0.42410512152E+02  0.00000000000E+00 0. -1.
         -1   -1    0    0    0  501 -0.00000000000E+00 -0.00000000000E+00 -0.37525049412E+03  0.37525049412E+03  0.00000000000E+00 0.  1.
         25    2    1    2    0    0 -0.26943350910E+02  0.47679787075E+02 -0.24127129269E+03  0.27723656637E+03  0.12509584647E+03 0.  0.
          5    1    3    3  502    0 -0.27069461739E+02  0.56396428626E+02 -0.25378988786E+03  0.26141938050E+03  0.41800000000E+01 0. -1.
         -5    1    3    3    0  502  0.12611082858E+00 -0.87166415506E+01  0.12518595172E+02  0.15817185873E+02  0.41800000000E+01 0. -1.
        -11    1    1    2    0    0  0.24031900483E+02 -0.67457854587E+02 -0.96177196275E+02  0.11990891322E+03  0.00000000000E+00 0.  1.
         11    1    1    2    0    0  0.29114504275E+01  0.19778067512E+02  0.46085069967E+01  0.20515526677E+02  0.00000000000E+00 0. -1.
</event>
<event>
 7    1  0.2394257E-009  0.1131853E+03  0.7561462E-02  0.1254782E+00
          1   -1    0    0  501    0  0.00000000000E+00  0.00000000000E+00  0.58772304272E+03  0.58772304272E+03  0.00000000000E+00 0. -1.
         -1   -1    0    0    0  501 -0.00000000000E+00 -0.00000000000E+00 -0.34804665114E+02  0.34804665114E+02  0.00000000000E+00 0.  1.
         25    2    1    2    0    0 -0.77550091801E+02 -0.36941028472E+02  0.23182101907E+03  0.27706913175E+03  0.12509061740E+03 0.  0.
          5    1    3    3  502    0 -0.81294914438E+02 -0.11352429420E+02  0.56346928304E+02  0.99650336158E+02  0.41800000000E+01 0.  1.
         -5    1    3    3    0  502  0.37448226364E+01 -0.25588599052E+02  0.17547409077E+03  0.17741879559E+03  0.41800000000E+01 0.  1.
        -11    1    1    2    0    0  0.94604384922E+02  0.27647485167E+02  0.30401618034E+03  0.31959382189E+03  0.00000000000E+00 0. -1.
         11    1    1    2    0    0 -0.17054293121E+02  0.92935433047E+01  0.17081178195E+02  0.25864754194E+02  0.00000000000E+00 0.  1.
</event>
<event>
 7    1  0.2394257E-009  0.1442656E+03  0.7561462E-02  0.1207702E+00
         -1   -1    0    0    0  501 -0.00000000000E+00  0.00000000000E+00  0.52208270036E+02  0.52208270036E+02  0.00000000000E+00 0.  1.
          1   -1    0    0  501    0  0.00000000000E+00 -0.00000000000E+00 -0.59733574724E+03  0.59733574724E+03  0.00000000000E+00 0. -1.
         25    2    1    2    0    0  0.10551555907E+03  0.32160857187E+02 -0.13355175009E+03  0.21366437067E+03  0.12509412217E+03 0.  0.
          5    1    3    3  502    0  0.17707868781E+02 -0.35684007816E+02 -0.98981434122E-01  0.40054952601E+02  0.41800000000E+01 0.  1.
         -5    1    3    3    0  502  0.87807690285E+02  0.67844865003E+02 -0.13345276866E+03  0.17360941807E+03  0.41800000000E+01 0.  1.
        -11    1    1    2    0    0 -0.15485702312E+02  0.25991858969E+02 -0.47168737054E+02  0.56038142939E+02  0.00000000000E+00 0.  1.
         11    1    1    2    0    0 -0.90029856754E+02 -0.58152716157E+02 -0.36440699005E+03  0.37984150366E+03  0.00000000000E+00 0. -1.
</event>
<event>
 7    1  0.2394257E-009  0.2050624E+03  0.7561462E-02  0.1145537E+00
          2   -1    0    0  501    0  0.00000000000E+00  0.00000000000E+00  0.16754982615E+04  0.16754982615E+04  0.00000000000E+00 0. -1.
         -2   -1    0    0    0  501 -0.00000000000E+00 -0.00000000000E+00 -0.30080912194E+02  0.30080912194E+02  0.00000000000E+00 0.  1.
         25    2    1    2    0    0 -0.14530400151E+03 -0.10976488299E+03  0.11286917308E+04  0.11501106113E+04  0.12509121825E+03 0.  0.
          5    1    3    3  502    0 -0.30014230753E+02  0.27982147265E+02  0.21387761786E+03  0.21781864574E+03  0.41800000000E+01 0. -1.
         -5    1    3    3    0  502 -0.11528977075E+03 -0.13774703025E+03  0.91481411289E+03  0.93229196561E+03  0.41800000000E+01 0. -1.
        -11    1    1    2    0    0  0.75278641845E+02  0.88143461767E+02  0.40950590298E+03  0.42559514606E+03  0.00000000000E+00 0. -1.
         11    1    1    2    0    0  0.70025359661E+02  0.21621421220E+02  0.10721971559E+03  0.12987341630E+03  0.00000000000E+00 0.  1.
</event>
<event>
 7    1  0.2394257E-009  0.1412198E+03  0.7561462E-02  0.1211697E+00
         -1   -1    0    0    0  501 -0.00000000000E+00  0.00000000000E+00  0.14804875665E+03  0.14804875665E+03  0.00000000000E+00 0.  1.
          1   -1    0    0  501    0  0.00000000000E+00 -0.00000000000E+00 -0.17832178616E+03  0.17832178616E+03  0.00000000000E+00 0. -1.
         25    2    1    2    0    0  0.10734836467E+03 -0.23259266959E+02  0.35411487835E+02  0.17020176333E+03  0.12509996752E+03 0.  0.
          5    1    3    3  502    0  0.87789825101E+02 -0.64053759935E+02  0.53621774242E+02  0.12125470971E+03  0.41800000000E+01 0. -1.
         -5    1    3    3    0  502  0.19558539568E+02  0.40794492976E+02 -0.18210286407E+02  0.48947053622E+02  0.41800000000E+01 0. -1.
        -11    1    1    2    0    0 -0.39213132117E+02 -0.23407209747E+02  0.69418523372E+01  0.46192602356E+02  0.00000000000E+00 0.  1.
         11    1    1    2    0    0 -0.68135232552E+02  0.46666476706E+02 -0.72626369679E+02  0.10997617713E+03  0.00000000000E+00 0. -1.
</event>
<event>
 7    1  0.2399567E-009  0.5896739E+02  0.7561462E-02  0.1402217E+00
          3   -1    0    0  501    0  0.00000000000E+00  0.00000000000E+00  0.38109317895E+03  0.38109317895E+03  0.00000000000E+00 0. -1.
         -3   -1    0    0    0  501 -0.00000000000E+00 -0.00000000000E+00 -0.38924629652E+02  0.38924629652E+02  0.00000000000E+00 0.  1.
         25    2    1    2    0    0 -0.24436669723E+01 -0.99336602330E+01  0.98854915026E+02  0.15976158731E+03  0.12508725531E+03 0.  0.
          5    1    3    3  502    0 -0.20051773763E+01  0.94826741707E+01 -0.28746427226E+02  0.30623052167E+02  0.41800000000E+01 0.  1.
         -5    1    3    3    0  502 -0.43848959602E+00 -0.19416334404E+02  0.12760134225E+03  0.12913853514E+03  0.41800000000E+01 0.  1.
        -11    1    1    2    0    0 -0.37667025490E+02  0.24393572864E+02  0.82832869984E+02  0.94207937862E+02  0.00000000000E+00 0.  1.
         11    1    1    2    0    0  0.40110692463E+02 -0.14459912631E+02  0.16048076429E+03  0.16604828343E+03  0.00000000000E+00 0. -1.
</event>
<event>
 7    1  0.2394257E-009  0.1365058E+03  0.7561462E-02  0.1218110E+00
          1   -1    0    0  501    0  0.00000000000E+00  0.00000000000E+00  0.16957042671E+04  0.16957042671E+04  0.00000000000E+00 0. -1.
         -1   -1    0    0    0  501 -0.00000000000E+00 -0.00000000000E+00 -0.19796645747E+02  0.19796645747E+02  0.00000000000E+00 0.  1.
         25    2    1    2    0    0 -0.64364914659E+02  0.82980699649E+02  0.13665689038E+04  0.13762944333E+04  0.12508860679E+03 0.  0.
          5    1    3    3  502    0 -0.83170447102E+01 -0.31721887647E+02  0.39179191161E+03  0.39318421356E+03  0.41800000000E+01 0.  1.
         -5    1    3    3    0  502 -0.56047869948E+02  0.11470258730E+03  0.97477699223E+03  0.98311021979E+03  0.41800000000E+01 0.  1.
        -11    1    1    2    0    0  0.26031375835E+02 -0.64720457395E+02  0.27750244493E+03  0.28613629108E+03  0.00000000000E+00 0. -1.
         11    1    1    2    0    0  0.38333538823E+02 -0.18260242253E+02  0.31836272553E+02  0.53070188392E+02  0.00000000000E+00 0.  1.
</event>
<event>
 7    1  0.2394257E-009  0.1020687E+03  0.7561462E-02  0.1276005E+00
         -2   -1    0    0    0  501 -0.00000000000E+00  0.00000000000E+00  0.28236512842E+03  0.28236512842E+03  0.00000000000E+00 0.  1.
          2   -1    0    0  501    0  0.00000000000E+00 -0.00000000000E+00 -0.71318231936E+02  0.71318231936E+02  0.00000000000E+00 0. -1.
         25    2    1    2    0    0  0.74040288367E+02 -0.44054001389E+02  0.77976061860E+02  0.17074765040E+03  0.12510705237E+03 0.  0.
          5    1    3    3  502    0  0.80501155694E+02 -0.29869566806E+02  0.10717141016E+03  0.13738926685E+03  0.41800000000E+01 0. -1.
         -5    1    3    3    0  502 -0.64608673266E+01 -0.14184434583E+02 -0.29195348297E+02  0.33358383553E+02  0.41800000000E+01 0. -1.
        -11    1    1    2    0    0 -0.35218392458E+02 -0.89462775024E+01  0.10568769729E+03  0.11175983360E+03  0.00000000000E+00 0.  1.
         11    1    1    2    0    0 -0.38821895910E+02  0.53000278891E+02  0.27383137333E+02  0.71175876354E+02  0.00000000000E+00 0. -1.
</event>
<event>
 7    1  0.2394257E-009  0.7371700E+02  0.7561462E-02  0.1347891E+00
          3   -1    0    0  501    0  0.00000000000E+00  0.00000000000E+00  0.17609538225E+03  0.17609538225E+03  0.00000000000E+00 0. -1.
         -3   -1    0    0    0  501 -0.00000000000E+00 -0.00000000000E+00 -0.76974974211E+02  0.76974974211E+02  0.00000000000E+00 0.  1.
         25    2    1    2    0    0  0.29818688046E+02 -0.29320426250E+02  0.62768894719E+02  0.14606930228E+03  0.12508982921E+03 0.  0.
          5    1    3    3  502    0  0.64103279600E+02 -0.10598602967E+02 -0.75257486080E+01  0.65541361998E+02  0.41800000000E+01 0.  1.
         -5    1    3    3    0  502 -0.34284591554E+02 -0.18721823283E+02  0.70294643327E+02  0.80527940279E+02  0.41800000000E+01 0.  1.
        -11    1    1    2    0    0 -0.18533508699E+02  0.24617003399E+02 -0.27917338654E+02  0.41579629610E+02  0.00000000000E+00 0.  1.
         11    1    1    2    0    0 -0.11285179347E+02  0.47034228519E+01  0.64268851977E+02  0.65421424579E+02  0.00000000000E+00 0. -1.
</event>
<event>
 7    1  0.2394257E-009  0.3900099E+03  0.7561462E-02  0.1047295E+00
          2   -1    0    0  501    0  0.00000000000E+00  0.00000000000E+00  0.22533054474E+04  0.22533054474E+04  0.00000000000E+00 0. -1.
         -2   -1    0    0    0  501 -0.00000000000E+00 -0.00000000000E+00 -0.13229527368E+03  0.13229527368E+03  0.00000000000E+00 0.  1.
         25    2    1    2    0    0 -0.33706176738E+03  0.19542760651E+03  0.18682841115E+04  0.19125734274E+04  0.12509600176E+03 0.  0.
          5    1    3    3  502    0 -0.52072826051E+02  0.22622289364E+02  0.54466153870E+03  0.54762853407E+03  0.41800000000E+01 0. -1.
         -5    1    3    3    0  502 -0.28498894132E+03  0.17280531715E+03  0.13236225728E+04  0.13649448934E+04  0.41800000000E+01 0. -1.
        -11    1    1    2    0    0  0.13309573863E+03 -0.70890378612E+02  0.15066269073E+03  0.21316464950E+03  0.00000000000E+00 0. -1.
         11    1    1    2    0    0  0.20396602875E+03 -0.12453722790E+03  0.10206337150E+03  0.25986264414E+03  0.00000000000E+00 0.  1.
</event>
<event>
 7    1  0.2394257E-009  0.9409802E+02  0.7561462E-02  0.1293221E+00
         -1   -1    0    0    0  501 -0.00000000000E+00  0.00000000000E+00  0.18345018876E+02  0.18345018876E+02  0.00000000000E+00 0.  1.
          1   -1    0    0  501    0  0.00000000000E+00 -0.00000000000E+00 -0.87722618012E+03  0.87722618012E+03  0.00000000000E+00 0. -1.
         25    2    1    2    0    0 -0.45289466322E+02  0.39804935780E+02 -0.54221521347E+03  0.55971574188E+03  0.12509518502E+03 0.  0.
          5    1    3    3  502    0  0.56485717059E+01  0.43590936821E+02 -0.46468502148E+03  0.46677801761E+03  0.41800000000E+01 0.  1.
         -5    1    3    3    0  502 -0.50938038028E+02 -0.37860010411E+01 -0.77530191991E+02  0.92937724268E+02  0.41800000000E+01 0.  1.
        -11    1    1    2    0    0 -0.75835569414E+01  0.14896315570E+02 -0.91242166343E+01  0.19043683536E+02  0.00000000000E+00 0.  1.
         11    1    1    2    0    0  0.52873023264E+02 -0.54701251350E+02 -0.30754173113E+03  0.31681177357E+03  0.00000000000E+00 0. -1.
</event>
<event>
 7    1  0.2394257E-009  0.2180337E+03  0.7561462E-02  0.1135358E+00
          1   -1    0    0  501    0  0.00000000000E+00  0.00000000000E+00  0.10495095340E+03  0.10495095340E+03  0.00000000000E+00 0. -1.
         -1   -1    0    0    0  501 -0.00000000000E+00 -0.00000000000E+00 -0.53354501445E+03  0.53354501445E+03  0.00000000000E+00 0.  1.
         25    2    1    2    0    0 -0.19151744354E+03  0.33227405700E+02 -0.11429839562E+03  0.25786472482E+03  0.12508837434E+03 0.  0.
          5    1    3    3  502    0 -0.15457331159E+03 -0.25684363208E+02 -0.54181181583E+02  0.16584832832E+03  0.41800000000E+01 0. -1.
         -5    1    3    3    0  502 -0.36944131952E+02  0.58911768908E+02 -0.60117214038E+02  0.92016396503E+02  0.41800000000E+01 0. -1.
        -11    1    1    2    0    0  0.13749814217E+03  0.13595158012E+02 -0.24380824722E+03  0.28023745081E+03  0.00000000000E+00 0.  1.
         11    1    1    2    0    0  0.54019301369E+02 -0.46822563712E+02 -0.70487418197E+02  0.10039379222E+03  0.00000000000E+00 0. -1.
</event>
<event>
 7    1  0.2394257E-009  0.1092782E+03  0.7561462E-02  0.1261912E+00
          2   -1    0    0  501    0  0.00000000000E+00  0.00000000000E+00  0.90075658047E+02  0.90075658047E+02  0.00000000000E+00 0. -1.
         -2   -1    0    0    0  501 -0.00000000000E+00 -0.00000000000E+00 -0.27436005433E+03  0.27436005433E+03  0.00000000000E+00 0.  1.
         25    2    1    2    0    0 -0.22962863146E+02  0.26490277038E+02  0.21907376203E+02  0.13174402745E+03  0.12509007864E+03 0.  0.
          5    1    3    3  502    0  0.31928983085E+02  0.43576450320E+02  0.44217349459E+02  0.69935780373E+02  0.41800000000E+01 0. -1.
         -5    1    3    3    0  502 -0.54891846231E+02 -0.17086173281E+02 -0.22309973256E+02  0.61808247077E+02  0.41800000000E+01 0. -1.
        -11    1    1    2    0    0 -0.40000489803E+02 -0.15045781320E+02 -0.99325461907E+02  0.10812937669E+03  0.00000000000E+00 0.  1.
         11    1    1    2    0    0  0.62963352949E+02 -0.11444495719E+02 -0.10686631058E+03  0.12456230824E+03  0.00000000000E+00 0. -1.
</event>
<event>
 7    1  0.2394257E-009  0.1512084E+03  0.7561462E-02  0.1198996E+00
          2   -1    0    0  501    0  0.00000000000E+00  0.00000000000E+00  0.70890002324E+03  0.70890002324E+03  0.00000000000E+00 0. -1.
         -2   -1    0    0    0  501 -0.00000000000E+00 -0.00000000000E+00 -0.37879676106E+02  0.37879676106E+02  0.00000000000E+00 0.  1.
         25    2    1    2    0    0  0.99091471583E+02  0.59095617079E+02  0.27459036251E+03  0.32304403789E+03  0.12508465747E+03 0.  0.
          5    1    3    3  502    0  0.39596553457E+01  0.64277386747E+02  0.16827148400E+03  0.18022215747E+03  0.41800000000E+01 0.  1.
         -5    1    3    3    0  502  0.95131816238E+02 -0.51817696684E+01  0.10631887852E+03  0.14282188042E+03  0.41800000000E+01 0.  1.
        -11    1    1    2    0    0 -0.30202863716E+01  0.18672485259E+02  0.19980103817E+02  0.27513421890E+02  0.00000000000E+00 0.  1.
         11    1    1    2    0    0 -0.96071185212E+02 -0.77768102338E+02  0.37644988081E+03  0.39622223957E+03  0.00000000000E+00 0. -1.
</event>
<event>
 7    1  0.2394257E-009  0.1016287E+03  0.7561462E-02  0.1276908E+00
         -1   -1    0    0    0  501 -0.00000000000E+00  0.00000000000E+00  0.11049270118E+03  0.11049270118E+03  0.00000000000E+00 0.  1.
          1   -1    0    0  501    0  0.00000000000E+00 -0.00000000000E+00 -0.15949968430E+03  0.15949968430E+03  0.00000000000E+00 0. -1.
         25    2    1    2    0    0  0.55942925188E+02 -0.10059233707E+02  0.23613925508E+02  0.13940485594E+03  0.12508116293E+03 0.  0.
          5    1    3    3  502    0 -0.39041349144E+02 -0.15069829716E+02  0.99853841883E+01  0.43226230556E+02  0.41800000000E+01 0.  1.
         -5    1    3    3    0  502  0.94984274332E+02  0.50105960093E+01  0.13628541320E+02  0.96178625387E+02  0.41800000000E+01 0.  1.
        -11    1    1    2    0    0 -0.11612940308E+01  0.11139521361E+02  0.20029338745E+02  0.22948027161E+02  0.00000000000E+00 0.  1.
         11    1    1    2    0    0 -0.54781631158E+02 -0.10802876544E+01 -0.92650247376E+02  0.10763950238E+03  0.00000000000E+00 0. -1.
</event>
<event>
 7    1  0.2394257E-009  0.5544604E+02  0.7561462E-02  0.1418001E+00
         -2   -1    0    0    0  501 -0.00000000000E+00  0.00000000000E+00  0.48430598774E+03  0.48430598774E+03  0.00000000000E+00 0.  1.
          2   -1    0    0  501    0  0.00000000000E+00 -0.00000000000E+00 -0.24942673695E+02  0.24942673695E+02  0.00000000000E+00 0. -1.
         25    2    1    2    0    0  0.88521391230E+01 -0.53305921011E+01  0.29985302806E+03  0.32506331240E+03  0.12509013971E+03 0.  0.
          5    1    3    3  502    0  0.23293467932E+02 -0.17866586637E+02  0.30367460267E+03  0.30511889039E+03  0.41800000000E+01 0.  1.
         -5    1    3    3    0  502 -0.14441328810E+02  0.12535994535E+02 -0.38215746092E+01  0.19944422009E+02  0.41800000000E+01 0.  1.
        -11    1    1    2    0    0  0.24137026575E+02 -0.89154080340E+01  0.58608445410E+01  0.26389961179E+02  0.00000000000E+00 0. -1.
         11    1    1    2    0    0 -0.32989165698E+02  0.14246000135E+02  0.15364944145E+03  0.15779538786E+03  0.00000000000E+00 0.  1.
</event>
<event>
 7    1  0.2394257E-009  0.1172646E+03  0.7561462E-02  0.1247679E+00
          1   -1    0    0  501    0  0.00000000000E+00  0.00000000000E+00  0.40856571221E+03  0.40856571221E+03  0.00000000000E+00 0. -1.
         -1   -1    0    0    0  501 -0.00000000000E+00 -0.00000000000E+00 -0.13255929307E+03  0.13255929307E+03  0.00000000000E+00 0.  1.
         25    2    1    2    0    0  0.25758715226E+02 -0.72509209599E+02 -0.78813593958E+02  0.16667514743E+03  0.12509166756E+03 0.  0.
          5    1    3    3  502    0 -0.11197201354E+02  0.31174373244E+02 -0.34307238264E+02  0.47871472326E+02  0.41800000000E+01 0. -1.
         -5    1    3    3    0  502  0.36955916579E+02 -0.10368358284E+03 -0.44506355694E+02  0.11880367511E+03  0.41800000000E+01 0. -1.
        -11    1    1    2    0    0  0.70033179607E+00  0.62803098061E+02  0.33282628134E+03  0.33870053608E+03  0.00000000000E+00 0. -1.
         11    1    1    2    0    0 -0.26459047022E+02  0.97061115384E+01  0.21993731746E+02  0.35749321764E+02  0.00000000000E+00 0.  1.
</event>
<event>
 7    1  0.2394257E-009  0.3004527E+03  0.7561462E-02  0.1085015E+00
          1   -1    0    0  501    0  0.00000000000E+00  0.00000000000E+00  0.72262503828E+03  0.72262503828E+03  0.00000000000E+00 0. -1.
         -1   -1    0    0    0  501 -0.00000000000E+00 -0.00000000000E+00 -0.13658080671E+03  0.13658080671E+03  0.00000000000E+00 0.  1.
         25    2    1    2    0    0 -0.91931426946E+02 -0.27539369418E+03  0.35880470909E+03  0.47820693123E+03  0.12509186927E+03 0.  0.
          5    1    3    3  502    0  0.38758523085E+01 -0.32217862090E+01  0.68726602390E+02  0.69037818720E+02  0.41800000000E+01 0.  1.
         -5    1    3    3    0  502 -0.95807279255E+02 -0.27217190797E+03  0.29007810670E+03  0.40916911251E+03  0.41800000000E+01 0.  1.
        -11    1    1    2    0    0  0.11053134248E+03  0.20413014268E+03  0.17474689349E+03  0.29055596639E+03  0.00000000000E+00 0. -1.
         11    1    1    2    0    0 -0.18599915529E+02  0.71263551507E+02  0.52492628992E+02  0.90442947373E+02  0.00000000000E+00 0.  1.
</event>
<event>
 7    1  0.2394257E-009  0.1316506E+03  0.7561462E-02  0.1225027E+00
         -1   -1    0    0    0  501 -0.00000000000E+00  0.00000000000E+00  0.57390347169E+02  0.57390347169E+02  0.00000000000E+00 0.  1.
          1   -1    0    0  501    0  0.00000000000E+00 -0.00000000000E+00 -0.33216077311E+03  0.33216077311E+03  0.00000000000E+00 0. -1.
         25    2    1    2    0    0 -0.63969565498E+02  0.52752944500E+02 -0.12193177565E+03  0.19335907532E+03  0.12508155593E+03 0.  0.
          5    1    3    3  502    0 -0.79381591495E+02  0.82936317578E+02 -0.10311852670E+03  0.15437218918E+03  0.41800000000E+01 0.  1.
         -5    1    3    3    0  502  0.15412025997E+02 -0.30183373077E+02 -0.18813248945E+02  0.38986886148E+02  0.41800000000E+01 0.  1.
        -11    1    1    2    0    0  0.39916113962E+02  0.14796173028E+02 -0.94881941537E+02  0.10399425811E+03  0.00000000000E+00 0. -1.
         11    1    1    2    0    0  0.24053451536E+02 -0.67549117528E+02 -0.57956708759E+02  0.92197786849E+02  0.00000000000E+00 0.  1.
</event>
<event>
 7    1  0.2394257E-009  0.1050603E+03  0.7561462E-02  0.1270001E+00
          2   -1    0    0  501    0  0.00000000000E+00  0.00000000000E+00  0.71390085821E+03  0.71390085821E+03  0.00000000000E+00 0. -1.
         -2   -1    0    0    0  501 -0.00000000000E+00 -0.00000000000E+00 -0.23689182060E+02  0.23689182060E+02  0.00000000000E+00 0.  1.
         25    2    1    2    0    0  0.36714154986E+02  0.11543075178E+02  0.54927602417E+03  0.56465254350E+03  0.12508865813E+03 0.  0.
          5    1    3    3  502    0  0.75339654777E+02  0.29623032501E+02  0.43744867412E+03  0.44489594573E+03  0.41800000000E+01 0.  1.
         -5    1    3    3    0  502 -0.38625499790E+02 -0.18079957323E+02  0.11182735005E+03  0.11975659777E+03  0.41800000000E+01 0.  1.
        -11    1    1    2    0    0  0.24262346112E+02 -0.69265228404E+00  0.88560003019E+02  0.91826005798E+02  0.00000000000E+00 0. -1.
         11    1    1    2    0    0 -0.60976501099E+02 -0.10850422894E+02  0.52375648958E+02  0.81111490967E+02  0.00000000000E+00 0.  1.
</event>
<event>
 7    1  0.2394257E-009  0.1044881E+03  0.7561462E-02  0.1271131E+00
         -2   -1    0    0    0  501 -0.00000000000E+00  0.00000000000E+00  0.12465041567E+03  0.12465041567E+03  0.00000000000E+00 0.  1.
          2   -1    0    0  501    0  0.00000000000E+00 -0.00000000000E+00 -0.18571716608E+03  0.18571716608E+03  0.00000000000E+00 0. -1.
         25    2    1    2    0    0 -0.28176654689E+02  0.64830781938E+02 -0.11224613636E+03  0.18232643647E+03  0.12508709027E+03 0.  0.
          5    1    3    3  502    0 -0.74402230254E+02  0.49031725280E+02 -0.47350637999E+02  0.10099186734E+03  0.41800000000E+01 0.  1.
         -5    1    3    3    0  502  0.46225575565E+02  0.15799056658E+02 -0.64895498362E+02  0.81334569128E+02  0.41800000000E+01 0.  1.
        -11    1    1    2    0    0  0.17708613909E+02 -0.44005484876E+02  0.78753425289E+02  0.91935736798E+02  0.00000000000E+00 0. -1.
         11    1    1    2    0    0  0.10468040781E+02 -0.20825297062E+02 -0.27574039344E+02  0.36105408476E+02  0.00000000000E+00 0.  1.
</event>
<event>
 7    1  0.2394257E-009  0.1441253E+03  0.7561462E-02  0.1207883E+00
         -1   -1    0    0    0  501 -0.00000000000E+00  0.00000000000E+00  0.12377796123E+03  0.12377796123E+03  0.00000000000E+00 0.  1.
          1   -1    0    0  501    0  0.00000000000E+00 -0.00000000000E+00 -0.21612806429E+03  0.21612806429E+03  0.00000000000E+00 0. -1.
         25    2    1    2    0    0  0.39919386831E+02  0.11505836172E+03 -0.66911693201E+02  0.18697404890E+03  0.12510050451E+03 0.  0.
          5    1    3    3  502    0  0.49052139489E+02  0.12629444312E+03 -0.87589382230E+02  0.16138702250E+03  0.41800000000E+01 0. -1.
         -5    1    3    3    0  502 -0.91327526589E+01 -0.11236081401E+02  0.20677689030E+02  0.25587026400E+02  0.41800000000E+01 0. -1.
        -11    1    1    2    0    0 -0.52402734817E+02 -0.11354597077E+03 -0.55992809039E+00  0.12505617783E+03  0.00000000000E+00 0.  1.
         11    1    1    2    0    0  0.12483347986E+02 -0.15123909460E+01 -0.24878481763E+02  0.27875798789E+02  0.00000000000E+00 0. -1.
</event>
<event>
 7    1  0.2394257E-009  0.5594912E+02  0.7561462E-02  0.1415663E+00
          1   -1    0    0  501    0  0.00000000000E+00  0.00000000000E+00  0.75131323894E+02  0.75131323894E+02  0.00000000000E+00 0. -1.
         -1   -1    0    0    0  501 -0.00000000000E+00 -0.00000000000E+00 -0.21661524196E+03  0.21661524196E+03  0.00000000000E+00 0.  1.
         25    2    1    2    0    0 -0.38215663186E+02  0.25835964887E+02 -0.13212494474E+03  0.18770253319E+03  0.12508919198E+03 0.  0.
          5    1    3    3  502    0 -0.14521159629E+01  0.82080101208E+00 -0.14190901182E+03  0.14198035917E+03  0.41800000000E+01 0. -1.
         -5    1    3    3    0  502 -0.36763547224E+02  0.25015163875E+02  0.97840670834E+01  0.45722174017E+02  0.41800000000E+01 0. -1.
        -11    1    1    2    0    0  0.18691631262E+02 -0.36118475854E+02 -0.45920198813E+02  0.61339922043E+02  0.00000000000E+00 0.  1.
         11    1    1    2    0    0  0.19524031925E+02  0.10282510967E+02  0.36561225488E+02  0.42704110616E+02  0.00000000000E+00 0. -1.
</event>
<event>
 7    1  0.2394257E-009  0.1704549E+03  0.7561462E-02  0.1177374E+00
          1   -1    0    0  501    0  0.00000000000E+00  0.00000000000E+00  0.32354743266E+03  0.32354743266E+03  0.00000000000E+00 0. -1.
         -1   -1    0    0    0  501 -0.00000000000E+00 -0.00000000000E+00 -0.13384600211E+03  0.13384600211E+03  0.00000000000E+00 0.  1.
         25    2    1    2    0    0  0.55854095589E+02 -0.14189301533E+03  0.19946375437E+03  0.28051085442E+03  0.12508893775E+03 0.  0.
          5    1    3    3  502    0  0.51584608947E+02 -0.36573156718E+02  0.10697628431E+02  0.64268805237E+02  0.41800000000E+01 0. -1.
         -5    1    3    3    0  502  0.42694866418E+01 -0.10531985861E+03  0.18876612594E+03  0.21624204919E+03  0.41800000000E+01 0. -1.
        -11    1    1    2    0    0 -0.28420617452E+01  0.11029891590E+03 -0.25395730938E+02  0.11322045449E+03  0.00000000000E+00 0.  1.
         11    1    1    2    0    0 -0.53012033844E+02  0.31594099425E+02  0.15633407122E+02  0.63662125860E+02  0.00000000000E+00 0. -1.
</event>
<event>
 7    1  0.2394257E-009  0.1746849E+03  0.7561462E-02  0.1173048E+00
         -1   -1    0    0    0  501 -0.00000000000E+00  0.00000000000E+00  0.35143638028E+03  0.35143638028E+03  0.00000000000E+00 0.  1.
          1   -1    0    0  501    0  0.00000000000E+00 -0.00000000000E+00 -0.88675167233E+02  0.88675167233E+02  0.00000000000E+00 0. -1.
         25    2    1    2    0    0 -0.64426094808E+02 -0.12304746842E+03  0.12787978824E+03  0.22648416949E+03  0.12510170906E+03 0.  0.
          5    1    3    3  502    0  0.36099109363E+02 -0.39383319743E+02  0.21099345672E+02  0.57592068539E+02  0.41800000000E+01 0.  1.
         -5    1    3    3    0  502 -0.10052520417E+03 -0.83664148677E+02  0.10678044257E+03  0.16889210095E+03  0.41800000000E+01 0.  1.
        -11    1    1    2    0    0  0.86199163652E+02  0.84801503172E+02  0.10749734476E+03  0.16179391177E+03  0.00000000000E+00 0. -1.
         11    1    1    2    0    0 -0.21773068844E+02  0.38245965249E+02  0.27384080049E+02  0.51833466263E+02  0.00000000000E+00 0.  1.
</event>
<event>
 7    1  0.2394257E-009  0.7704660E+02  0.7561462E-02  0.1337648E+00
          2   -1    0    0  501    0  0.00000000000E+00  0.00000000000E+00  0.14768774466E+03  0.14768774466E+03  0.00000000000E+00 0. -1.
         -2   -1    0    0    0  501 -0.00000000000E+00 -0.00000000000E+00 -0.86866291415E+02  0.86866291415E+02  0.00000000000E+00 0.  1.
         25    2    1    2    0    0  0.29531867259E+02  0.10689572187E+02  0.23047576327E+02  0.13101449097E+03  0.12508880019E+03 0.  0.
          5    1    3    3  502    0  0.28083841976E+02 -0.42310545867E+02 -0.27275733672E+02  0.57795523348E+02  0.41800000000E+01 0.  1.
         -5    1    3    3    0  502  0.14480252824E+01  0.53000118054E+02  0.50323309999E+02  0.73218967626E+02  0.41800000000E+01 0.  1.
        -11    1    1    2    0    0 -0.35896728252E+02  0.17942789285E+01 -0.22003310524E+02  0.42141905629E+02  0.00000000000E+00 0.  1.
         11    1    1    2    0    0  0.63648609931E+01 -0.12483851116E+02  0.59777187440E+02  0.61397639469E+02  0.00000000000E+00 0. -1.
</event>
<event>
 7    1  0.2394257E-009  0.1133991E+03  0.7561462E-02  0.1254402E+00
          2   -1    0    0  501    0  0.00000000000E+00  0.00000000000E+00  0.83738657766E+03  0.83738657766E+03  0.00000000000E+00 0.  1.
         -2   -1    0    0    0  501 -0.00000000000E+00 -0.00000000000E+00 -0.17274293070E+02  0.17274293070E+02  0.00000000000E+00 0. -1.
         25    2    1    2    0    0 -0.16042160731E+02 -0.41813187659E+02  0.37147517731E+03  0.39452112616E+03  0.12508964002E+03 0.  0.
          5    1    3    3  502    0 -0.66462010769E+02 -0.33066028355E+02  0.15320184081E+03  0.17029045051E+03  0.41800000000E+01 0. -1.
         -5    1    3    3    0  502  0.50419850037E+02 -0.87471593040E+01  0.21827333650E+03  0.22423067565E+03  0.41800000000E+01 0. -1.
        -11    1    1    2    0    0 -0.18168172055E+02 -0.22100968512E+02  0.98196648589E+02  0.10227960246E+03  0.00000000000E+00 0.  1.
         11    1    1    2    0    0  0.34210332786E+02  0.63914156171E+02  0.35044045869E+03  0.35786014211E+03  0.00000000000E+00 0. -1.
</event>
<event>
 7    1  0.2394257E-009  0.7861481E+02  0.7561462E-02  0.1333029E+00
         -4   -1    0    0    0  501 -0.00000000000E+00  0.00000000000E+00  0.60387117523E+02  0.60387117523E+02  0.00000000000E+00 0.  1.
          4   -1    0    0  501    0  0.00000000000E+00 -0.00000000000E+00 -0.34304493207E+03  0.34304493207E+03  0.00000000000E+00 0. -1.
         25    2    1    2    0    0  0.53664846072E+02 -0.38266385813E+02 -0.24916241269E+03  0.28648408037E+03  0.12508792276E+03 0.  0.
          5    1    3    3  502    0  0.29303669882E+02 -0.25087922631E+02 -0.32018941222E+01  0.38933705918E+02  0.41800000000E+01 0.  1.
         -5    1    3    3    0  502  0.24361176190E+02 -0.13178463182E+02 -0.24596051857E+03  0.24755037446E+03  0.41800000000E+01 0.  1.
        -11    1    1    2    0    0  0.29537780747E+01  0.33464924019E+02  0.19839986721E+02  0.39016035391E+02  0.00000000000E+00 0.  1.
         11    1    1    2    0    0 -0.56618624147E+02  0.48014617940E+01 -0.53335388569E+02  0.77931933823E+02  0.00000000000E+00 0. -1.
</event>
<event>
 7    1  0.2394257E-009  0.1493597E+03  0.7561462E-02  0.1201262E+00
          1   -1    0    0  501    0  0.00000000000E+00  0.00000000000E+00  0.12288370808E+03  0.12288370808E+03  0.00000000000E+00 0. -1.
         -1   -1    0    0    0  501 -0.00000000000E+00 -0.00000000000E+00 -0.23424422996E+03  0.23424422996E+03  0.00000000000E+00 0.  1.
         25    2    1    2    0    0 -0.75584869236E+02  0.10560594509E+03 -0.48405191409E+02  0.18670009291E+03  0.12509266183E+03 0.  0.
          5    1    3    3  502    0 -0.31433532036E+02  0.10468984985E+03  0.13847814403E+02  0.11025999257E+03  0.41800000000E+01 0.  1.
         -5    1    3    3    0  502 -0.44151337200E+02  0.91609523319E+00 -0.62253005812E+02  0.76440100338E+02  0.41800000000E+01 0.  1.
        -11    1    1    2    0    0  0.86084554757E+02 -0.80913326169E+02 -0.20061863390E+02  0.11983319775E+03  0.00000000000E+00 0. -1.
         11    1    1    2    0    0 -0.10499685521E+02 -0.24692618918E+02 -0.42893467087E+02  0.50594647383E+02  0.00000000000E+00 0.  1.
</event>
<event>
 7    1  0.2394257E-009  0.9406289E+02  0.7561462E-02  0.1293301E+00
          1   -1    0    0  501    0  0.00000000000E+00  0.00000000000E+00  0.20390316543E+02  0.20390316543E+02  0.00000000000E+00 0. -1.
         -1   -1    0    0    0  501 -0.00000000000E+00 -0.00000000000E+00 -0.60639756896E+03  0.60639756896E+03  0.00000000000E+00 0.  1.
         25    2    1    2    0    0  0.12620698377E+02  0.17079858125E+01 -0.29894437626E+03  0.32431054965E+03  0.12508954102E+03 0.  0.
          5    1    3    3  502    0 -0.39760722357E+02  0.13162009462E+02 -0.34414892810E+02  0.54369208037E+02  0.41800000000E+01 0. -1.
         -5    1    3    3    0  502  0.52381420734E+02 -0.11454023650E+02 -0.26452948346E+03  0.26994134161E+03  0.41800000000E+01 0. -1.
        -11    1    1    2    0    0  0.37558242136E+02  0.13355497049E+02 -0.16304655783E+03  0.16784865466E+03  0.00000000000E+00 0.  1.
         11    1    1    2    0    0 -0.50178940513E+02 -0.15063482861E+02 -0.12401631833E+03  0.13462868119E+03  0.00000000000E+00 0. -1.
</event>
<event>
 7    1  0.2394257E-009  0.9358796E+02  0.7561462E-02  0.1294388E+00
          3   -1    0    0  501    0  0.00000000000E+00  0.00000000000E+00  0.61566111324E+03  0.61566111324E+03  0.00000000000E+00 0. -1.
         -3   -1    0    0    0  501 -0.00000000000E+00 -0.00000000000E+00 -0.34129626459E+02  0.34129626459E+02  0.00000000000E+00 0.  1.
         25    2    1    2    0    0 -0.16901613561E+02 -0.57303391409E+02  0.53593584486E+03  0.55357398890E+03  0.12509032008E+03 0.  0.
          5    1    3    3  502    0  0.36259943825E+02 -0.28760170670E+02  0.42225362927E+03  0.42480293169E+03  0.41800000000E+01 0. -1.
         -5    1    3    3    0  502 -0.53161557387E+02 -0.28543220739E+02  0.11368221559E+03  0.12877105721E+03  0.41800000000E+01 0. -1.
        -11    1    1    2    0    0 -0.39667259767E+00  0.62233845318E+02  0.20871082951E+02  0.65641533771E+02  0.00000000000E+00 0.  1.
         11    1    1    2    0    0  0.17298286159E+02 -0.49304539097E+01  0.24724558974E+02  0.30575217028E+02  0.00000000000E+00 0. -1.
</event>
<event>
 7    1  0.2394257E-009  0.8997131E+02  0.7561462E-02  0.1302921E+00
          2   -1    0    0  501    0  0.00000000000E+00  0.00000000000E+00  0.30207714707E+03  0.30207714707E+03  0.00000000000E+00 0. -1.
         -2   -1    0    0    0  501 -0.00000000000E+00 -0.00000000000E+00 -0.51117414386E+02  0.51117414386E+02  0.00000000000E+00 0.  1.
         25    2    1    2    0    0  0.21369431675E+02  0.51167954638E+02  0.10411875571E+03  0.17194010096E+03  0.12509144989E+03 0.  0.
          5    1    3    3  502    0  0.32349050191E+02  0.72671595187E+02  0.17012027140E+02  0.81452460139E+02  0.41800000000E+01 0. -1.
         -5    1    3    3    0  502 -0.10979618516E+02 -0.21503640549E+02  0.87106728570E+02  0.90487640824E+02  0.41800000000E+01 0. -1.
        -11    1    1    2    0    0 -0.37969156828E+02 -0.27534003054E+02  0.19694262092E+02  0.50868872149E+02  0.00000000000E+00 0.  1.
         11    1    1    2    0    0  0.16599725153E+02 -0.23633951584E+02  0.12714671488E+03  0.13038558835E+03  0.00000000000E+00 0. -1.
</event>
<event>
 7    1  0.2394257E-009  0.1186149E+03  0.7561462E-02  0.1245400E+00
         -1   -1    0    0    0  501 -0.00000000000E+00  0.00000000000E+00  0.23195535472E+03  0.23195535472E+03  0.00000000000E+00 0.  1.
          1   -1    0    0  501    0  0.00000000000E+00 -0.00000000000E+00 -0.78589879639E+02  0.78589879639E+02  0.00000000000E+00 0. -1.
         25    2    1    2    0    0 -0.34805774085E+02  0.49522679308E+02  0.14308375258E+03  0.19946156050E+03  0.12509203088E+03 0.  0.
          5    1    3    3  502    0  0.41094219222E+02  0.97817258682E+01  0.87492005899E+02  0.97245773742E+02  0.41800000000E+01 0. -1.
         -5    1    3    3    0  502 -0.75899993308E+02  0.39740953440E+02  0.55591746682E+02  0.10221578676E+03  0.41800000000E+01 0. -1.
        -11    1    1    2    0    0  0.65954804086E+02 -0.33938626973E+02 -0.18605821946E+01  0.74197899896E+02  0.00000000000E+00 0. -1.
         11    1    1    2    0    0 -0.31149030001E+02 -0.15584052335E+02  0.12142304694E+02  0.36885773958E+02  0.00000000000E+00 0.  1.
</event>
<event>
 7    1  0.2394257E-009  0.1239763E+03  0.7561462E-02  0.1236678E+00
          1   -1    0    0  501    0  0.00000000000E+00  0.00000000000E+00  0.47631915054E+03  0.47631915054E+03  0.00000000000E+00 0. -1.
         -1   -1    0    0    0  501 -0.00000000000E+00 -0.00000000000E+00 -0.52541137199E+02  0.52541137199E+02  0.00000000000E+00 0.  1.
         25    2    1    2    0    0 -0.10750503244E+03 -0.40177027512E+02  0.20695812928E+03  0.26767758978E+03  0.12509236290E+03 0.  0.
          5    1    3    3  502    0 -0.69507394506E+02 -0.24959390154E+02  0.21355896158E+03  0.22600697228E+03  0.41800000000E+01 0. -1.
         -5    1    3    3    0  502 -0.37997637932E+02 -0.15217637358E+02 -0.66008323072E+01  0.41670617494E+02  0.41800000000E+01 0. -1.
        -11    1    1    2    0    0  0.60408426501E+02 -0.13011759451E+02  0.48730325429E+02  0.78696432529E+02  0.00000000000E+00 0.  1.
         11    1    1    2    0    0  0.47096605937E+02  0.53188786963E+02  0.16808955864E+03  0.18248626543E+03  0.00000000000E+00 0. -1.
</event>
<event>
 7    1  0.2394257E-009  0.1009293E+03  0.7561462E-02  0.1278354E+00
         -1   -1    0    0    0  501 -0.00000000000E+00  0.00000000000E+00  0.47391763622E+02  0.47391763622E+02  0.00000000000E+00 0.  1.
          1   -1    0    0  501    0  0.00000000000E+00 -0.00000000000E+00 -0.36642721198E+03  0.36642721198E+03  0.00000000000E+00 0. -1.
         25    2    1    2    0    0 -0.56070331870E+02 -0.47167857927E+02 -0.19487060786E+03  0.24287931310E+03  0.12508844066E+03 0.  0.
          5    1    3    3  502    0 -0.41068049187E+02 -0.55930320550E+02 -0.27818345059E+02  0.74874015136E+02  0.41800000000E+01 0.  1.
         -5    1    3    3    0  502 -0.15002282683E+02  0.87624626226E+01 -0.16705226280E+03  0.16800529797E+03  0.41800000000E+01 0.  1.
        -11    1    1    2    0    0 -0.16367078794E+02  0.38106403420E+02 -0.64377467568E+02  0.76579615958E+02  0.00000000000E+00 0. -1.
         11    1    1    2    0    0  0.72437410664E+02  0.90614545068E+01 -0.59787372924E+02  0.94360046538E+02  0.00000000000E+00 0.  1.
</event>
<event>
 7    1  0.2394257E-009  0.1073221E+03  0.7561462E-02  0.1265611E+00
          1   -1    0    0  501    0  0.00000000000E+00  0.00000000000E+00  0.33975503293E+02  0.33975503293E+02  0.00000000000E+00 0. -1.
         -1   -1    0    0    0  501 -0.00000000000E+00 -0.00000000000E+00 -0.63530064261E+03  0.63530064261E+03  0.00000000000E+00 0.  1.
         25    2    1    2    0    0 -0.92163108073E+02 -0.26945985077E+02 -0.37375166729E+03  0.40565848558E+03  0.12509345915E+03 0.  0.
          5    1    3    3  502    0 -0.26264177380E+01  0.16081217581E+02  0.20317863069E+01  0.16944148979E+02  0.41800000000E+01 0.  1.
         -5    1    3    3    0  502 -0.89536690335E+02 -0.43027202658E+02 -0.37578345360E+03  0.38871433661E+03  0.41800000000E+01 0.  1.
        -11    1    1    2    0    0  0.77931453916E+02  0.30565246748E+02 -0.23329400877E+03  0.24785810526E+03  0.00000000000E+00 0.  1.
         11    1    1    2    0    0  0.14231654157E+02 -0.36192616708E+01  0.57205367369E+01  0.15759555058E+02  0.00000000000E+00 0. -1.
</event>
<event>
 7    1  0.2394257E-009  0.3994612E+03  0.7561462E-02  0.1043966E+00
         -1   -1    0    0    0  501 -0.00000000000E+00  0.00000000000E+00  0.22395795192E+03  0.22395795192E+03  0.00000000000E+00 0.  1.
          1   -1    0    0  501    0  0.00000000000E+00 -0.00000000000E+00 -0.73834462270E+03  0.73834462270E+03  0.00000000000E+00 0. -1.
         25    2    1    2    0    0 -0.42485128533E+02 -0.38891726381E+03 -0.28390857748E+03  0.49931279164E+03  0.12509020463E+03 0.  0.
          5    1    3    3  502    0 -0.65258279844E+02 -0.37503809753E+03 -0.27872849994E+03  0.47182546219E+03  0.41800000000E+01 0.  1.
         -5    1    3    3    0  502  0.22773151312E+02 -0.13879166284E+02 -0.51800775336E+01  0.27487329456E+02  0.41800000000E+01 0.  1.
        -11    1    1    2    0    0  0.27548162004E+02  0.25005738708E+03 -0.19659863030E+03  0.31927827909E+03  0.00000000000E+00 0.  1.
         11    1    1    2    0    0  0.14936966529E+02  0.13885987673E+03 -0.33879462997E+02  0.14371150388E+03  0.00000000000E+00 0. -1.
</event>
<event>
 7    1  0.2394257E-009  0.6973648E+02  0.7561462E-02  0.1360991E+00
         -2   -1    0    0    0  501 -0.00000000000E+00  0.00000000000E+00  0.40487213669E+02  0.40487213669E+02  0.00000000000E+00 0. -1.
          2   -1    0    0  501    0  0.00000000000E+00 -0.00000000000E+00 -0.53687037530E+03  0.53687037530E+03  0.00000000000E+00 0.  1.
         25    2    1    2    0    0  0.18544516667E+01  0.16770550731E+02 -0.46066929191E+03  0.47764820515E+03  0.12508765328E+03 0.  0.
          5    1    3    3  502    0  0.11417332587E+02 -0.11527582590E+02 -0.78180127429E+00  0.16772723601E+02  0.41800000000E+01 0. -1.
         -5    1    3    3    0  502 -0.95628809204E+01  0.28298133321E+02 -0.45988749064E+03  0.46087548154E+03  0.41800000000E+01 0. -1.
        -11    1    1    2    0    0  0.25363387361E+02 -0.46055033551E+02 -0.14962467916E+02  0.54664823973E+02  0.00000000000E+00 0.  1.
         11    1    1    2    0    0 -0.27217839027E+02  0.29284482820E+02 -0.20751401796E+02  0.45044559847E+02  0.00000000000E+00 0. -1.
</event>
<event>
 7    1  0.2394257E-009  0.1113507E+03  0.7561462E-02  0.1258089E+00
         -2   -1    0    0    0  501 -0.00000000000E+00  0.00000000000E+00  0.18459956137E+02  0.18459956137E+02  0.00000000000E+00 0.  1.
          2   -1    0    0  501    0  0.00000000000E+00 -0.00000000000E+00 -0.83130129834E+03  0.83130129834E+03  0.00000000000E+00 0. -1.
         25    2    1    2    0    0  0.22097460390E+02  0.14036316177E+02 -0.63809239895E+03  0.65076454673E+03  0.12508904728E+03 0.  0.
          5    1    3    3  502    0 -0.44346290552E+02  0.36280907268E+02 -0.27122181588E+03  0.27723932536E+03  0.41800000000E+01 0.  1.
         -5    1    3    3    0  502  0.66443750942E+02 -0.22244591091E+02 -0.36687058307E+03  0.37352522137E+03  0.41800000000E+01 0.  1.
        -11    1    1    2    0    0 -0.51345824610E+02  0.15357301875E+02 -0.93184933589E+02  0.10749731287E+03  0.00000000000E+00 0.  1.
         11    1    1    2    0    0  0.29248364220E+02 -0.29393618052E+02 -0.81564009664E+02  0.91499394884E+02  0.00000000000E+00 0. -1.
</event>
<event>
 7    1  0.2394257E-009  0.6927369E+02  0.7561462E-02  0.1362580E+00
         -1   -1    0    0    0  501 -0.00000000000E+00  0.00000000000E+00  0.68641552796E+02  0.68641552796E+02  0.00000000000E+00 0.  1.
          1   -1    0    0  501    0  0.00000000000E+00 -0.00000000000E+00 -0.20099412961E+03  0.20099412961E+03  0.00000000000E+00 0. -1.
         25    2    1    2    0    0 -0.21462308646E+02 -0.32509614407E+02 -0.50212862478E+02  0.14031019416E+03  0.12509241906E+03 0.  0.
          5    1    3    3  502    0 -0.25379148693E+02 -0.29706566585E+02 -0.90950724629E+02  0.99076172702E+02  0.41800000000E+01 0. -1.
         -5    1    3    3    0  502  0.39168400467E+01 -0.28030478213E+01  0.40737862151E+02  0.41234021459E+02  0.41800000000E+01 0. -1.
        -11    1    1    2    0    0 -0.23955843198E+01 -0.27859900480E+02 -0.48285706210E+01  0.28376539134E+02  0.00000000000E+00 0.  1.
         11    1    1    2    0    0  0.23857892966E+02  0.60369514887E+02 -0.77311143719E+02  0.10094894912E+03  0.00000000000E+00 0. -1.
</event>
<event>
 7    1  0.2394257E-009  0.1006801E+03  0.7561462E-02  0.1278872E+00
          2   -1    0    0  501    0  0.00000000000E+00  0.00000000000E+00  0.29741486681E+03  0.29741486681E+03  0.00000000000E+00 0. -1.
         -2   -1    0    0    0  501 -0.00000000000E+00 -0.00000000000E+00 -0.45543324482E+02  0.45543324482E+02  0.00000000000E+00 0.  1.
         25    2    1    2    0    0  0.28817625456E+02  0.22963624447E+02  0.18032362282E+03  0.22253465554E+03  0.12508908978E+03 0.  0.
          5    1    3    3  502    0  0.28564012594E+02 -0.39647242963E+02  0.25071360477E+02  0.55080415813E+02  0.41800000000E+01 0. -1.
         -5    1    3    3    0  502  0.25361286223E+00  0.62610867410E+02  0.15525226235E+03  0.16745423972E+03  0.41800000000E+01 0. -1.
        -11    1    1    2    0    0  0.15300559874E+02 -0.39570439825E+02  0.57066416526E+02  0.71109090386E+02  0.00000000000E+00 0. -1.
         11    1    1    2    0    0 -0.44118185330E+02  0.16606815378E+02  0.14481502980E+02  0.49314445372E+02  0.00000000000E+00 0.  1.
</event>
<event>
 7    1  0.2394257E-009  0.1271343E+03  0.7561462E-02  0.1231771E+00
          3   -1    0    0  501    0  0.00000000000E+00  0.00000000000E+00  0.39351584461E+02  0.39351584461E+02  0.00000000000E+00 0. -1.
         -3   -1    0    0    0  501 -0.00000000000E+00 -0.00000000000E+00 -0.49787842503E+03  0.49787842503E+03  0.00000000000E+00 0.  1.
         25    2    1    2    0    0 -0.93580444128E+02 -0.29370361450E+02 -0.24500769769E+03  0.29205549844E+03  0.12509086533E+03 0.  0.
          5    1    3    3  502    0 -0.32740701386E+02  0.34654886212E+02 -0.23020528484E+02  0.53106796150E+02  0.41800000000E+01 0.  1.
         -5    1    3    3    0  502 -0.60839742742E+02 -0.64025247662E+02 -0.22198716920E+03  0.23894870229E+03  0.41800000000E+01 0.  1.
        -11    1    1    2    0    0  0.52041935365E+02 -0.17925845973E+02 -0.12473540775E+03  0.13634009291E+03  0.00000000000E+00 0. -1.
         11    1    1    2    0    0  0.41538508764E+02  0.47296207423E+02 -0.88783735135E+02  0.10883441814E+03  0.00000000000E+00 0.  1.
</event>
<event>
 7    1  0.2394257E-009  0.1450376E+03  0.7561462E-02  0.1206707E+00
          2   -1    0    0  501    0  0.00000000000E+00  0.00000000000E+00  0.81348318251E+02  0.81348318251E+02  0.00000000000E+00 0. -1.
         -2   -1    0    0    0  501 -0.00000000000E+00 -0.00000000000E+00 -0.32619219810E+03  0.32619219810E+03  0.00000000000E+00 0.  1.
         25    2    1    2    0    0  0.64962295524E+02  0.64638575547E+02 -0.22148704569E+03  0.27037394084E+03  0.12508921292E+03 0.  0.
          5    1    3    3  502    0  0.22558997588E+02  0.98189070420E+02 -0.14413085438E+03  0.17590104464E+03  0.41800000000E+01 0.  1.
         -5    1    3    3    0  502  0.42403297936E+02 -0.33550494873E+02 -0.77356191308E+02  0.94472896196E+02  0.41800000000E+01 0.  1.
        -11    1    1    2    0    0 -0.46398166179E+02 -0.91362980204E+02 -0.14909276566E+02  0.10354839692E+03  0.00000000000E+00 0. -1.
         11    1    1    2    0    0 -0.18564129345E+02  0.26724404657E+02 -0.84475575930E+01  0.33618178593E+02  0.00000000000E+00 0.  1.
</event>
<event>
 7    1  0.2394257E-009  0.1169024E+03  0.7561462E-02  0.1248296E+00
         -1   -1    0    0    0  501 -0.00000000000E+00  0.00000000000E+00  0.70854492462E+02  0.70854492462E+02  0.00000000000E+00 0.  1.
          1   -1    0    0  501    0  0.00000000000E+00 -0.00000000000E+00 -0.19611608390E+03  0.19611608390E+03  0.00000000000E+00 0. -1.
         25    2    1    2    0    0  0.52525618981E+01  0.45492712397E+02 -0.63419239150E+02  0.14753488406E+03  0.12508943133E+03 0.  0.
          5    1    3    3  502    0  0.34087965886E+02 -0.34132378665E+02 -0.23172527126E+02  0.53679112372E+02  0.41800000000E+01 0. -1.
         -5    1    3    3    0  502 -0.28835403988E+02  0.79625091063E+02 -0.40246712024E+02  0.93855771685E+02  0.41800000000E+01 0. -1.
        -11    1    1    2    0    0 -0.43390486287E+02 -0.29930946124E+01 -0.37241142746E+02  0.57259022246E+02  0.00000000000E+00 0. -1.
         11    1    1    2    0    0  0.38137924389E+02 -0.42499617785E+02 -0.24601209542E+02  0.62176670058E+02  0.00000000000E+00 0.  1.
</event>
<event>
 7    1  0.2394257E-009  0.1516251E+03  0.7561462E-02  0.1198490E+00
          1   -1    0    0  501    0  0.00000000000E+00  0.00000000000E+00  0.22954160062E+03  0.22954160062E+03  0.00000000000E+00 0. -1.
         -1   -1    0    0    0  501 -0.00000000000E+00 -0.00000000000E+00 -0.14083277020E+03  0.14083277020E+03  0.00000000000E+00 0.  1.
         25    2    1    2    0    0  0.90451804649E+02  0.81331444165E+02  0.12544740893E+03  0.21490202035E+03  0.12509793432E+03 0.  0.
          5    1    3    3  502    0  0.46146106138E+02 -0.16758673986E+02  0.88017808427E+02  0.10087082465E+03  0.41800000000E+01 0. -1.
         -5    1    3    3    0  502  0.44305698511E+02  0.98090118151E+02  0.37429600503E+02  0.11403119570E+03  0.41800000000E+01 0. -1.
        -11    1    1    2    0    0 -0.32924552374E+02 -0.82392370801E+02 -0.41071962263E+02  0.97772363167E+02  0.00000000000E+00 0.  1.
         11    1    1    2    0    0 -0.57527252275E+02  0.10609266356E+01  0.43333837541E+01  0.57699987299E+02  0.00000000000E+00 0. -1.
</event>
<event>
 7    1  0.2394257E-009  0.1838103E+03  0.7561462E-02  0.1164166E+00
          1   -1    0    0  501    0  0.00000000000E+00  0.00000000000E+00  0.57146899137E+02  0.57146899137E+02  0.00000000000E+00 0. -1.
         -1   -1    0    0    0  501 -0.00000000000E+00 -0.00000000000E+00 -0.60362464316E+03  0.60362464316E+03  0.00000000000E+00 0.  1.
         25    2    1    2    0    0  0.13347883441E+03 -0.68712040117E+02 -0.27502003288E+03  0.33737452712E+03  0.12509040481E+03 0.  0.
          5    1    3    3  502    0  0.14314364064E+02  0.34539074602E+02 -0.56354826160E+02  0.67758302255E+02  0.41800000000E+01 0.  1.
         -5    1    3    3    0  502  0.11916447034E+03 -0.10325111472E+03 -0.21866520672E+03  0.26961622487E+03  0.41800000000E+01 0.  1.
        -11    1    1    2    0    0 -0.26629238946E+02  0.59303450696E+02 -0.13492822040E+03  0.14977196097E+03  0.00000000000E+00 0.  1.
         11    1    1    2    0    0 -0.10684959546E+03  0.94085894213E+01 -0.13652949074E+03  0.17362505421E+03  0.00000000000E+00 0. -1.
</event>
<event>
 7    1  0.2394257E-009  0.1197615E+03  0.7561462E-02  0.1243491E+00
         -2   -1    0    0    0  501 -0.00000000000E+00  0.00000000000E+00  0.10302785915E+03  0.10302785915E+03  0.00000000000E+00 0.  1.
          2   -1    0    0  501    0  0.00000000000E+00 -0.00000000000E+00 -0.35939676324E+03  0.35939676324E+03  0.00000000000E+00 0. -1.
         25    2    1    2    0    0 -0.34328350414E+02 -0.70528444561E+02  0.30329229051E+02  0.15073052448E+03  0.12508849564E+03 0.  0.
          5    1    3    3  502    0 -0.78020908458E+02 -0.22467744143E+02  0.70444895928E+01  0.81603669753E+02  0.41800000000E+01 0.  1.
         -5    1    3    3    0  502  0.43692558044E+02 -0.48060700418E+02  0.23284739458E+02  0.69126854729E+02  0.41800000000E+01 0.  1.
        -11    1    1    2    0    0  0.47573798876E+02  0.54460110448E+02 -0.28092784563E+03  0.29008554672E+03  0.00000000000E+00 0. -1.
         11    1    1    2    0    0 -0.13245448462E+02  0.16068334113E+02 -0.57702875191E+01  0.21608551182E+02  0.00000000000E+00 0.  1.
</event>
<event>
 7    1  0.2394257E-009  0.1862608E+03  0.7561462E-02  0.1161878E+00
         -1   -1    0    0    0  501 -0.00000000000E+00  0.00000000000E+00  0.30479495101E+02  0.30479495101E+02  0.00000000000E+00 0.  1.
          1   -1    0    0  501    0  0.00000000000E+00 -0.00000000000E+00 -0.14322538915E+04  0.14322538915E+04  0.00000000000E+00 0. -1.
         25    2    1    2    0    0  0.15396307166E+03  0.86692801726E+02 -0.80590244502E+03  0.83447376308E+03  0.12508973208E+03 0.  0.
          5    1    3    3  502    0  0.15681543399E+02  0.12972618668E+01 -0.47042168580E+01  0.16946850680E+02  0.41800000000E+01 0. -1.
         -5    1    3    3    0  502  0.13828152826E+03  0.85395539860E+02 -0.80119822816E+03  0.81752691240E+03  0.41800000000E+01 0. -1.
        -11    1    1    2    0    0 -0.77189584874E+02  0.88926745368E+00 -0.16920702508E+03  0.18598397820E+03  0.00000000000E+00 0.  1.
         11    1    1    2    0    0 -0.76773486789E+02 -0.87582069180E+02 -0.42666492633E+03  0.44227564536E+03  0.00000000000E+00 0. -1.
</event>
<event>
 7    1  0.2394257E-009  0.5546142E+02  0.7561462E-02  0.1417929E+00
         -1   -1    0    0    0  501 -0.00000000000E+00  0.00000000000E+00  0.23395881479E+03  0.23395881479E+03  0.00000000000E+00 0.  1.
          1   -1    0    0  501    0  0.00000000000E+00 -0.00000000000E+00 -0.66494991849E+02  0.66494991849E+02  0.00000000000E+00 0. -1.
         25    2    1    2    0    0  0.13863934999E+02  0.16744097412E+02  0.16241221373E+03  0.20614841193E+03  0.12508743773E+03 0.  0.
          5    1    3    3  502    0 -0.16136701987E+02  0.17914005512E+02 -0.13293054144E+02  0.27847485218E+02  0.41800000000E+01 0.  1.
         -5    1    3    3    0  502  0.30000636985E+02 -0.11699081006E+01  0.17570526788E+03  0.17830092671E+03  0.41800000000E+01 0.  1.
        -11    1    1    2    0    0  0.19752949058E+02 -0.37887932087E+01 -0.35041643373E+02  0.40403597869E+02  0.00000000000E+00 0. -1.
         11    1    1    2    0    0 -0.33616884057E+02 -0.12955304203E+02  0.40093252582E+02  0.53901796847E+02  0.00000000000E+00 0.  1.
</event>
<event>
 7    1  0.2394257E-009  0.7107151E+02  0.7561462E-02  0.1356487E+00
          3   -1    0    0  501    0  0.00000000000E+00  0.00000000000E+00  0.56269824927E+02  0.56269824927E+02  0.00000000000E+00 0. -1.
         -3   -1    0    0    0  501 -0.00000000000E+00 -0.00000000000E+00 -0.33645619665E+03  0.33645619665E+03  0.00000000000E+00 0.  1.
         25    2    1    2    0    0  0.46260791394E+02 -0.26339367182E+01 -0.25661631250E+03  0.28921552732E+03  0.12508673375E+03 0.  0.
          5    1    3    3  502    0 -0.48756601873E+01  0.59728896543E+01  0.12414956857E+02  0.15200362721E+02  0.41800000000E+01 0. -1.
         -5    1    3    3    0  502  0.51136451581E+02 -0.86068263725E+01 -0.26903126936E+03  0.27401516460E+03  0.41800000000E+01 0. -1.
        -11    1    1    2    0    0  0.17442815294E+02 -0.15259747923E+01 -0.34550344572E+02  0.38733792927E+02  0.00000000000E+00 0.  1.
         11    1    1    2    0    0 -0.63703606688E+02  0.41599115106E+01  0.10980285348E+02  0.64776701329E+02  0.00000000000E+00 0. -1.
</event>
<event>
 7    1  0.2394257E-009  0.1021060E+03  0.7561462E-02  0.1275929E+00
         -1   -1    0    0    0  501 -0.00000000000E+00  0.00000000000E+00  0.10996205444E+03  0.10996205444E+03  0.00000000000E+00 0.  1.
          1   -1    0    0  501    0  0.00000000000E+00 -0.00000000000E+00 -0.12087947503E+03  0.12087947503E+03  0.00000000000E+00 0. -1.
         25    2    1    2    0    0  0.33451508951E+02 -0.22283232450E+01  0.16332001545E+02  0.13052415101E+03  0.12508337558E+03 0.  0.
          5    1    3    3  502    0  0.59709245223E+02 -0.45603306854E+02  0.24199176759E+02  0.79043836679E+02  0.41800000000E+01 0.  1.
         -5    1    3    3    0  502 -0.26257736272E+02  0.43374983609E+02 -0.78671752143E+01  0.51480314326E+02  0.41800000000E+01 0.  1.
        -11    1    1    2    0    0  0.57977632440E+01  0.29647961201E+02 -0.40605945628E+02  0.50610853405E+02  0.00000000000E+00 0. -1.
         11    1    1    2    0    0 -0.39249272195E+02 -0.27419637956E+02  0.13356523498E+02  0.49706525059E+02  0.00000000000E+00 0.  1.
</event>
<event>
 7    1  0.2394257E-009  0.1047852E+03  0.7561462E-02  0.1270543E+00
          1   -1    0    0  501    0  0.00000000000E+00  0.00000000000E+00  0.20382297728E+03  0.20382297728E+03  0.00000000000E+00 0. -1.
         -1   -1    0    0    0  501 -0.00000000000E+00 -0.00000000000E+00 -0.78027259132E+02  0.78027259132E+02  0.00000000000E+00 0.  1.
         25    2    1    2    0    0  0.49714499561E+02 -0.22306499319E+02  0.10400283831E+03  0.17156564444E+03  0.12509623734E+03 0.  0.
          5    1    3    3  502    0 -0.28690047484E+02  0.57250532051E+01  0.79277558722E+02  0.84606730086E+02  0.41800000000E+01 0. -1.
         -5    1    3    3    0  502  0.78404547045E+02 -0.28031552524E+02  0.24725279587E+02  0.86958914349E+02  0.41800000000E+01 0. -1.
        -11    1    1    2    0    0 -0.19488671528E+01 -0.27540616058E+02 -0.15660114573E+02  0.31741499720E+02  0.00000000000E+00 0.  1.
         11    1    1    2    0    0 -0.47765632408E+02  0.49847115377E+02  0.37452994411E+02  0.78543092256E+02  0.00000000000E+00 0. -1.
</event>
<event>
 7    1  0.2394257E-009  0.1062374E+03  0.7561462E-02  0.1267701E+00
         -1   -1    0    0    0  501 -0.00000000000E+00  0.00000000000E+00  0.11734667484E+03  0.11734667484E+03  0.00000000000E+00 0.  1.
          1   -1    0    0  501    0  0.00000000000E+00 -0.00000000000E+00 -0.23273201020E+03  0.23273201020E+03  0.00000000000E+00 0. -1.
         25    2    1    2    0    0 -0.53376894566E+02 -0.11526284989E+02  0.56936086153E+02  0.14788779918E+03  0.12508850915E+03 0.  0.
          5    1    3    3  502    0 -0.44483025580E+02  0.36518899915E+02 -0.16105892155E+02  0.59910281069E+02  0.41800000000E+01 0. -1.
         -5    1    3    3    0  502 -0.88938689870E+01 -0.48045184903E+02  0.73041978308E+02  0.87977518112E+02  0.41800000000E+01 0. -1.
        -11    1    1    2    0    0  0.43637827281E+02 -0.36398753261E+02 -0.89975508606E+02  0.10641767408E+03  0.00000000000E+00 0.  1.
         11    1    1    2    0    0  0.97390672859E+01  0.47925038249E+02 -0.82345912906E+02  0.95773211782E+02  0.00000000000E+00 0. -1.
</event>
<event>
 7    1  0.2394257E-009  0.2289723E+03  0.7561462E-02  0.1127365E+00
         -2   -1    0    0    0  501 -0.00000000000E+00  0.00000000000E+00  0.68835147003E+02  0.68835147003E+02  0.00000000000E+00 0.  1.
          2   -1    0    0  501    0  0.00000000000E+00 -0.00000000000E+00 -0.83956844081E+03  0.83956844081E+03  0.00000000000E+00 0. -1.
         25    2    1    2    0    0  0.68711265958E+02 -0.20334827659E+03 -0.40769683579E+03  0.47742547669E+03  0.12508643500E+03 0.  0.
          5    1    3    3  502    0 -0.32221856099E+02 -0.50649174841E+02 -0.14717635530E+03  0.15900295243E+03  0.41800000000E+01 0. -1.
         -5    1    3    3    0  502  0.10093312206E+03 -0.15269910174E+03 -0.26052048049E+03  0.31842252426E+03  0.41800000000E+01 0. -1.
        -11    1    1    2    0    0 -0.22384093542E+02  0.72100496521E+02 -0.21461100501E+03  0.22750255540E+03  0.00000000000E+00 0.  1.
         11    1    1    2    0    0 -0.46327172417E+02  0.13124778006E+03 -0.14842545301E+03  0.20347555573E+03  0.00000000000E+00 0. -1.
</event>
<event>
 7    1  0.2394257E-009  0.8346705E+02  0.7561462E-02  0.1319491E+00
         -1   -1    0    0    0  501 -0.00000000000E+00  0.00000000000E+00  0.21509252704E+02  0.21509252704E+02  0.00000000000E+00 0.  1.
          1   -1    0    0  501    0  0.00000000000E+00 -0.00000000000E+00 -0.80047960039E+03  0.80047960039E+03  0.00000000000E+00 0. -1.
         25    2    1    2    0    0  0.16256278025E+02 -0.26757158780E+02 -0.64091521848E+03  0.65375817699E+03  0.12508886672E+03 0.  0.
          5    1    3    3  502    0 -0.72588522055E+01 -0.46884033458E+02 -0.60189878926E+03  0.60378011597E+03  0.41800000000E+01 0.  1.
         -5    1    3    3    0  502  0.23515130230E+02  0.20126874678E+02 -0.39016429223E+02  0.49978061021E+02  0.41800000000E+01 0.  1.
        -11    1    1    2    0    0  0.33726494172E+02  0.77955919228E+01 -0.23567026661E+02  0.41876633200E+02  0.00000000000E+00 0.  1.
         11    1    1    2    0    0 -0.49982772197E+02  0.18961566857E+02 -0.11448810255E+03  0.12635404291E+03  0.00000000000E+00 0. -1.
</event>
<event>
 7    1  0.2394257E-009  0.1860879E+03  0.7561462E-02  0.1162038E+00
          2   -1    0    0  501    0  0.00000000000E+00  0.00000000000E+00  0.66445331231E+03  0.66445331231E+03  0.00000000000E+00 0. -1.
         -2   -1    0    0    0  501 -0.00000000000E+00 -0.00000000000E+00 -0.56550354380E+02  0.56550354380E+02  0.00000000000E+00 0.  1.
         25    2    1    2    0    0 -0.14190600735E+03  0.69000584685E+02  0.26614611108E+03  0.33373495133E+03  0.12508744817E+03 0.  0.
          5    1    3    3  502    0 -0.62110411594E+02 -0.30455758763E+02  0.61917776153E+02  0.92932985931E+02  0.41800000000E+01 0. -1.
         -5    1    3    3    0  502 -0.79795595755E+02  0.99456343448E+02  0.20422833493E+03  0.24080196540E+03  0.41800000000E+01 0. -1.
        -11    1    1    2    0    0  0.61200890927E+02  0.10401543214E+02  0.74200095892E+02  0.96743968194E+02  0.00000000000E+00 0.  1.
         11    1    1    2    0    0  0.80705116422E+02 -0.79402127899E+02  0.26755675096E+03  0.29052474716E+03  0.00000000000E+00 0. -1.
</event>
<event>
 7    1  0.2394257E-009  0.1089392E+03  0.7561462E-02  0.1262547E+00
          4   -1    0    0  501    0  0.00000000000E+00  0.00000000000E+00  0.20482426668E+03  0.20482426668E+03  0.00000000000E+00 0. -1.
         -4   -1    0    0    0  501 -0.00000000000E+00 -0.00000000000E+00 -0.12880896034E+03  0.12880896034E+03  0.00000000000E+00 0.  1.
         25    2    1    2    0    0  0.75246515442E+01  0.70015673614E+02 -0.58609712500E+02  0.15505787871E+03  0.12509609274E+03 0.  0.
          5    1    3    3  502    0  0.37807633412E+02  0.13006187925E+02  0.26504478726E+02  0.48151197919E+02  0.41800000000E+01 0.  1.
         -5    1    3    3    0  502 -0.30282981868E+02  0.57009485689E+02 -0.85114191226E+02  0.10690668079E+03  0.41800000000E+01 0.  1.
        -11    1    1    2    0    0  0.26388631247E+02 -0.74262344427E+02  0.69732784909E+02  0.10523268005E+03  0.00000000000E+00 0.  1.
         11    1    1    2    0    0 -0.33913282792E+02  0.42466708125E+01  0.64892233934E+02  0.73342668261E+02  0.00000000000E+00 0. -1.
</event>
<event>
 7    1  0.2394257E-009  0.1074043E+03  0.7561462E-02  0.1265454E+00
          2   -1    0    0  501    0  0.00000000000E+00  0.00000000000E+00  0.11723317624E+04  0.11723317624E+04  0.00000000000E+00 0.  1.
         -2   -1    0    0    0  501 -0.00000000000E+00 -0.00000000000E+00 -0.18092024558E+02  0.18092024558E+02  0.00000000000E+00 0. -1.
         25    2    1    2    0    0 -0.50393999240E+02 -0.22142994665E+02  0.95018918908E+03  0.95996704911E+03  0.12508945985E+03 0.  0.
          5    1    3    3  502    0 -0.47822009245E+02 -0.58283047559E+02  0.32258878372E+03  0.33130779342E+03  0.41800000000E+01 0.  1.
         -5    1    3    3    0  502 -0.25719899958E+01  0.36140052894E+02  0.62760040537E+03  0.62865925569E+03  0.41800000000E+01 0.  1.
        -11    1    1    2    0    0  0.62571756663E+02 -0.14488233487E+02  0.94124955276E+02  0.11395016826E+03  0.00000000000E+00 0.  1.
         11    1    1    2    0    0 -0.12177757423E+02  0.36631228151E+02  0.10992559344E+03  0.11650656953E+03  0.00000000000E+00 0. -1.
</event>
<event>
 7    1  0.2394257E-009  0.1406674E+03  0.7561462E-02  0.1212434E+00
         -1   -1    0    0    0  501 -0.00000000000E+00  0.00000000000E+00  0.70969224624E+03  0.70969224624E+03  0.00000000000E+00 0.  1.
          1   -1    0    0  501    0  0.00000000000E+00 -0.00000000000E+00 -0.52062831941E+02  0.52062831941E+02  0.00000000000E+00 0. -1.
         25    2    1    2    0    0  0.99338766011E+02  0.65090800768E+02  0.54325330211E+03  0.56998001868E+03  0.12509224062E+03 0.  0.
          5    1    3    3  502    0 -0.21816577765E+02  0.47393579206E+00  0.23340871900E+02  0.32225089318E+02  0.41800000000E+01 0. -1.
         -5    1    3    3    0  502  0.12115534378E+03  0.64616864976E+02  0.51991243021E+03  0.53775492936E+03  0.41800000000E+01 0. -1.
        -11    1    1    2    0    0 -0.76196610506E+02 -0.35182848701E+02  0.12672260281E+03  0.15199465240E+03  0.00000000000E+00 0.  1.
         11    1    1    2    0    0 -0.23142155505E+02 -0.29907952067E+02 -0.12346490624E+02  0.39780407099E+02  0.00000000000E+00 0. -1.
</event>
<event>
 7    1  0.2394257E-009  0.1622083E+03  0.7561462E-02  0.1186226E+00
         -1   -1    0    0    0  501 -0.00000000000E+00  0.00000000000E+00  0.32525462171E+03  0.32525462171E+03  0.00000000000E+00 0.  1.
          1   -1    0    0  501    0  0.00000000000E+00 -0.00000000000E+00 -0.25865453786E+03  0.25865453786E+03  0.00000000000E+00 0. -1.
         25    2    1    2    0    0  0.13553378783E+02 -0.14875173110E+03  0.25959458352E+03  0.32457236508E+03  0.12508837195E+03 0.  0.
          5    1    3    3  502    0  0.95437530573E+01 -0.14240731636E+03  0.12520079935E+03  0.18990429046E+03  0.41800000000E+01 0.  1.
         -5    1    3    3    0  502  0.40096257258E+01 -0.63444147314E+01  0.13439378418E+03  0.13466807462E+03  0.41800000000E+01 0.  1.
        -11    1    1    2    0    0 -0.14975812620E+02 -0.75213025966E+01 -0.22483671064E+02  0.28042118694E+02  0.00000000000E+00 0.  1.
         11    1    1    2    0    0  0.14224338365E+01  0.15627303369E+03 -0.17051082861E+03  0.23129467579E+03  0.00000000000E+00 0. -1.
</event>
<event>
 7    1  0.2394257E-009  0.6272478E+02  0.7561462E-02  0.1386740E+00
         -1   -1    0    0    0  501 -0.00000000000E+00  0.00000000000E+00  0.80992327606E+02  0.80992327606E+02  0.00000000000E+00 0.  1.
          1   -1    0    0  501    0  0.00000000000E+00 -0.00000000000E+00 -0.15803980981E+03  0.15803980981E+03  0.00000000000E+00 0. -1.
         25    2    1    2    0    0 -0.21623757556E+01  0.28518876420E+02 -0.35066062486E+02  0.13300840038E+03  0.12507439247E+03 0.  0.
          5    1    3    3  502    0 -0.13230035475E+02  0.30264419164E+02  0.42802816052E+02  0.54226583591E+02  0.41800000000E+01 0.  1.
         -5    1    3    3    0  502  0.11067659719E+02 -0.17455427438E+01 -0.77868878538E+02  0.78781816784E+02  0.41800000000E+01 0.  1.
        -11    1    1    2    0    0  0.35469127172E+02  0.12998964815E+01  0.10566638276E+02  0.37032452763E+02  0.00000000000E+00 0.  1.
         11    1    1    2    0    0 -0.33306751416E+02 -0.29818772901E+02 -0.52548057991E+02  0.68991284275E+02  0.00000000000E+00 0. -1.
</event>
<event>
 7    1  0.2394257E-009  0.1197922E+03  0.7561462E-02  0.1243440E+00
         -2   -1    0    0    0  501 -0.00000000000E+00  0.00000000000E+00  0.23900255221E+02  0.23900255221E+02  0.00000000000E+00 0.  1.
          2   -1    0    0  501    0  0.00000000000E+00 -0.00000000000E+00 -0.98664196885E+03  0.98664196885E+03  0.00000000000E+00 0. -1.
         25    2    1    2    0    0 -0.95773432776E+02  0.23879213071E+02 -0.66352169113E+03  0.68238425933E+03  0.12507787790E+03 0.  0.
          5    1    3    3  502    0 -0.97579429501E+02 -0.13816297706E+02 -0.27770163491E+03  0.29470036575E+03  0.41800000000E+01 0. -1.
         -5    1    3    3    0  502  0.18059967242E+01  0.37695510777E+02 -0.38582005622E+03  0.38768389358E+03  0.41800000000E+01 0. -1.
        -11    1    1    2    0    0  0.17075350429E+02 -0.16805489523E+02 -0.63066987933E+01  0.24774311696E+02  0.00000000000E+00 0.  1.
         11    1    1    2    0    0  0.78698082348E+02 -0.70737235482E+01 -0.29291332370E+03  0.30338365304E+03  0.00000000000E+00 0. -1.
</event>
<event>
 7    1  0.2394257E-009  0.5128462E+02  0.7561462E-02  0.1438533E+00
          3   -1    0    0  501    0  0.00000000000E+00  0.00000000000E+00  0.20205870113E+03  0.20205870113E+03  0.00000000000E+00 0. -1.
         -3   -1    0    0    0  501 -0.00000000000E+00 -0.00000000000E+00 -0.52080390844E+02  0.52080390844E+02  0.00000000000E+00 0.  1.
         25    2    1    2    0    0  0.10971386385E+02 -0.30126535287E+01  0.12781886403E+03  0.17920705255E+03  0.12509219913E+03 0.  0.
          5    1    3    3  502    0 -0.15866174246E+02 -0.43823539730E+01 -0.21518983169E+02  0.27413127296E+02  0.41800000000E+01 0. -1.
         -5    1    3    3    0  502  0.26837560631E+02  0.13697004443E+01  0.14933784720E+03  0.15179392526E+03  0.41800000000E+01 0. -1.
        -11    1    1    2    0    0  0.15728034818E+02  0.20971160905E+02  0.31922627291E+02  0.41306353047E+02  0.00000000000E+00 0. -1.
         11    1    1    2    0    0 -0.26699421203E+02 -0.17958507376E+02 -0.97631810375E+01  0.33625686368E+02  0.00000000000E+00 0.  1.
</event>
<event>
 7    1  0.2394257E-009  0.9796851E+02  0.7561462E-02  0.1284627E+00
          1   -1    0    0  501    0  0.00000000000E+00  0.00000000000E+00  0.72666652160E+02  0.72666652160E+02  0.00000000000E+00 0. -1.
         -1   -1    0    0    0  501 -0.00000000000E+00 -0.00000000000E+00 -0.25956088198E+03  0.25956088198E+03  0.00000000000E+00 0.  1.
         25    2    1    2    0    0 -0.62306515849E+02 -0.56063256803E+02 -0.80284280193E+02  0.17064401048E+03  0.12509445226E+03 0.  0.
          5    1    3    3  502    0 -0.15384439855E+02 -0.55219532617E+02 -0.10329603732E+03  0.11820922764E+03  0.41800000000E+01 0. -1.
         -5    1    3    3    0  502 -0.46922075994E+02 -0.84372418594E+00  0.23011757127E+02  0.52434782846E+02  0.41800000000E+01 0. -1.
        -11    1    1    2    0    0  0.31422277972E+02  0.51212515050E+02 -0.11452943846E+03  0.12933318803E+03  0.00000000000E+00 0.  1.
         11    1    1    2    0    0  0.30884237877E+02  0.48507417531E+01  0.79194888373E+01  0.32250335630E+02  0.00000000000E+00 0. -1.
</event>
<event>
 7    1  0.2394257E-009  0.1422659E+03  0.7561462E-02  0.1210312E+00
          1   -1    0    0  501    0  0.00000000000E+00  0.00000000000E+00  0.17386712674E+02  0.17386712674E+02  0.00000000000E+00 0. -1.
         -1   -1    0    0    0  501 -0.00000000000E+00 -0.00000000000E+00 -0.11953634515E+04  0.11953634515E+04  0.00000000000E+00 0.  1.
         25    2    1    2    0    0  0.88260633223E+02  0.39141790183E+02 -0.65185987980E+03  0.67073907867E+03  0.12509032596E+03 0.  0.
          5    1    3    3  502    0  0.11848629152E+03  0.44463019712E+02 -0.54215967263E+03  0.55674998377E+03  0.41800000000E+01 0.  1.
         -5    1    3    3    0  502 -0.30225658302E+02 -0.53212295286E+01 -0.10970020717E+03  0.11398909490E+03  0.41800000000E+01 0.  1.
        -11    1    1    2    0    0 -0.17033927774E+02  0.25554760553E+02 -0.81340158596E+02  0.86944935924E+02  0.00000000000E+00 0. -1.
         11    1    1    2    0    0 -0.71226705449E+02 -0.64696550737E+02 -0.44477670042E+03  0.45506614957E+03  0.00000000000E+00 0.  1.
</event>
<event>
 7    1  0.2394257E-009  0.1415939E+03  0.7561462E-02  0.1211200E+00
          1   -1    0    0  501    0  0.00000000000E+00  0.00000000000E+00  0.46159977759E+03  0.46159977759E+03  0.00000000000E+00 0. -1.
         -1   -1    0    0    0  501 -0.00000000000E+00 -0.00000000000E+00 -0.70340559212E+02  0.70340559212E+02  0.00000000000E+00 0.  1.
         25    2    1    2    0    0 -0.27132395752E+02  0.11333165330E+03  0.33019932290E+03  0.37183226886E+03  0.12508961902E+03 0.  0.
          5    1    3    3  502    0 -0.53719946741E+02  0.11179897810E+03  0.31962670609E+03  0.34287541152E+03  0.41800000000E+01 0. -1.
         -5    1    3    3    0  502  0.26587550989E+02  0.15326752068E+01  0.10572616807E+02  0.28956857341E+02  0.41800000000E+01 0. -1.
        -11    1    1    2    0    0  0.45187177680E+02 -0.55665550222E+02  0.68579763107E+02  0.99215514996E+02  0.00000000000E+00 0.  1.
         11    1    1    2    0    0 -0.18054781928E+02 -0.57666103081E+02 -0.75198676226E+01  0.60892552945E+02  0.00000000000E+00 0. -1.
</event>
<event>
 7    1  0.2394257E-009  0.1043426E+03  0.7561462E-02  0.1271420E+00
          2   -1    0    0  501    0  0.00000000000E+00  0.00000000000E+00  0.79584186105E+02  0.79584186105E+02  0.00000000000E+00 0. -1.
         -2   -1    0    0    0  501 -0.00000000000E+00 -0.00000000000E+00 -0.25997398836E+03  0.25997398836E+03  0.00000000000E+00 0.  1.
         25    2    1    2    0    0 -0.76494408280E+02 -0.20820640078E+02 -0.25010613283E+02  0.15019318538E+03  0.12509024185E+03 0.  0.
          5    1    3    3  502    0  0.10130274988E+01 -0.29603946931E+02  0.39034660072E+02  0.49179233275E+02  0.41800000000E+01 0.  1.
         -5    1    3    3    0  502 -0.77507435779E+02  0.87833068528E+01 -0.64045273355E+02  0.10101395210E+03  0.41800000000E+01 0.  1.
        -11    1    1    2    0    0  0.85318457711E+02  0.88396110971E+01 -0.98691712352E+02  0.13075714909E+03  0.00000000000E+00 0. -1.
         11    1    1    2    0    0 -0.88240494308E+01  0.11981028981E+02 -0.56687476619E+02  0.58607839998E+02  0.00000000000E+00 0.  1.
</event>
<event>
 7    1  0.2394257E-009  0.2245392E+03  0.7561462E-02  0.1130543E+00
         -2   -1    0    0    0  501 -0.00000000000E+00  0.00000000000E+00  0.66244750814E+03  0.66244750814E+03  0.00000000000E+00 0.  1.
          2   -1    0    0  501    0  0.00000000000E+00 -0.00000000000E+00 -0.10152987560E+03  0.10152987560E+03  0.00000000000E+00 0. -1.
         25    2    1    2    0    0  0.22321071437E+02  0.20232966968E+03  0.46085768252E+03  0.51910785682E+03  0.12509051927E+03 0.  0.
          5    1    3    3  502    0  0.71998759058E+02  0.14089463048E+03  0.27868344645E+03  0.32049501389E+03  0.41800000000E+01 0.  1.
         -5    1    3    3    0  502 -0.49677687621E+02  0.61435039204E+02  0.18217423607E+03  0.19861284293E+03  0.41800000000E+01 0.  1.
        -11    1    1    2    0    0  0.18365054310E+02 -0.35593427988E+02 -0.96163438315E+01  0.41190307166E+02  0.00000000000E+00 0.  1.
         11    1    1    2    0    0 -0.40686125747E+02 -0.16673624170E+03  0.10967629386E+03  0.20367921975E+03  0.00000000000E+00 0. -1.
</event>
<event>
 7    1  0.2394257E-009  0.1119676E+03  0.7561462E-02  0.1256969E+00
          2   -1    0    0  501    0  0.00000000000E+00  0.00000000000E+00  0.21329521187E+03  0.21329521187E+03  0.00000000000E+00 0. -1.
         -2   -1    0    0    0  501 -0.00000000000E+00 -0.00000000000E+00 -0.70611832432E+02  0.70611832432E+02  0.00000000000E+00 0.  1.
         25    2    1    2    0    0  0.39776212962E+01 -0.55626047376E+02  0.82026066669E+02  0.15964487751E+03  0.12509249651E+03 0.  0.
          5    1    3    3  502    0 -0.37534374729E+02  0.15920344426E+02 -0.28132889070E+01  0.41081305328E+02  0.41800000000E+01 0.  1.
         -5    1    3    3    0  502  0.41511996025E+02 -0.71546391802E+02  0.84839355576E+02  0.11856357218E+03  0.41800000000E+01 0.  1.
        -11    1    1    2    0    0  0.31244209690E+02 -0.33616493622E+01 -0.17128815326E+01  0.31471181877E+02  0.00000000000E+00 0.  1.
         11    1    1    2    0    0 -0.35221830986E+02  0.58987696738E+02  0.62370194302E+02  0.92790984917E+02  0.00000000000E+00 0. -1.
</event>
<event>
 7    1  0.2394257E-009  0.2507744E+03  0.7561462E-02  0.1112816E+00
         -2   -1    0    0    0  501 -0.00000000000E+00  0.00000000000E+00  0.26309019387E+02  0.26309019387E+02  0.00000000000E+00 0.  1.
          2   -1    0    0  501    0  0.00000000000E+00 -0.00000000000E+00 -0.25280483719E+04  0.25280483719E+04  0.00000000000E+00 0. -1.
         25    2    1    2    0    0  0.86263435026E+02  0.21113731194E+03 -0.15452607826E+04  0.15670032239E+04  0.12509145815E+03 0.  0.
          5    1    3    3  502    0  0.75914497461E+02  0.40273389778E+02 -0.63197037484E+03  0.63780011282E+03  0.41800000000E+01 0.  1.
         -5    1    3    3    0  502  0.10348937565E+02  0.17086392216E+03 -0.91329040775E+03  0.92920311111E+03  0.41800000000E+01 0.  1.
        -11    1    1    2    0    0 -0.99096802064E+02 -0.13722828996E+03 -0.69613974863E+03  0.71642328924E+03  0.00000000000E+00 0. -1.
         11    1    1    2    0    0  0.12833367038E+02 -0.73909021987E+02 -0.26033882126E+03  0.27093087808E+03  0.00000000000E+00 0.  1.
</event>
<event>
 7    1  0.2394257E-009  0.1092967E+03  0.7561462E-02  0.1261878E+00
         -1   -1    0    0    0  501 -0.00000000000E+00  0.00000000000E+00  0.13924671282E+03  0.13924671282E+03  0.00000000000E+00 0.  1.
          1   -1    0    0  501    0  0.00000000000E+00 -0.00000000000E+00 -0.17568200658E+03  0.17568200658E+03  0.00000000000E+00 0. -1.
         25    2    1    2    0    0  0.20563602049E+02  0.65573114565E+02  0.70329118385E+02  0.15910991960E+03  0.12508831496E+03 0.  0.
          5    1    3    3  502    0  0.29013083614E+02  0.10126688348E+03  0.57095457563E+02  0.11989205305E+03  0.41800000000E+01 0. -1.
         -5    1    3    3    0  502 -0.84494815651E+01 -0.35693768915E+02  0.13233660823E+02  0.39217866552E+02  0.41800000000E+01 0. -1.
        -11    1    1    2    0    0  0.34041417459E+01 -0.43610751289E+02  0.48986672141E+00  0.43746151584E+02  0.00000000000E+00 0.  1.
         11    1    1    2    0    0 -0.23967743795E+02 -0.21962363276E+02 -0.10725427887E+03  0.11207264822E+03  0.00000000000E+00 0. -1.
</event>
<event>
 7    1  0.2394257E-009  0.1408745E+03  0.7561462E-02  0.1212157E+00
         -1   -1    0    0    0  501 -0.00000000000E+00  0.00000000000E+00  0.71481675633E+02  0.71481675633E+02  0.00000000000E+00 0.  1.
          1   -1    0    0  501    0  0.00000000000E+00 -0.00000000000E+00 -0.67645669206E+03  0.67645669206E+03  0.00000000000E+00 0. -1.
         25    2    1    2    0    0 -0.94630993108E+02 -0.24929534046E+02 -0.32136245348E+02  0.16204289006E+03  0.12509457793E+03 0.  0.
          5    1    3    3  502    0 -0.24451358340E+02  0.50133817527E+02 -0.95050920908E+01  0.56737005210E+02  0.41800000000E+01 0. -1.
         -5    1    3    3    0  502 -0.70179634769E+02 -0.75063351574E+02 -0.22631153257E+02  0.10530588485E+03  0.41800000000E+01 0. -1.
        -11    1    1    2    0    0  0.34660400649E+02 -0.26765929271E+02 -0.19759963162E+03  0.20239410258E+03  0.00000000000E+00 0.  1.
         11    1    1    2    0    0  0.59970592459E+02  0.51695463317E+02 -0.37523913946E+03  0.38350137506E+03  0.00000000000E+00 0. -1.
</event>
<event>
 7    1  0.2394257E-009  0.9969729E+02  0.7561462E-02  0.1280934E+00
         -2   -1    0    0    0  501 -0.00000000000E+00  0.00000000000E+00  0.13596683273E+03  0.13596683273E+03  0.00000000000E+00 0.  1.
          2   -1    0    0  501    0  0.00000000000E+00 -0.00000000000E+00 -0.97888556075E+02  0.97888556075E+02  0.00000000000E+00 0. -1.
         25    2    1    2    0    0 -0.23013867488E+02  0.27382928654E+02  0.40500003774E+02  0.13624736833E+03  0.12507450657E+03 0.  0.
          5    1    3    3  502    0 -0.36902267155E+02  0.58109910974E+02  0.64675958619E+02  0.94546237884E+02  0.41800000000E+01 0.  1.
         -5    1    3    3    0  502  0.13888399667E+02 -0.30726982320E+02 -0.24175954845E+02  0.41701130446E+02  0.41800000000E+01 0.  1.
        -11    1    1    2    0    0  0.52067480675E+02 -0.39111648450E+02  0.53078696333E+01  0.65336950253E+02  0.00000000000E+00 0.  1.
         11    1    1    2    0    0 -0.29053613187E+02  0.11728719796E+02 -0.77295967521E+01  0.32271070221E+02  0.00000000000E+00 0. -1.
</event>
<event>
 7    1  0.2394257E-009  0.2074387E+03  0.7561462E-02  0.1143610E+00
         -4   -1    0    0    0  501 -0.00000000000E+00  0.00000000000E+00  0.93612574653E+03  0.93612574653E+03  0.00000000000E+00 0.  1.
          4   -1    0    0  501    0  0.00000000000E+00 -0.00000000000E+00 -0.56153220531E+02  0.56153220531E+02  0.00000000000E+00 0. -1.
         25    2    1    2    0    0  0.35328366974E+02 -0.17962598942E+03  0.27060163820E+03  0.34983739116E+03  0.12508942430E+03 0.  0.
          5    1    3    3  502    0 -0.33251289091E+02 -0.19308778953E+02  0.93891101333E+02  0.10154549956E+03  0.41800000000E+01 0.  1.
         -5    1    3    3    0  502  0.68579656064E+02 -0.16031721046E+03  0.17671053686E+03  0.24829189160E+03  0.41800000000E+01 0.  1.
        -11    1    1    2    0    0  0.84765570302E+01  0.14678998518E+03  0.40496753585E+03  0.43083390867E+03  0.00000000000E+00 0.  1.
         11    1    1    2    0    0 -0.43804924004E+02  0.32836004236E+02  0.20440335196E+03  0.21160766724E+03  0.00000000000E+00 0. -1.
</event>
<event>
 7    1  0.2394257E-009  0.2053932E+03  0.7561462E-02  0.1145267E+00
         -1   -1    0    0    0  501 -0.00000000000E+00  0.00000000000E+00  0.17558287919E+03  0.17558287919E+03  0.00000000000E+00 0.  1.
          1   -1    0    0  501    0  0.00000000000E+00 -0.00000000000E+00 -0.31485610557E+03  0.31485610557E+03  0.00000000000E+00 0. -1.
         25    2    1    2    0    0  0.16333938457E+03 -0.11315379041E+03 -0.83896705243E+01  0.23495011197E+03  0.12509050206E+03 0.  0.
          5    1    3    3  502    0  0.85299555568E+02 -0.41683822081E+02 -0.64739384742E+02  0.11498789302E+03  0.41800000000E+01 0. -1.
         -5    1    3    3    0  502  0.78039829000E+02 -0.71469968334E+02  0.56349714218E+02  0.11996221895E+03  0.41800000000E+01 0. -1.
        -11    1    1    2    0    0 -0.13779120752E+03  0.58840306318E+02 -0.57017713058E+02  0.16031100437E+03  0.00000000000E+00 0. -1.
         11    1    1    2    0    0 -0.25548177044E+02  0.54313484096E+02 -0.73865842801E+02  0.95177868424E+02  0.00000000000E+00 0.  1.
</event>
<event>
 7    1  0.2394257E-009  0.7555802E+02  0.7561462E-02  0.1342152E+00
          1   -1    0    0  501    0  0.00000000000E+00  0.00000000000E+00  0.16354763010E+03  0.16354763010E+03  0.00000000000E+00 0. -1.
         -1   -1    0    0    0  501 -0.00000000000E+00 -0.00000000000E+00 -0.10688229811E+03  0.10688229811E+03  0.00000000000E+00 0.  1.
         25    2    1    2    0    0  0.17729427471E+02 -0.31684135516E+01  0.90754335091E+02  0.15559146465E+03  0.12509189858E+03 0.  0.
          5    1    3    3  502    0 -0.13790873444E+02  0.88212397208E+01 -0.27652000721E+02  0.32405369994E+02  0.41800000000E+01 0. -1.
         -5    1    3    3    0  502  0.31520300914E+02 -0.11989653272E+02  0.11840633581E+03  0.12318609465E+03  0.41800000000E+01 0. -1.
        -11    1    1    2    0    0  0.14740108849E+02 -0.42056418840E+02 -0.38633924481E+02  0.58979600671E+02  0.00000000000E+00 0.  1.
         11    1    1    2    0    0 -0.32469536320E+02  0.45224832391E+02  0.45449213813E+01  0.55858862896E+02  0.00000000000E+00 0. -1.
</event>
<event>
 7    1  0.2394257E-009  0.9139947E+02  0.7561462E-02  0.1299498E+00
         -2   -1    0    0    0  501 -0.00000000000E+00  0.00000000000E+00  0.97541184286E+02  0.97541184286E+02  0.00000000000E+00 0.  1.
          2   -1    0    0  501    0  0.00000000000E+00 -0.00000000000E+00 -0.20447717555E+03  0.20447717555E+03  0.00000000000E+00 0. -1.
         25    2    1    2    0    0  0.12854072052E+02  0.30331407072E+02  0.30151278379E+02  0.13281739433E+03  0.12508452832E+03 0.  0.
          5    1    3    3  502    0  0.33766617795E+02  0.46230140887E+02 -0.31640082082E+02  0.65543707539E+02  0.41800000000E+01 0. -1.
         -5    1    3    3    0  502 -0.20912545743E+02 -0.15898733815E+02  0.61791360461E+02  0.67273686788E+02  0.41800000000E+01 0. -1.
        -11    1    1    2    0    0  0.40289124398E+02 -0.76133777023E+01 -0.49696685250E+02  0.64427770330E+02  0.00000000000E+00 0.  1.
         11    1    1    2    0    0 -0.53143196451E+02 -0.22718029370E+02 -0.87390584395E+02  0.10477319518E+03  0.00000000000E+00 0. -1.
</event>
<event>
 7    1  0.2394257E-009  0.1390780E+03  0.7561462E-02  0.1214575E+00
         -2   -1    0    0    0  501 -0.00000000000E+00  0.00000000000E+00  0.10127004865E+03  0.10127004865E+03  0.00000000000E+00 0.  1.
          2   -1    0    0  501    0  0.00000000000E+00 -0.00000000000E+00 -0.21384249345E+03  0.21384249345E+03  0.00000000000E+00 0. -1.
         25    2    1    2    0    0 -0.35592717158E+02  0.91260850384E+02 -0.73343021492E+02  0.17499622839E+03  0.12509635015E+03 0.  0.
          5    1    3    3  502    0 -0.49015767043E+01  0.11650048599E+03 -0.41276919806E+02  0.12376447471E+03  0.41800000000E+01 0.  1.
         -5    1    3    3    0  502 -0.30691140453E+02 -0.25239635608E+02 -0.32066101686E+02  0.51231753681E+02  0.41800000000E+01 0.  1.
        -11    1    1    2    0    0  0.54401185215E+02 -0.41799953082E+02  0.81506913271E+01  0.69088051062E+02  0.00000000000E+00 0.  1.
         11    1    1    2    0    0 -0.18808468057E+02 -0.49460897302E+02 -0.47380114639E+02  0.71028262655E+02  0.00000000000E+00 0. -1.
</event>
<event>
 7    1  0.2394257E-009  0.1237804E+03  0.7561462E-02  0.1236988E+00
          2   -1    0    0  501    0  0.00000000000E+00  0.00000000000E+00  0.12704537622E+03  0.12704537622E+03  0.00000000000E+00 0. -1.
         -2   -1    0    0    0  501 -0.00000000000E+00 -0.00000000000E+00 -0.20663809414E+03  0.20663809414E+03  0.00000000000E+00 0.  1.
         25    2    1    2    0    0  0.52480616735E+02  0.10007758482E+03 -0.15520301700E+00  0.16857840739E+03  0.12509563235E+03 0.  0.
          5    1    3    3  502    0  0.54345045226E+02  0.10839656842E+03  0.39660283716E+02  0.12764642765E+03  0.41800000000E+01 0.  1.
         -5    1    3    3    0  502 -0.18644284911E+01 -0.83189835990E+01 -0.39815486733E+02  0.40931979741E+02  0.41800000000E+01 0.  1.
        -11    1    1    2    0    0 -0.50864181261E+02 -0.69539887104E+02 -0.97082005669E+02  0.12979937079E+03  0.00000000000E+00 0.  1.
         11    1    1    2    0    0 -0.16164354736E+01 -0.30537697720E+02  0.17644490766E+02  0.35305692177E+02  0.00000000000E+00 0. -1.
</event>
<event>
 7    1  0.2394257E-009  0.2607391E+03  0.7561462E-02  0.1106700E+00
          2   -1    0    0  501    0  0.00000000000E+00  0.00000000000E+00  0.19300070036E+04  0.19300070036E+04  0.00000000000E+00 0. -1.
         -2   -1    0    0    0  501 -0.00000000000E+00 -0.00000000000E+00 -0.41932233846E+02  0.41932233846E+02  0.00000000000E+00 0.  1.
         25    2    1    2    0    0  0.17845253673E+03  0.18340734260E+03  0.12580795324E+04  0.12899198450E+04  0.12508211533E+03 0.  0.
          5    1    3    3  502    0  0.16838380241E+03  0.18463788336E+03  0.97155512280E+03  0.10031854674E+04  0.41800000000E+01 0. -1.
         -5    1    3    3    0  502  0.10068734326E+02 -0.12305407667E+01  0.28652440957E+03  0.28673437764E+03  0.41800000000E+01 0. -1.
        -11    1    1    2    0    0 -0.48333463117E+02 -0.83708026004E+02  0.21042289020E+03  0.23156197873E+03  0.00000000000E+00 0. -1.
         11    1    1    2    0    0 -0.13011907362E+03 -0.99699316593E+02  0.41957234719E+03  0.45045741372E+03  0.00000000000E+00 0.  1.
</event>
<event>
 7    1  0.2394257E-009  0.1114069E+03  0.7561462E-02  0.1257986E+00
         -1   -1    0    0    0  501 -0.00000000000E+00  0.00000000000E+00  0.49890448635E+02  0.49890448635E+02  0.00000000000E+00 0.  1.
          1   -1    0    0  501    0  0.00000000000E+00 -0.00000000000E+00 -0.53167010879E+03  0.53167010879E+03  0.00000000000E+00 0. -1.
         25    2    1    2    0    0 -0.72559865632E+02  0.30355564883E+02 -0.42189216841E+03  0.44702131700E+03  0.12509461088E+03 0.  0.
          5    1    3    3  502    0 -0.56595363018E+02 -0.18100735285E+02 -0.72189798423E+02  0.93592259987E+02  0.41800000000E+01 0.  1.
         -5    1    3    3    0  502 -0.15964502614E+02  0.48456300168E+02 -0.34970236999E+03  0.35342905702E+03  0.41800000000E+01 0.  1.
        -11    1    1    2    0    0  0.82623215018E+02 -0.27426941235E+01 -0.64416696778E+02  0.10480280938E+03  0.00000000000E+00 0. -1.
         11    1    1    2    0    0 -0.10063349386E+02 -0.27612870760E+02  0.45292050342E+01  0.29736431035E+02  0.00000000000E+00 0.  1.
</event>
<event>
 7    1  0.2394257E-009  0.9217129E+02  0.7561462E-02  0.1297677E+00
          1   -1    0    0  501    0  0.00000000000E+00  0.00000000000E+00  0.58819014407E+02  0.58819014407E+02  0.00000000000E+00 0. -1.
         -1   -1    0    0    0  501 -0.00000000000E+00 -0.00000000000E+00 -0.18568201342E+03  0.18568201342E+03  0.00000000000E+00 0.  1.
         25    2    1    2    0    0 -0.24393435579E+02 -0.26011805177E+02 -0.96654737217E+02  0.16205561652E+03  0.12509288914E+03 0.  0.
          5    1    3    3  502    0  0.45287181812E+02  0.47895654339E+01 -0.10403143768E+02  0.46899537031E+02  0.41800000000E+01 0.  1.
         -5    1    3    3    0  502 -0.69680617390E+02 -0.30801370611E+02 -0.86251593449E+02  0.11515607949E+03  0.41800000000E+01 0.  1.
        -11    1    1    2    0    0  0.24258369139E+02 -0.10044389910E+02  0.10309757987E+02  0.28207257075E+02  0.00000000000E+00 0. -1.
         11    1    1    2    0    0  0.13506643985E+00  0.36056195087E+02 -0.40518019788E+02  0.54238154233E+02  0.00000000000E+00 0.  1.
</event>
<event>
 7    1  0.2394257E-009  0.1382730E+03  0.7561462E-02  0.1215672E+00
         -3   -1    0    0    0  501 -0.00000000000E+00  0.00000000000E+00  0.32872011451E+03  0.32872011451E+03  0.00000000000E+00 0.  1.
          3   -1    0    0  501    0  0.00000000000E+00 -0.00000000000E+00 -0.68683521943E+02  0.68683521943E+02  0.00000000000E+00 0. -1.
         25    2    1    2    0    0 -0.80380149508E+02  0.60258536146E+02  0.17658154798E+03  0.23858245115E+03  0.12509389792E+03 0.  0.
          5    1    3    3  502    0 -0.77111998979E+02 -0.58837670654E+01  0.14653183091E+03  0.16574054716E+03  0.41800000000E+01 0. -1.
         -5    1    3    3    0  502 -0.32681505296E+01  0.66142303211E+02  0.30049717069E+02  0.72841903997E+02  0.41800000000E+01 0. -1.
        -11    1    1    2    0    0 -0.16426845684E+02 -0.24592226460E+02  0.31861027204E+02  0.43471184891E+02  0.00000000000E+00 0. -1.
         11    1    1    2    0    0  0.96806995192E+02 -0.35666309686E+02  0.51594017381E+02  0.11535000041E+03  0.00000000000E+00 0.  1.
</event>
<event>
 7    1  0.2394257E-009  0.1460800E+03  0.7561462E-02  0.1205374E+00
          1   -1    0    0  501    0  0.00000000000E+00  0.00000000000E+00  0.95937685172E+03  0.95937685172E+03  0.00000000000E+00 0. -1.
         -1   -1    0    0    0  501 -0.00000000000E+00 -0.00000000000E+00 -0.26803349512E+02  0.26803349512E+02  0.00000000000E+00 0.  1.
         25    2    1    2    0    0  0.83653315723E+02  0.78848170863E+02  0.55915141597E+03  0.58439133904E+03  0.12509204564E+03 0.  0.
          5    1    3    3  502    0  0.11435620259E+03  0.74219578829E+02  0.41370911099E+03  0.43561288762E+03  0.41800000000E+01 0. -1.
         -5    1    3    3    0  502 -0.30702886866E+02  0.46285920345E+01  0.14544230498E+03  0.14877845141E+03  0.41800000000E+01 0. -1.
        -11    1    1    2    0    0 -0.23496561179E+02 -0.54846753758E+02  0.72115422688E+02  0.93599620589E+02  0.00000000000E+00 0.  1.
         11    1    1    2    0    0 -0.60156754544E+02 -0.24001417105E+02  0.30130666355E+03  0.30818924160E+03  0.00000000000E+00 0. -1.
</event>
<event>
 7    1  0.2394257E-009  0.1111154E+03  0.7561462E-02  0.1258518E+00
          1   -1    0    0  501    0  0.00000000000E+00  0.00000000000E+00  0.19967614565E+03  0.19967614565E+03  0.00000000000E+00 0. -1.
         -1   -1    0    0    0  501 -0.00000000000E+00 -0.00000000000E+00 -0.85307845112E+02  0.85307845112E+02  0.00000000000E+00 0.  1.
         25    2    1    2    0    0  0.53541450982E+02 -0.37304553399E+02  0.26449417887E+02  0.14354601208E+03  0.12509024422E+03 0.  0.
          5    1    3    3  502    0  0.39851833801E+02  0.42999392644E+02  0.38405557177E+01  0.58901092462E+02  0.41800000000E+01 0.  1.
         -5    1    3    3    0  502  0.13689617180E+02 -0.80303946042E+02  0.22608862169E+02  0.84644919618E+02  0.41800000000E+01 0.  1.
        -11    1    1    2    0    0 -0.62151380619E+02  0.25279528860E+02  0.17304409417E+02  0.69291350669E+02  0.00000000000E+00 0.  1.
         11    1    1    2    0    0  0.86099296370E+01  0.12025024539E+02  0.70614473236E+02  0.72146628015E+02  0.00000000000E+00 0. -1.
</event>
<event>
 7    1  0.2394257E-009  0.2259772E+03  0.7561462E-02  0.1129504E+00
          1   -1    0    0  501    0  0.00000000000E+00  0.00000000000E+00  0.60016265056E+03  0.60016265056E+03  0.00000000000E+00 0. -1.
         -1   -1    0    0    0  501 -0.00000000000E+00 -0.00000000000E+00 -0.97184076516E+02  0.97184076516E+02  0.00000000000E+00 0.  1.
         25    2    1    2    0    0  0.18143157371E+03 -0.10504353903E+03  0.19058709609E+03  0.30971648073E+03  0.12509714709E+03 0.  0.
          5    1    3    3  502    0 -0.32714282298E+01  0.18864083102E+02  0.28015719691E+02  0.34189308618E+02  0.41800000000E+01 0.  1.
         -5    1    3    3    0  502  0.18470300194E+03 -0.12390762214E+03  0.16257137640E+03  0.27552717212E+03  0.41800000000E+01 0.  1.
        -11    1    1    2    0    0 -0.94067993038E+02  0.60454977586E+02  0.86526740114E+02  0.14138765287E+03  0.00000000000E+00 0.  1.
         11    1    1    2    0    0 -0.87363580674E+02  0.44588561448E+02  0.22586473784E+03  0.24624259347E+03  0.00000000000E+00 0. -1.
</event>
<event>
 7    1  0.2394257E-009  0.1332348E+03  0.7561462E-02  0.1222733E+00
         -1   -1    0    0    0  501 -0.00000000000E+00  0.00000000000E+00  0.37014718073E+02  0.37014718073E+02  0.00000000000E+00 0.  1.
          1   -1    0    0  501    0  0.00000000000E+00 -0.00000000000E+00 -0.65019452701E+03  0.65019452701E+03  0.00000000000E+00 0. -1.
         25    2    1    2    0    0  0.16448300728E+02 -0.10717141581E+03 -0.28359060230E+03  0.32837034961E+03  0.12508875981E+03 0.  0.
          5    1    3    3  502    0  0.23147704387E+02  0.78522877836E+01 -0.29540614473E+01  0.24973456326E+02  0.41800000000E+01 0. -1.
         -5    1    3    3    0  502 -0.66994036593E+01 -0.11502370359E+03 -0.28063654085E+03  0.30339689329E+03  0.41800000000E+01 0. -1.
        -11    1    1    2    0    0 -0.41488856904E+02  0.59617327929E+02 -0.10345597327E+03  0.12640684096E+03  0.00000000000E+00 0.  1.
         11    1    1    2    0    0  0.25040556176E+02  0.47554087877E+02 -0.22613323337E+03  0.23243205451E+03  0.00000000000E+00 0. -1.
</event>
<event>
 7    1  0.2394257E-009  0.1430781E+03  0.7561462E-02  0.1209246E+00
          1   -1    0    0  501    0  0.00000000000E+00  0.00000000000E+00  0.27806931496E+03  0.27806931496E+03  0.00000000000E+00 0. -1.
         -1   -1    0    0    0  501 -0.00000000000E+00 -0.00000000000E+00 -0.92119364773E+02  0.92119364773E+02  0.00000000000E+00 0.  1.
         25    2    1    2    0    0 -0.10767609544E+03 -0.43006673431E+02  0.12817605825E+03  0.21335545149E+03  0.12509089208E+03 0.  0.
          5    1    3    3  502    0  0.36854479687E+01  0.24681088558E+02  0.62364414624E+02  0.67301792476E+02  0.41800000000E+01 0. -1.
         -5    1    3    3    0  502 -0.11136154341E+03 -0.67687761989E+02  0.65811643625E+02  0.14605365901E+03  0.41800000000E+01 0. -1.
        -11    1    1    2    0    0  0.74093238824E+02 -0.22315009172E+01 -0.27065096720E+01  0.74176228202E+02  0.00000000000E+00 0.  1.
         11    1    1    2    0    0  0.33582856619E+02  0.45238174348E+02  0.60480401608E+02  0.82657000041E+02  0.00000000000E+00 0. -1.
</event>
<event>
 7    1  0.2394257E-009  0.1406493E+03  0.7561462E-02  0.1212458E+00
          2   -1    0    0  501    0  0.00000000000E+00  0.00000000000E+00  0.99523640850E+02  0.99523640850E+02  0.00000000000E+00 0. -1.
         -2   -1    0    0    0  501 -0.00000000000E+00 -0.00000000000E+00 -0.25546707230E+03  0.25546707230E+03  0.00000000000E+00 0.  1.
         25    2    1    2    0    0  0.84981775693E+02  0.77142011074E+02 -0.60749128473E+02  0.18030806566E+03  0.12509096634E+03 0.  0.
          5    1    3    3  502    0 -0.19614985971E+02  0.13567810294E+02  0.21825311542E+02  0.32598309385E+02  0.41800000000E+01 0.  1.
         -5    1    3    3    0  502  0.10459676166E+03  0.63574200780E+02 -0.82574440015E+02  0.14770975628E+03  0.41800000000E+01 0.  1.
        -11    1    1    2    0    0 -0.95047147183E+02 -0.79906908028E+02 -0.10325439558E+03  0.16149471925E+03  0.00000000000E+00 0.  1.
         11    1    1    2    0    0  0.10065371490E+02  0.27648969540E+01  0.80600926073E+01  0.13187928239E+02  0.00000000000E+00 0. -1.
</event>
<event>
 7    1  0.2394257E-009  0.1442487E+03  0.7561462E-02  0.1207724E+00
         -1   -1    0    0    0  501 -0.00000000000E+00  0.00000000000E+00  0.24723111955E+03  0.24723111955E+03  0.00000000000E+00 0.  1.
          1   -1    0    0  501    0  0.00000000000E+00 -0.00000000000E+00 -0.12172161370E+03  0.12172161370E+03  0.00000000000E+00 0. -1.
         25    2    1    2    0    0  0.12763855217E+03 -0.46448591914E+02  0.72704807437E+02  0.19845081656E+03  0.12509063066E+03 0.  0.
          5    1    3    3  502    0  0.11709513102E+03 -0.57728827806E+02  0.10156137376E+03  0.16545716155E+03  0.41800000000E+01 0.  1.
         -5    1    3    3    0  502  0.10543421154E+02  0.11280235893E+02 -0.28856566320E+02  0.32993655015E+02  0.41800000000E+01 0.  1.
        -11    1    1    2    0    0 -0.53820660700E+02 -0.15295708053E+01  0.61845561887E+02  0.81999247742E+02  0.00000000000E+00 0.  1.
         11    1    1    2    0    0 -0.73817891473E+02  0.47978162719E+02 -0.90408634729E+01  0.88502668953E+02  0.00000000000E+00 0. -1.
</event>
<event>
 7    1  0.2394257E-009  0.1151126E+03  0.7561462E-02  0.1251385E+00
         -1   -1    0    0    0  501 -0.00000000000E+00  0.00000000000E+00  0.63391386573E+02  0.63391386573E+02  0.00000000000E+00 0.  1.
          1   -1    0    0  501    0  0.00000000000E+00 -0.00000000000E+00 -0.21972266773E+03  0.21972266773E+03  0.00000000000E+00 0. -1.
         25    2    1    2    0    0  0.34953474379E+02  0.29893356466E+02 -0.84005358846E+02  0.15754265465E+03  0.12508968618E+03 0.  0.
          5    1    3    3  502    0  0.48086054428E+02 -0.36938598588E+02 -0.59450659302E+02  0.85021067904E+02  0.41800000000E+01 0. -1.
         -5    1    3    3    0  502 -0.13132580049E+02  0.66831955054E+02 -0.24554699544E+02  0.72521586751E+02  0.41800000000E+01 0. -1.
        -11    1    1    2    0    0  0.21334946960E+02 -0.38741351225E+02 -0.21322761454E+02  0.49099209898E+02  0.00000000000E+00 0. -1.
         11    1    1    2    0    0 -0.56288421340E+02  0.88479947590E+01 -0.51003160861E+02  0.76472189756E+02  0.00000000000E+00 0.  1.
</event>
<event>
 7    1  0.2394257E-009  0.1101463E+03  0.7561462E-02  0.1260299E+00
         -2   -1    0    0    0  501 -0.00000000000E+00  0.00000000000E+00  0.10130812914E+03  0.10130812914E+03  0.00000000000E+00 0.  1.
          2   -1    0    0  501    0  0.00000000000E+00 -0.00000000000E+00 -0.60089913143E+03  0.60089913143E+03  0.00000000000E+00 0. -1.
         25    2    1    2    0    0  0.50399898880E+02 -0.34239372032E+02 -0.56056026390E+03  0.57757042397E+03  0.12508917131E+03 0.  0.
          5    1    3    3  502    0 -0.43240391893E+01 -0.56327683177E+02 -0.43610970831E+03  0.43977341358E+03  0.41800000000E+01 0. -1.
         -5    1    3    3    0  502  0.54723938069E+02  0.22088311145E+02 -0.12445055559E+03  0.13779701039E+03  0.41800000000E+01 0. -1.
        -11    1    1    2    0    0  0.14493256736E+02  0.36788051830E+02  0.69123712093E+01  0.40139707572E+02  0.00000000000E+00 0. -1.
         11    1    1    2    0    0 -0.64893155615E+02 -0.25486797984E+01  0.54056890400E+02  0.84497129029E+02  0.00000000000E+00 0.  1.
</event>
<event>
 7    1  0.2394257E-009  0.1423942E+03  0.7561462E-02  0.1210143E+00
          2   -1    0    0  501    0  0.00000000000E+00  0.00000000000E+00  0.56225496934E+03  0.56225496934E+03  0.00000000000E+00 0.  1.
         -2   -1    0    0    0  501 -0.00000000000E+00 -0.00000000000E+00 -0.37964341536E+02  0.37964341536E+02  0.00000000000E+00 0. -1.
         25    2    1    2    0    0  0.17880921613E+02 -0.99462683651E+02  0.32146805844E+03  0.35944632643E+03  0.12508955268E+03 0.  0.
          5    1    3    3  502    0 -0.53917301204E+02 -0.43663502928E+02  0.14970965190E+03  0.16505765396E+03  0.41800000000E+01 0.  1.
         -5    1    3    3    0  502  0.71798222817E+02 -0.55799180723E+02  0.17175840654E+03  0.19438867247E+03  0.41800000000E+01 0.  1.
        -11    1    1    2    0    0 -0.43937845104E+02  0.81555634758E+02  0.11650026262E+03  0.14884275926E+03  0.00000000000E+00 0. -1.
         11    1    1    2    0    0  0.26056923491E+02  0.17907048893E+02  0.86322306744E+02  0.91930225190E+02  0.00000000000E+00 0.  1.
</event>
<event>
 7    1  0.2394257E-009  0.7418680E+02  0.7561462E-02  0.1346408E+00
         -2   -1    0    0    0  501 -0.00000000000E+00  0.00000000000E+00  0.67938516687E+02  0.67938516687E+02  0.00000000000E+00 0.  1.
          2   -1    0    0  501    0  0.00000000000E+00 -0.00000000000E+00 -0.20443001235E+03  0.20443001235E+03  0.00000000000E+00 0. -1.
         25    2    1    2    0    0 -0.40549138971E+02 -0.21785556016E+02 -0.87317357253E+02  0.15934688210E+03  0.12509302473E+03 0.  0.
          5    1    3    3  502    0 -0.25254200923E+02 -0.16142731984E+02 -0.11936892172E+03  0.12314533825E+03  0.41800000000E+01 0. -1.
         -5    1    3    3    0  502 -0.15294938049E+02 -0.56428240321E+01  0.32051564462E+02  0.36201543854E+02  0.41800000000E+01 0. -1.
        -11    1    1    2    0    0  0.66558314866E+02  0.31345940881E+02 -0.30707449666E+02  0.79721545096E+02  0.00000000000E+00 0.  1.
         11    1    1    2    0    0 -0.26009175894E+02 -0.95603848651E+01 -0.18466688746E+02  0.33300101842E+02  0.00000000000E+00 0. -1.
</event>
<event>
 7    1  0.2394257E-009  0.8243423E+02  0.7561462E-02  0.1322282E+00
          3   -1    0    0  501    0  0.00000000000E+00  0.00000000000E+00  0.29025621100E+02  0.29025621100E+02  0.00000000000E+00 0. -1.
         -3   -1    0    0    0  501 -0.00000000000E+00 -0.00000000000E+00 -0.43806867524E+03  0.43806867524E+03  0.00000000000E+00 0.  1.
         25    2    1    2    0    0  0.90451308553E+01  0.22196948160E+02 -0.27160038652E+03  0.29998069401E+03  0.12508848039E+03 0.  0.
          5    1    3    3  502    0 -0.23929067466E+02 -0.81890140967E+01 -0.99531314472E+00  0.25653913346E+02  0.41800000000E+01 0. -1.
         -5    1    3    3    0  502  0.32974198322E+02  0.30385962256E+02 -0.27060507337E+03  0.27432678067E+03  0.41800000000E+01 0. -1.
        -11    1    1    2    0    0 -0.22444117196E+02  0.31599846946E+02 -0.67815755839E+02  0.78110597640E+02  0.00000000000E+00 0. -1.
         11    1    1    2    0    0  0.13398986341E+02 -0.53796795105E+02 -0.69626911788E+02  0.89003004689E+02  0.00000000000E+00 0.  1.
</event>
<event>
 7    1  0.2394257E-009  0.7507578E+02  0.7561462E-02  0.1343637E+00
         -2   -1    0    0    0  501 -0.00000000000E+00  0.00000000000E+00  0.14976416408E+02  0.14976416408E+02  0.00000000000E+00 0.  1.
          2   -1    0    0  501    0  0.00000000000E+00 -0.00000000000E+00 -0.89986809131E+03  0.89986809131E+03  0.00000000000E+00 0. -1.
         25    2    1    2    0    0  0.30290365234E+02  0.17640843271E+02 -0.43961153128E+03  0.45840492764E+03  0.12509226064E+03 0.  0.
          5    1    3    3  502    0  0.22575976513E+02 -0.10024709375E+02 -0.87049697069E+01  0.26522036331E+02  0.41800000000E+01 0. -1.
         -5    1    3    3    0  502  0.77143887208E+01  0.27665552646E+02 -0.43090656158E+03  0.43188289131E+03  0.41800000000E+01 0. -1.
        -11    1    1    2    0    0 -0.62278800845E+02 -0.14409039314E+02 -0.35243254161E+03  0.35818286647E+03  0.00000000000E+00 0. -1.
         11    1    1    2    0    0  0.31988435611E+02 -0.32318039572E+01 -0.92847602007E+02  0.98256713603E+02  0.00000000000E+00 0.  1.
</event>
<event>
 7    1  0.2394257E-009  0.1148307E+03  0.7561462E-02  0.1251877E+00
          1   -1    0    0  501    0  0.00000000000E+00  0.00000000000E+00  0.40922117436E+03  0.40922117436E+03  0.00000000000E+00 0. -1.
         -1   -1    0    0    0  501 -0.00000000000E+00 -0.00000000000E+00 -0.42795293287E+02  0.42795293287E+02  0.00000000000E+00 0.  1.
         25    2    1    2    0    0  0.80704006115E+01  0.62469991854E+02  0.27344045143E+03  0.30722081155E+03  0.12508922945E+03 0.  0.
          5    1    3    3  502    0  0.35154084589E+02  0.89048095097E+02  0.23127081839E+03  0.25033784521E+03  0.41800000000E+01 0.  1.
         -5    1    3    3    0  502 -0.27083683978E+02 -0.26578103242E+02  0.42169633037E+02  0.56882966345E+02  0.41800000000E+01 0.  1.
        -11    1    1    2    0    0  0.28770387589E+02 -0.48233883823E+02  0.88812041996E+02  0.10508007211E+03  0.00000000000E+00 0. -1.
         11    1    1    2    0    0 -0.36840788201E+02 -0.14236108031E+02  0.41733876509E+01  0.39715583989E+02  0.00000000000E+00 0.  1.
</event>
<event>
 7    1  0.2394257E-009  0.9717659E+02  0.7561462E-02  0.1286348E+00
         -4   -1    0    0    0  501 -0.00000000000E+00  0.00000000000E+00  0.71508008314E+03  0.71508008314E+03  0.00000000000E+00 0.  1.
          4   -1    0    0  501    0  0.00000000000E+00 -0.00000000000E+00 -0.21476973845E+02  0.21476973845E+02  0.00000000000E+00 0. -1.
         25    2    1    2    0    0  0.41362157268E+02  0.22792606576E+02  0.49884936938E+03  0.51645720085E+03  0.12508803302E+03 0.  0.
          5    1    3    3  502    0 -0.24644370008E+02 -0.10443912244E+02  0.34143592154E+03  0.34250895053E+03  0.41800000000E+01 0. -1.
         -5    1    3    3    0  502  0.66006527276E+02  0.33236518820E+02  0.15741344784E+03  0.17394825032E+03  0.41800000000E+01 0. -1.
        -11    1    1    2    0    0  0.22151702529E+02  0.68014788532E+01  0.16156052235E+02  0.28248470106E+02  0.00000000000E+00 0. -1.
         11    1    1    2    0    0 -0.63513859797E+02 -0.29594085430E+02  0.17859768767E+03  0.19185138603E+03  0.00000000000E+00 0.  1.
</event>
<event>
 7    1  0.2394257E-009  0.8752372E+02  0.7561462E-02  0.1308962E+00
         -1   -1    0    0    0  501 -0.00000000000E+00  0.00000000000E+00  0.52254781805E+02  0.52254781805E+02  0.00000000000E+00 0.  1.
          1   -1    0    0  501    0  0.00000000000E+00 -0.00000000000E+00 -0.26837985014E+03  0.26837985014E+03  0.00000000000E+00 0. -1.
         25    2    1    2    0    0 -0.19726961012E+02  0.19886640482E+02 -0.17412402287E+03  0.21622031984E+03  0.12508964748E+03 0.  0.
          5    1    3    3  502    0  0.17600696908E+02  0.63616645045E+02 -0.64604727963E+02  0.92455964294E+02  0.41800000000E+01 0. -1.
         -5    1    3    3    0  502 -0.37327657919E+02 -0.43730004563E+02 -0.10951929491E+03  0.12376435554E+03  0.41800000000E+01 0. -1.
        -11    1    1    2    0    0 -0.13464138190E+02 -0.21680099994E+01  0.24481498371E+02  0.28023687249E+02  0.00000000000E+00 0.  1.
         11    1    1    2    0    0  0.33191099201E+02 -0.17718630482E+02 -0.66482543833E+02  0.76390624862E+02  0.00000000000E+00 0. -1.
</event>
<event>
 7    1  0.2394257E-009  0.1213723E+03  0.7561462E-02  0.1240850E+00
         -3   -1    0    0    0  501 -0.00000000000E+00  0.00000000000E+00  0.41169404802E+02  0.41169404802E+02  0.00000000000E+00 0.  1.
          3   -1    0    0  501    0  0.00000000000E+00 -0.00000000000E+00 -0.37229379288E+03  0.37229379288E+03  0.00000000000E+00 0. -1.
         25    2    1    2    0    0  0.35932600146E+02 -0.20436828171E+02 -0.20743049174E+03  0.24573008980E+03  0.12508817863E+03 0.  0.
          5    1    3    3  502    0  0.86023143549E+01  0.52449379306E+02 -0.94610844347E+02  0.10859844138E+03  0.41800000000E+01 0. -1.
         -5    1    3    3    0  502  0.27330285791E+02 -0.72886207477E+02 -0.11281964739E+03  0.13713164842E+03  0.41800000000E+01 0. -1.
        -11    1    1    2    0    0  0.41586940098E+01  0.57038640758E+02 -0.48472536428E+02  0.74968580507E+02  0.00000000000E+00 0. -1.
         11    1    1    2    0    0 -0.40091294156E+02 -0.36601812587E+02 -0.75221359915E+02  0.92764527376E+02  0.00000000000E+00 0.  1.
</event>
<event>
 7    1  0.2394257E-009  0.6822267E+02  0.7561462E-02  0.1366243E+00
         -2   -1    0    0    0  501 -0.00000000000E+00  0.00000000000E+00  0.34144795716E+03  0.34144795716E+03  0.00000000000E+00 0.  1.
          2   -1    0    0  501    0  0.00000000000E+00 -0.00000000000E+00 -0.47797085333E+02  0.47797085333E+02  0.00000000000E+00 0. -1.
         25    2    1    2    0    0 -0.48340728155E+02 -0.27076486614E+02  0.22954512499E+03  0.26722306927E+03  0.12508893722E+03 0.  0.
          5    1    3    3  502    0  0.10104087593E+02 -0.30842126064E+01 -0.12583124161E+02  0.16953240609E+02  0.41800000000E+01 0.  1.
         -5    1    3    3    0  502 -0.58444815748E+02 -0.23992274008E+02  0.24212824915E+03  0.25026982866E+03  0.41800000000E+01 0.  1.
        -11    1    1    2    0    0  0.20531035547E+02  0.27049200238E+02  0.82135756128E+02  0.88878935012E+02  0.00000000000E+00 0. -1.
         11    1    1    2    0    0  0.27809692608E+02  0.27286375693E-01 -0.18030009285E+02  0.33143038218E+02  0.00000000000E+00 0.  1.
</event>
<event>
 7    1  0.2394257E-009  0.1266274E+03  0.7561462E-02  0.1232548E+00
         -1   -1    0    0    0  501 -0.00000000000E+00  0.00000000000E+00  0.10188373099E+02  0.10188373099E+02  0.00000000000E+00 0.  1.
          1   -1    0    0  501    0  0.00000000000E+00 -0.00000000000E+00 -0.18462645168E+04  0.18462645168E+04  0.00000000000E+00 0. -1.
         25    2    1    2    0    0 -0.44785906205E+02 -0.64864477604E+02 -0.11948221034E+04  0.12039352068E+04  0.12508775180E+03 0.  0.
          5    1    3    3  502    0 -0.66510098364E+02 -0.71590229980E+00 -0.34299686824E+03  0.34941154778E+03  0.41800000000E+01 0.  1.
         -5    1    3    3    0  502  0.21724192159E+02 -0.64148575304E+02 -0.85182523513E+03  0.85452365903E+03  0.41800000000E+01 0.  1.
        -11    1    1    2    0    0  0.26220111543E+02 -0.19305230241E+02 -0.12799163547E+03  0.13206833426E+03  0.00000000000E+00 0. -1.
         11    1    1    2    0    0  0.18565794662E+02  0.84169707845E+02 -0.51326240487E+03  0.52044934883E+03  0.00000000000E+00 0.  1.
</event>
<event>
 7    1  0.2394257E-009  0.2135468E+03  0.7561462E-02  0.1138788E+00
         -1   -1    0    0    0  501 -0.00000000000E+00  0.00000000000E+00  0.74162459484E+02  0.74162459484E+02  0.00000000000E+00 0.  1.
          1   -1    0    0  501    0  0.00000000000E+00 -0.00000000000E+00 -0.71629317451E+03  0.71629317451E+03  0.00000000000E+00 0. -1.
         25    2    1    2    0    0 -0.14292280533E+03  0.12028435092E+03 -0.19576593458E+03  0.29811075496E+03  0.12510182941E+03 0.  0.
          5    1    3    3  502    0  0.18676865041E+02 -0.44717665450E+00 -0.36017564199E+01  0.19479997537E+02  0.41800000000E+01 0.  1.
         -5    1    3    3    0  502 -0.16159967037E+03  0.12073152758E+03 -0.19216417816E+03  0.27863075743E+03  0.41800000000E+01 0.  1.
        -11    1    1    2    0    0  0.26382551269E+02 -0.77788503604E+02 -0.20806619866E+03  0.22369316782E+03  0.00000000000E+00 0. -1.
         11    1    1    2    0    0  0.11654025406E+03 -0.42495847318E+02 -0.23829858178E+03  0.26865171121E+03  0.00000000000E+00 0.  1.
</event>
<event>
 7    1  0.2394257E-009  0.1112857E+03  0.7561462E-02  0.1258207E+00
          3   -1    0    0  501    0  0.00000000000E+00  0.00000000000E+00  0.12523735434E+03  0.12523735434E+03  0.00000000000E+00 0. -1.
         -3   -1    0    0    0  501 -0.00000000000E+00 -0.00000000000E+00 -0.37759180491E+03  0.37759180491E+03  0.00000000000E+00 0.  1.
         25    2    1    2    0    0  0.36000891099E+02  0.80096972442E+02 -0.32461806517E+03  0.35879624985E+03  0.12508505713E+03 0.  0.
          5    1    3    3  502    0 -0.29468694645E+02  0.40811806723E+02 -0.23779796605E+03  0.24310358408E+03  0.41800000000E+01 0. -1.
         -5    1    3    3    0  502  0.65469585744E+02  0.39285165719E+02 -0.86820099118E+02  0.11569266577E+03  0.41800000000E+01 0. -1.
        -11    1    1    2    0    0 -0.39686961728E+02 -0.43785784977E+02 -0.42625706984E+01  0.59248792445E+02  0.00000000000E+00 0.  1.
         11    1    1    2    0    0  0.36860706287E+01 -0.36311187465E+02  0.76526185293E+02  0.84784116951E+02  0.00000000000E+00 0. -1.
</event>
<event>
 7    1  0.2394257E-009  0.2269041E+03  0.7561462E-02  0.1128838E+00
         -1   -1    0    0    0  501 -0.00000000000E+00  0.00000000000E+00  0.31552157766E+02  0.31552157766E+02  0.00000000000E+00 0.  1.
          1   -1    0    0  501    0  0.00000000000E+00 -0.00000000000E+00 -0.17740202211E+04  0.17740202211E+04  0.00000000000E+00 0. -1.
         25    2    1    2    0    0  0.20880807801E+03 -0.21634499736E+02 -0.90447999807E+03  0.93690963016E+03  0.12508686247E+03 0.  0.
          5    1    3    3  502    0  0.14797709153E+03 -0.53428007148E+02 -0.76942263515E+03  0.78535370086E+03  0.41800000000E+01 0. -1.
         -5    1    3    3    0  502  0.60830986479E+02  0.31793507412E+02 -0.13505736292E+03  0.15155592931E+03  0.41800000000E+01 0. -1.
        -11    1    1    2    0    0 -0.24999835022E+01 -0.17496150196E+02 -0.92077279107E+02  0.93758149070E+02  0.00000000000E+00 0. -1.
         11    1    1    2    0    0 -0.20630809451E+03  0.39130649932E+02 -0.74591078613E+03  0.77490459960E+03  0.00000000000E+00 0.  1.
</event>
<event>
 7    1  0.2394257E-009  0.1596391E+03  0.7561462E-02  0.1189105E+00
         -3   -1    0    0    0  501 -0.00000000000E+00  0.00000000000E+00  0.17344377085E+03  0.17344377085E+03  0.00000000000E+00 0.  1.
          3   -1    0    0  501    0  0.00000000000E+00 -0.00000000000E+00 -0.26276290790E+03  0.26276290790E+03  0.00000000000E+00 0. -1.
         25    2    1    2    0    0 -0.75772184246E+02  0.12414506377E+03  0.67388311624E+02  0.20332664698E+03  0.12508844896E+03 0.  0.
          5    1    3    3  502    0 -0.42698850276E+02  0.12662479724E+03  0.91587911775E+02  0.16205816572E+03  0.41800000000E+01 0.  1.
         -5    1    3    3    0  502 -0.33073333969E+02 -0.24797334741E+01 -0.24199600151E+02  0.41268481259E+02  0.41800000000E+01 0.  1.
        -11    1    1    2    0    0  0.27691776691E+02 -0.12083287692E+02 -0.87719393483E+02  0.92776787672E+02  0.00000000000E+00 0. -1.
         11    1    1    2    0    0  0.48080407555E+02 -0.11206177608E+03 -0.68988055198E+02  0.14010324410E+03  0.00000000000E+00 0.  1.
</event>
<event>
 7    1  0.2394257E-009  0.1376715E+03  0.7561462E-02  0.1216497E+00
          2   -1    0    0  501    0  0.00000000000E+00  0.00000000000E+00  0.52651515466E+03  0.52651515466E+03  0.00000000000E+00 0. -1.
         -2   -1    0    0    0  501 -0.00000000000E+00 -0.00000000000E+00 -0.57332331450E+02  0.57332331450E+02  0.00000000000E+00 0.  1.
         25    2    1    2    0    0 -0.96625311731E+02  0.61906247033E+02  0.12767412604E+03  0.21239823298E+03  0.12507394863E+03 0.  0.
          5    1    3    3  502    0 -0.46751015407E+02 -0.29099359233E+02  0.11212668894E+02  0.56352697301E+02  0.41800000000E+01 0. -1.
         -5    1    3    3    0  502 -0.49874296323E+02  0.91005606265E+02  0.11646145715E+03  0.15604553568E+03  0.41800000000E+01 0. -1.
        -11    1    1    2    0    0  0.57861633589E+02 -0.47643919012E+02  0.92581861521E+02  0.11911890170E+03  0.00000000000E+00 0.  1.
         11    1    1    2    0    0  0.38763678142E+02 -0.14262328020E+02  0.24892683565E+03  0.25233035142E+03  0.00000000000E+00 0. -1.
</event>
<event>
 7    1  0.2394257E-009  0.1592255E+03  0.7561462E-02  0.1189574E+00
          1   -1    0    0  501    0  0.00000000000E+00  0.00000000000E+00  0.69484682692E+03  0.69484682692E+03  0.00000000000E+00 0.  1.
         -1   -1    0    0    0  501 -0.00000000000E+00 -0.00000000000E+00 -0.48459802748E+02  0.48459802748E+02  0.00000000000E+00 0. -1.
         25    2    1    2    0    0 -0.13817824051E+03  0.41695772544E+02  0.27216224320E+03  0.33249214956E+03  0.12508788629E+03 0.  0.
          5    1    3    3  502    0 -0.27528319587E+02 -0.18520599234E+02  0.98691868432E+00  0.33455453722E+02  0.41800000000E+01 0.  1.
         -5    1    3    3    0  502 -0.11064992093E+03  0.60216371778E+02  0.27117532451E+03  0.29903669583E+03  0.41800000000E+01 0.  1.
        -11    1    1    2    0    0  0.86702285192E+02 -0.58758100260E+02  0.30740399161E+03  0.32475685468E+03  0.00000000000E+00 0.  1.
         11    1    1    2    0    0  0.51475955323E+02  0.17062327716E+02  0.66820789367E+02  0.86057625433E+02  0.00000000000E+00 0. -1.
</event>
<event>
 7    1  0.2394257E-009  0.1351091E+03  0.7561462E-02  0.1220066E+00
         -2   -1    0    0    0  501 -0.00000000000E+00  0.00000000000E+00  0.32471465568E+03  0.32471465568E+03  0.00000000000E+00 0.  1.
          2   -1    0    0  501    0  0.00000000000E+00 -0.00000000000E+00 -0.77513284164E+02  0.77513284164E+02  0.00000000000E+00 0. -1.
         25    2    1    2    0    0 -0.46283229687E+01  0.11270482627E+03  0.16381346393E+03  0.23495980852E+03  0.12508981340E+03 0.  0.
          5    1    3    3  502    0 -0.49869539225E+02  0.19630699220E+02  0.19199186597E+02  0.57082540766E+02  0.41800000000E+01 0.  1.
         -5    1    3    3    0  502  0.45241216256E+02  0.93074127051E+02  0.14461427733E+03  0.17787726775E+03  0.41800000000E+01 0.  1.
        -11    1    1    2    0    0  0.44590514546E+01 -0.53676970617E+02 -0.11916566123E+02  0.55164344124E+02  0.00000000000E+00 0. -1.
         11    1    1    2    0    0  0.16927151410E+00 -0.59027855655E+02  0.95304473714E+02  0.11210378721E+03  0.00000000000E+00 0.  1.
</event>
<event>
 7    1  0.2394257E-009  0.1535225E+03  0.7561462E-02  0.1196210E+00
          1   -1    0    0  501    0  0.00000000000E+00  0.00000000000E+00  0.84317673606E+03  0.84317673606E+03  0.00000000000E+00 0. -1.
         -1   -1    0    0    0  501 -0.00000000000E+00 -0.00000000000E+00 -0.38777415355E+02  0.38777415355E+02  0.00000000000E+00 0.  1.
         25    2    1    2    0    0 -0.11030796847E+03  0.93546686219E+02  0.42234457232E+03  0.46361673859E+03  0.12508681835E+03 0.  0.
          5    1    3    3  502    0 -0.67941599556E+02  0.63118832741E+02  0.97652537101E+02  0.13473506744E+03  0.41800000000E+01 0. -1.
         -5    1    3    3    0  502 -0.42366368910E+02  0.30427853477E+02  0.32469203522E+03  0.32888167115E+03  0.41800000000E+01 0. -1.
        -11    1    1    2    0    0  0.36479505848E+02 -0.78468669651E+02  0.13774135018E+03  0.16266765509E+03  0.00000000000E+00 0.  1.
         11    1    1    2    0    0  0.73828462618E+02 -0.15078016568E+02  0.24431339820E+03  0.25566975773E+03  0.00000000000E+00 0. -1.
</event>
<event>
 7    1  0.2394257E-009  0.1270464E+03  0.7561462E-02  0.1231905E+00
         -1   -1    0    0    0  501 -0.00000000000E+00  0.00000000000E+00  0.28624458756E+02  0.28624458756E+02  0.00000000000E+00 0.  1.
          1   -1    0    0  501    0  0.00000000000E+00 -0.00000000000E+00 -0.64553064978E+03  0.64553064978E+03  0.00000000000E+00 0. -1.
         25    2    1    2    0    0  0.42978435833E+02 -0.58069222745E+02 -0.23989172969E+03  0.28002597174E+03  0.12508925734E+03 0.  0.
          5    1    3    3  502    0  0.16294795857E+02 -0.93689546059E+02 -0.19325138043E+03  0.21542242189E+03  0.41800000000E+01 0. -1.
         -5    1    3    3    0  502  0.26683639975E+02  0.35620323314E+02 -0.46640349255E+02  0.64603549856E+02  0.41800000000E+01 0. -1.
        -11    1    1    2    0    0 -0.10798356808E+02 -0.23854750986E+02 -0.69611241404E+02  0.74373238360E+02  0.00000000000E+00 0. -1.
         11    1    1    2    0    0 -0.32180079025E+02  0.81923973731E+02 -0.30740321993E+03  0.31975589843E+03  0.00000000000E+00 0.  1.
</event>
<event>
 7    1  0.2394257E-009  0.1623755E+03  0.7561462E-02  0.1186041E+00
          1   -1    0    0  501    0  0.00000000000E+00  0.00000000000E+00  0.16062843430E+04  0.16062843430E+04  0.00000000000E+00 0. -1.
         -1   -1    0    0    0  501 -0.00000000000E+00 -0.00000000000E+00 -0.18208147665E+02  0.18208147665E+02  0.00000000000E+00 0.  1.
         25    2    1    2    0    0  0.12935535011E+03 -0.21548879059E+02  0.84024849066E+03  0.85957113763E+03  0.12509138181E+03 0.  0.
          5    1    3    3  502    0  0.74715257597E+02  0.39761711703E+02  0.59257637700E+03  0.59860470965E+03  0.41800000000E+01 0.  1.
         -5    1    3    3    0  502  0.54640092517E+02 -0.61310590761E+02  0.24767211366E+03  0.26096642799E+03  0.41800000000E+01 0.  1.
        -11    1    1    2    0    0 -0.14119690341E+03  0.10504273246E+02  0.70623011663E+03  0.72028319633E+03  0.00000000000E+00 0. -1.
         11    1    1    2    0    0  0.11841553301E+02  0.11044605813E+02  0.41597588074E+02  0.44638156724E+02  0.00000000000E+00 0.  1.
</event>
<event>
 7    1  0.2394257E-009  0.1761241E+03  0.7561462E-02  0.1171608E+00
          2   -1    0    0  501    0  0.00000000000E+00  0.00000000000E+00  0.84883671720E+03  0.84883671720E+03  0.00000000000E+00 0. -1.
         -2   -1    0    0    0  501 -0.00000000000E+00 -0.00000000000E+00 -0.49422520008E+02  0.49422520008E+02  0.00000000000E+00 0.  1.
         25    2    1    2    0    0 -0.16179468777E+03  0.60811988545E+02  0.39624936089E+03  0.45004273196E+03  0.12509710486E+03 0.  0.
          5    1    3    3  502    0 -0.14546793032E+03  0.65789766517E+02  0.40117170470E+03  0.43179326208E+03  0.41800000000E+01 0. -1.
         -5    1    3    3    0  502 -0.16326757450E+02 -0.49777779722E+01 -0.49223438063E+01  0.18249469880E+02  0.41800000000E+01 0. -1.
        -11    1    1    2    0    0  0.37372038983E+02 -0.26772564147E+02  0.34044068818E+02  0.57205227999E+02  0.00000000000E+00 0.  1.
         11    1    1    2    0    0  0.12442264879E+03 -0.34039424398E+02  0.36912076748E+03  0.39101127724E+03  0.00000000000E+00 0. -1.
</event>
<event>
 7    1  0.2394257E-009  0.1990835E+03  0.7561462E-02  0.1150515E+00
          2   -1    0    0  501    0  0.00000000000E+00  0.00000000000E+00  0.98650973653E+02  0.98650973653E+02  0.00000000000E+00 0. -1.
         -2   -1    0    0    0  501 -0.00000000000E+00 -0.00000000000E+00 -0.51705869123E+03  0.51705869123E+03  0.00000000000E+00 0.  1.
         25    2    1    2    0    0 -0.90024127973E+02 -0.17452585770E+03 -0.24044668989E+03  0.33470248654E+03  0.12509006834E+03 0.  0.
          5    1    3    3  502    0 -0.34259856622E+01 -0.11306659157E+02 -0.10455602796E+03  0.10530438406E+03  0.41800000000E+01 0.  1.
         -5    1    3    3    0  502 -0.86598142311E+02 -0.16321919855E+03 -0.13589066192E+03  0.22939810248E+03  0.41800000000E+01 0.  1.
        -11    1    1    2    0    0  0.91433696110E+00  0.36596639073E+02  0.28978735486E+01  0.36722577178E+02  0.00000000000E+00 0.  1.
         11    1    1    2    0    0  0.89109791012E+02  0.13792921863E+03 -0.18085890124E+03  0.24428460116E+03  0.00000000000E+00 0. -1.
</event>
<event>
 7    1  0.2394257E-009  0.8738864E+02  0.7561462E-02  0.1309302E+00
         -2   -1    0    0    0  501 -0.00000000000E+00  0.00000000000E+00  0.10137167721E+03  0.10137167721E+03  0.00000000000E+00 0.  1.
          2   -1    0    0  501    0  0.00000000000E+00 -0.00000000000E+00 -0.14953612441E+03  0.14953612441E+03  0.00000000000E+00 0. -1.
         25    2    1    2    0    0 -0.40871465228E+02  0.29880890557E+02 -0.56761856497E+02  0.14640087117E+03  0.12509181602E+03 0.  0.
          5    1    3    3  502    0 -0.67584295018E+02  0.18152639858E+02  0.12426253508E+02  0.71197187045E+02  0.41800000000E+01 0. -1.
         -5    1    3    3    0  502  0.26712829791E+02  0.11728250699E+02 -0.69188110005E+02  0.75203684124E+02  0.41800000000E+01 0. -1.
        -11    1    1    2    0    0 -0.36474521589E+01  0.12931779118E+02  0.34883364516E+02  0.37381598927E+02  0.00000000000E+00 0.  1.
         11    1    1    2    0    0  0.44518917387E+02 -0.42812669675E+02 -0.26285955222E+02  0.67125331522E+02  0.00000000000E+00 0. -1.
</event>
<event>
 7    1  0.2933150E-009  0.1402866E+03  0.7561462E-02  0.1212944E+00
          1   -1    0    0  501    0  0.00000000000E+00  0.00000000000E+00  0.12874068384E+04  0.12874068384E+04  0.00000000000E+00 0. -1.
         -1   -1    0    0    0  501 -0.00000000000E+00 -0.00000000000E+00 -0.17789386287E+02  0.17789386287E+02  0.00000000000E+00 0.  1.
         25    2    1    2    0    0  0.99331814444E+02  0.33255529231E+02  0.63919519715E+03  0.65969032226E+03  0.12509229246E+03 0.  0.
          5    1    3    3  502    0  0.99047325050E+02  0.61268852163E+02  0.60068149871E+03  0.61188232540E+03  0.41800000000E+01 0.  1.
         -5    1    3    3    0  502  0.28448939466E+00 -0.28013322931E+02  0.38513698449E+02  0.47807996863E+02  0.41800000000E+01 0.  1.
        -11    1    1    2    0    0 -0.20678639764E+02 -0.51039276354E+02  0.32421888172E+03  0.32886242889E+03  0.00000000000E+00 0. -1.
         11    1    1    2    0    0 -0.78653174681E+02  0.17783747123E+02  0.30620337320E+03  0.31664347350E+03  0.00000000000E+00 0.  1.
</event>
<event>
 7    1  0.2394257E-009  0.1177842E+03  0.7561462E-02  0.1246798E+00
          2   -1    0    0  501    0  0.00000000000E+00  0.00000000000E+00  0.45235571309E+03  0.45235571309E+03  0.00000000000E+00 0. -1.
         -2   -1    0    0    0  501 -0.00000000000E+00 -0.00000000000E+00 -0.49389472701E+02  0.49389472701E+02  0.00000000000E+00 0.  1.
         25    2    1    2    0    0 -0.27246895641E+02 -0.92491277736E+02  0.16414387989E+03  0.22778878176E+03  0.12508991171E+03 0.  0.
          5    1    3    3  502    0 -0.37503232789E+02 -0.51189483017E+01  0.12632615697E+03  0.13194114763E+03  0.41800000000E+01 0.  1.
         -5    1    3    3    0  502  0.10256337149E+02 -0.87372329434E+02  0.37817722921E+02  0.95847634136E+02  0.41800000000E+01 0.  1.
        -11    1    1    2    0    0  0.69969074341E+01  0.88500167910E+02  0.23718182214E+03  0.25325175850E+03  0.00000000000E+00 0.  1.
         11    1    1    2    0    0  0.20249988206E+02  0.39911098263E+01  0.16405383546E+01  0.20704645520E+02  0.00000000000E+00 0. -1.
</event>
<event>
 7    1  0.2394257E-009  0.1097207E+03  0.7561462E-02  0.1261088E+00
         -2   -1    0    0    0  501 -0.00000000000E+00  0.00000000000E+00  0.13542867142E+03  0.13542867142E+03  0.00000000000E+00 0.  1.
          2   -1    0    0  501    0  0.00000000000E+00 -0.00000000000E+00 -0.11717840421E+03  0.11717840421E+03  0.00000000000E+00 0. -1.
         25    2    1    2    0    0 -0.62310992124E+02  0.12650353980E+02  0.11185006557E+02  0.14076663379E+03  0.12508976625E+03 0.  0.
          5    1    3    3  502    0 -0.77742043829E+02 -0.38086586204E+02  0.12418026508E+02  0.87556228847E+02  0.41800000000E+01 0. -1.
         -5    1    3    3    0  502  0.15431051706E+02  0.50736940184E+02 -0.12330199516E+01  0.53210404942E+02  0.41800000000E+01 0. -1.
        -11    1    1    2    0    0  0.51331284361E+02  0.11889360623E+02 -0.34036303704E+02  0.62727407247E+02  0.00000000000E+00 0. -1.
         11    1    1    2    0    0  0.10979707763E+02 -0.24539714603E+02  0.41101564354E+02  0.49113034601E+02  0.00000000000E+00 0.  1.
</event>
<event>
 7    1  0.2394257E-009  0.1056633E+03  0.7561462E-02  0.1268818E+00
          1   -1    0    0  501    0  0.00000000000E+00  0.00000000000E+00  0.18971472343E+03  0.18971472343E+03  0.00000000000E+00 0. -1.
         -1   -1    0    0    0  501 -0.00000000000E+00 -0.00000000000E+00 -0.68224594995E+02  0.68224594995E+02  0.00000000000E+00 0.  1.
         25    2    1    2    0    0 -0.22915078028E+02  0.75393053007E+01  0.92350250369E+02  0.15734437265E+03  0.12508693351E+03 0.  0.
          5    1    3    3  502    0 -0.46860528076E+02 -0.40437388373E+02  0.16201505447E+02  0.64117490973E+02  0.41800000000E+01 0. -1.
         -5    1    3    3    0  502  0.23945450049E+02  0.47976693674E+02  0.76148744922E+02  0.93226881676E+02  0.41800000000E+01 0. -1.
        -11    1    1    2    0    0 -0.29290383725E+02 -0.26956926625E+02  0.18466629730E+02  0.43881874224E+02  0.00000000000E+00 0. -1.
         11    1    1    2    0    0  0.52205461752E+02  0.19417621324E+02  0.10673248335E+02  0.56713071550E+02  0.00000000000E+00 0.  1.
</event>
<event>
 7    1  0.2394257E-009  0.1248325E+03  0.7561462E-02  0.1235331E+00
         -2   -1    0    0    0  501 -0.00000000000E+00  0.00000000000E+00  0.61781129270E+02  0.61781129270E+02  0.00000000000E+00 0.  1.
          2   -1    0    0  501    0  0.00000000000E+00 -0.00000000000E+00 -0.37246442317E+03  0.37246442317E+03  0.00000000000E+00 0. -1.
         25    2    1    2    0    0 -0.61054155113E+02  0.37526480322E+02 -0.54685831300E+02  0.15418753204E+03  0.12508960113E+03 0.  0.
          5    1    3    3  502    0 -0.12634133861E+02 -0.45791789439E+02 -0.19330966246E+02  0.51455495085E+02  0.41800000000E+01 0. -1.
         -5    1    3    3    0  502 -0.48420021252E+02  0.83318269761E+02 -0.35354865055E+02  0.10273203696E+03  0.41800000000E+01 0. -1.
        -11    1    1    2    0    0 -0.88586853120E+01 -0.34418239294E+02 -0.42599170203E+02  0.55477750527E+02  0.00000000000E+00 0.  1.
         11    1    1    2    0    0  0.69912840425E+02 -0.31082410282E+01 -0.21339829240E+03  0.22458026988E+03  0.00000000000E+00 0. -1.
</event>
<event>
 7    1  0.2394257E-009  0.1860933E+03  0.7561462E-02  0.1162033E+00
         -2   -1    0    0    0  501 -0.00000000000E+00  0.00000000000E+00  0.75442591254E+02  0.75442591254E+02  0.00000000000E+00 0.  1.
          2   -1    0    0  501    0  0.00000000000E+00 -0.00000000000E+00 -0.59078964347E+03  0.59078964347E+03  0.00000000000E+00 0. -1.
         25    2    1    2    0    0 -0.11726346247E+03 -0.12445776025E+03 -0.17368085573E+03  0.27396323245E+03  0.12510139636E+03 0.  0.
          5    1    3    3  502    0 -0.10995359264E+03 -0.14268131405E+03 -0.11956272188E+03  0.21624168603E+03  0.41800000000E+01 0. -1.
         -5    1    3    3    0  502 -0.73098698279E+01  0.18223553793E+02 -0.54118133857E+02  0.57721546427E+02  0.41800000000E+01 0. -1.
        -11    1    1    2    0    0  0.79829173444E+02  0.96316731917E+02 -0.31369643201E+03  0.33772038914E+03  0.00000000000E+00 0. -1.
         11    1    1    2    0    0  0.37434289028E+02  0.28141028335E+02 -0.27969764473E+02  0.54548613140E+02  0.00000000000E+00 0.  1.
</event>
<event>
 7    1  0.2394257E-009  0.1126296E+03  0.7561462E-02  0.1255776E+00
          2   -1    0    0  501    0  0.00000000000E+00  0.00000000000E+00  0.82352989805E+02  0.82352989805E+02  0.00000000000E+00 0. -1.
         -2   -1    0    0    0  501 -0.00000000000E+00 -0.00000000000E+00 -0.15599356544E+03  0.15599356544E+03  0.00000000000E+00 0.  1.
         25    2    1    2    0    0  0.34503018647E+02  0.49291247746E+01 -0.33418863715E+02  0.13407947005E+03  0.12508288959E+03 0.  0.
          5    1    3    3  502    0  0.72174015102E+02  0.35449826076E+02 -0.14212404573E+02  0.81763338169E+02  0.41800000000E+01 0.  1.
         -5    1    3    3    0  502 -0.37670996455E+02 -0.30520701302E+02 -0.19206459142E+02  0.52316131878E+02  0.41800000000E+01 0.  1.
        -11    1    1    2    0    0 -0.33007588722E+02 -0.45094702748E+02 -0.20825543899E+02  0.59638380326E+02  0.00000000000E+00 0. -1.
         11    1    1    2    0    0 -0.14954299248E+01  0.40165577974E+02 -0.19396168021E+02  0.44628704872E+02  0.00000000000E+00 0.  1.
</event>
<event>
 7    1  0.2394257E-009  0.1858182E+03  0.7561462E-02  0.1162288E+00
          3   -1    0    0  501    0  0.00000000000E+00  0.00000000000E+00  0.10700469657E+04  0.10700469657E+04  0.00000000000E+00 0. -1.
         -3   -1    0    0    0  501 -0.00000000000E+00 -0.00000000000E+00 -0.35155618736E+02  0.35155618736E+02  0.00000000000E+00 0.  1.
         25    2    1    2    0    0  0.15763167557E+03 -0.17403870361E+02  0.61637846342E+03  0.64863275259E+03  0.12510554631E+03 0.  0.
          5    1    3    3  502    0  0.17033553504E+03 -0.40474758205E+02  0.54426065000E+03  0.57174253654E+03  0.41800000000E+01 0. -1.
         -5    1    3    3    0  502 -0.12703859477E+02  0.23070887844E+02  0.72117813415E+02  0.76890216044E+02  0.41800000000E+01 0. -1.
        -11    1    1    2    0    0 -0.12046444519E+03 -0.13878946691E+02  0.36342409449E+03  0.38312058177E+03  0.00000000000E+00 0. -1.
         11    1    1    2    0    0 -0.37167230380E+02  0.31282817052E+02  0.55088789009E+02  0.73449250039E+02  0.00000000000E+00 0.  1.
</event>
<event>
 7    1  0.2394257E-009  0.1078236E+03  0.7561462E-02  0.1264654E+00
          1   -1    0    0  501    0  0.00000000000E+00  0.00000000000E+00  0.26780045190E+03  0.26780045190E+03  0.00000000000E+00 0. -1.
         -1   -1    0    0    0  501 -0.00000000000E+00 -0.00000000000E+00 -0.55440710787E+02  0.55440710787E+02  0.00000000000E+00 0.  1.
         25    2    1    2    0    0  0.45875921427E+02  0.40320203023E+02  0.12870300992E+03  0.18958435062E+03  0.12508973698E+03 0.  0.
          5    1    3    3  502    0 -0.26241962642E+02 -0.10347273406E+02  0.87825748758E+02  0.92339272334E+02  0.41800000000E+01 0.  1.
         -5    1    3    3    0  502  0.72117884069E+02  0.50667476429E+02  0.40877261166E+02  0.97245078285E+02  0.41800000000E+01 0.  1.
        -11    1    1    2    0    0 -0.38412153434E+02 -0.63681678254E+02  0.42252626586E+02  0.85534403196E+02  0.00000000000E+00 0.  1.
         11    1    1    2    0    0 -0.74637679939E+01  0.23361475231E+02  0.41404104605E+02  0.48122408874E+02  0.00000000000E+00 0. -1.
</event>
<event>
 7    1  0.2394257E-009  0.7475565E+02  0.7561462E-02  0.1344629E+00
         -1   -1    0    0    0  501 -0.00000000000E+00  0.00000000000E+00  0.51171077578E+03  0.51171077578E+03  0.00000000000E+00 0.  1.
          1   -1    0    0  501    0  0.00000000000E+00 -0.00000000000E+00 -0.23109103401E+02  0.23109103401E+02  0.00000000000E+00 0. -1.
         25    2    1    2    0    0 -0.26002943415E+01  0.84536901508E+01  0.30513241589E+03  0.32989397527E+03  0.12508404090E+03 0.  0.
          5    1    3    3  502    0  0.28108337829E+02  0.92319195329E+01  0.77071895980E+01  0.30857416698E+02  0.41800000000E+01 0.  1.
         -5    1    3    3    0  502 -0.30708632171E+02 -0.77822938217E+00  0.29742522629E+03  0.29903655858E+03  0.41800000000E+01 0.  1.
        -11    1    1    2    0    0 -0.17721538868E+02  0.35793072276E+02  0.10763227242E+03  0.11480375877E+03  0.00000000000E+00 0.  1.
         11    1    1    2    0    0  0.20321833210E+02 -0.44246762427E+02  0.75836984073E+02  0.90122145134E+02  0.00000000000E+00 0. -1.
</event>
<event>
 7    1  0.2477558E-009  0.8226292E+02  0.7561462E-02  0.1322750E+00
          3   -1    0    0  501    0  0.00000000000E+00  0.00000000000E+00  0.59983491471E+03  0.59983491471E+03  0.00000000000E+00 0. -1.
         -3   -1    0    0    0  501 -0.00000000000E+00 -0.00000000000E+00 -0.24895713109E+02  0.24895713109E+02  0.00000000000E+00 0.  1.
         25    2    1    2    0    0 -0.13076847844E+02 -0.55236641926E+02  0.31006633804E+03  0.33913248674E+03  0.12509044335E+03 0.  0.
          5    1    3    3  502    0  0.75364102414E+01 -0.17261749438E+02  0.29113497444E+03  0.29177356154E+03  0.41800000000E+01 0. -1.
         -5    1    3    3    0  502 -0.20613258085E+02 -0.37974892488E+02  0.18931363602E+02  0.47358925201E+02  0.41800000000E+01 0. -1.
        -11    1    1    2    0    0 -0.63102804669E+01  0.74338176070E+02  0.14979303719E+03  0.16734377208E+03  0.00000000000E+00 0. -1.
         11    1    1    2    0    0  0.19387128311E+02 -0.19101534144E+02  0.11507982637E+03  0.11825436900E+03  0.00000000000E+00 0.  1.
</event>
<event>
 7    1  0.2394257E-009  0.1600506E+03  0.7561462E-02  0.1188640E+00
          2   -1    0    0  501    0  0.00000000000E+00  0.00000000000E+00  0.14578421501E+03  0.14578421501E+03  0.00000000000E+00 0. -1.
         -2   -1    0    0    0  501 -0.00000000000E+00 -0.00000000000E+00 -0.24882384942E+03  0.24882384942E+03  0.00000000000E+00 0.  1.
         25    2    1    2    0    0  0.20460642097E+02  0.14660753803E+03 -0.43829603291E+01  0.19385834285E+03  0.12509771648E+03 0.  0.
          5    1    3    3  502    0  0.62385106088E+01 -0.84756064323E+01  0.31941754630E+02  0.33889570783E+02  0.41800000000E+01 0.  1.
         -5    1    3    3    0  502  0.14222131488E+02  0.15508314446E+03 -0.36324714959E+02  0.15996877207E+03  0.41800000000E+01 0.  1.
        -11    1    1    2    0    0 -0.31354310122E+02 -0.89066753203E+02 -0.10628233910E+02  0.95020727451E+02  0.00000000000E+00 0. -1.
         11    1    1    2    0    0  0.10893668025E+02 -0.57540784827E+02 -0.88028440166E+02  0.10572899413E+03  0.00000000000E+00 0.  1.
</event>
<event>
 7    1  0.2394257E-009  0.8249262E+02  0.7561462E-02  0.1322123E+00
         -1   -1    0    0    0  501 -0.00000000000E+00  0.00000000000E+00  0.33368973615E+03  0.33368973615E+03  0.00000000000E+00 0.  1.
          1   -1    0    0  501    0  0.00000000000E+00 -0.00000000000E+00 -0.48836110396E+02  0.48836110396E+02  0.00000000000E+00 0. -1.
         25    2    1    2    0    0  0.24137401209E+02  0.41013007621E+02  0.11775317881E+03  0.17826344424E+03  0.12508942202E+03 0.  0.
          5    1    3    3  502    0  0.20558996114E+02  0.12559303207E+02  0.13975445038E+03  0.14187736684E+03  0.41800000000E+01 0.  1.
         -5    1    3    3    0  502  0.35784050949E+01  0.28453704414E+02 -0.22001271574E+02  0.36386077403E+02  0.41800000000E+01 0.  1.
        -11    1    1    2    0    0  0.38057375516E+02 -0.29843048357E+02  0.41772394650E+02  0.63905432642E+02  0.00000000000E+00 0. -1.
         11    1    1    2    0    0 -0.62194776725E+02 -0.11169959264E+02  0.12532805230E+03  0.14035696967E+03  0.00000000000E+00 0.  1.
</event>
<event>
 7    1  0.2394257E-009  0.7777279E+02  0.7561462E-02  0.1335493E+00
         -1   -1    0    0    0  501 -0.00000000000E+00  0.00000000000E+00  0.66782198380E+01  0.66782198380E+01  0.00000000000E+00 0.  1.
          1   -1    0    0  501    0  0.00000000000E+00 -0.00000000000E+00 -0.25053045667E+04  0.25053045667E+04  0.00000000000E+00 0. -1.
         25    2    1    2    0    0  0.34790046681E+02 -0.98728854329E+01 -0.19857216521E+04  0.19899862731E+04  0.12508823424E+03 0.  0.
          5    1    3    3  502    0  0.23555732715E+00 -0.21457588907E+02 -0.18250170072E+04  0.18251479481E+04  0.41800000000E+01 0.  1.
         -5    1    3    3    0  502  0.34554489353E+02  0.11584703474E+02 -0.16070464485E+03  0.16483832493E+03  0.41800000000E+01 0.  1.
        -11    1    1    2    0    0  0.16106984364E+02  0.36254708997E+02 -0.21092391959E+03  0.21462231647E+03  0.00000000000E+00 0.  1.
         11    1    1    2    0    0 -0.50897031045E+02 -0.26381823564E+02 -0.30198077526E+03  0.30737419704E+03  0.00000000000E+00 0. -1.
</event>
<event>
 7    1  0.2394257E-009  0.1046659E+03  0.7561462E-02  0.1270779E+00
         -1   -1    0    0    0  501 -0.00000000000E+00  0.00000000000E+00  0.84872727305E+02  0.84872727305E+02  0.00000000000E+00 0.  1.
          1   -1    0    0  501    0  0.00000000000E+00 -0.00000000000E+00 -0.19553246989E+03  0.19553246989E+03  0.00000000000E+00 0. -1.
         25    2    1    2    0    0  0.63254913643E+02 -0.49325631462E+01 -0.80957757263E+02  0.16194674954E+03  0.12508827661E+03 0.  0.
          5    1    3    3  502    0  0.89311418949E+02  0.31718958276E+02 -0.50498154435E+02  0.10747166078E+03  0.41800000000E+01 0. -1.
         -5    1    3    3    0  502 -0.26056505306E+02 -0.36651521422E+02 -0.30459602827E+02  0.54475088762E+02  0.41800000000E+01 0. -1.
        -11    1    1    2    0    0 -0.19231611161E+02  0.14699176964E+02 -0.59617397092E+02  0.64344033968E+02  0.00000000000E+00 0. -1.
         11    1    1    2    0    0 -0.44023302482E+02 -0.97666138173E+01  0.29915411773E+02  0.54114413685E+02  0.00000000000E+00 0.  1.
</event>
<event>
 7    1  0.2394257E-009  0.6414861E+02  0.7561462E-02  0.1381203E+00
          1   -1    0    0  501    0  0.00000000000E+00  0.00000000000E+00  0.37304515380E+02  0.37304515380E+02  0.00000000000E+00 0. -1.
         -1   -1    0    0    0  501 -0.00000000000E+00 -0.00000000000E+00 -0.43286567889E+03  0.43286567889E+03  0.00000000000E+00 0.  1.
         25    2    1    2    0    0  0.12887951924E+02 -0.51208649389E+01 -0.21513298573E+03  0.24924159048E+03  0.12508735472E+03 0.  0.
          5    1    3    3  502    0 -0.89359720404E+01 -0.66952754220E+01 -0.22468685206E+03  0.22500296042E+03  0.41800000000E+01 0. -1.
         -5    1    3    3    0  502  0.21823923964E+02  0.15744104831E+01  0.95538663220E+01  0.24238630062E+02  0.41800000000E+01 0. -1.
        -11    1    1    2    0    0 -0.43313224737E+02  0.31719300342E+02 -0.17127600791E+03  0.17949267488E+03  0.00000000000E+00 0.  1.
         11    1    1    2    0    0  0.30425272813E+02 -0.26598435403E+02 -0.91521698707E+01  0.41435928914E+02  0.00000000000E+00 0. -1.
</event>
<event>
 7    1  0.2394257E-009  0.1288641E+03  0.7561462E-02  0.1229151E+00
          2   -1    0    0  501    0  0.00000000000E+00  0.00000000000E+00  0.47281562737E+03  0.47281562737E+03  0.00000000000E+00 0. -1.
         -2   -1    0    0    0  501 -0.00000000000E+00 -0.00000000000E+00 -0.41247570636E+02  0.41247570636E+02  0.00000000000E+00 0.  1.
         25    2    1    2    0    0 -0.86619819023E+02 -0.13260604556E+02  0.23786686866E+03  0.28267778815E+03  0.12508896043E+03 0.  0.
          5    1    3    3  502    0 -0.10985417313E+03 -0.36941164473E+02  0.15716166453E+03  0.19531986634E+03  0.41800000000E+01 0.  1.
         -5    1    3    3    0  502  0.23234354110E+02  0.23680559918E+02  0.80705204133E+02  0.87357921810E+02  0.41800000000E+01 0.  1.
        -11    1    1    2    0    0  0.16524442828E+02  0.31776724307E+02  0.15548781392E+02  0.39045896343E+02  0.00000000000E+00 0.  1.
         11    1    1    2    0    0  0.70095376195E+02 -0.18516119751E+02  0.17815240668E+03  0.19233951352E+03  0.00000000000E+00 0. -1.
</event>
<event>
 7    1  0.2394257E-009  0.4436971E+03  0.7561462E-02  0.1029618E+00
         -2   -1    0    0    0  501 -0.00000000000E+00  0.00000000000E+00  0.44050343507E+03  0.44050343507E+03  0.00000000000E+00 0.  1.
          2   -1    0    0  501    0  0.00000000000E+00 -0.00000000000E+00 -0.46225992642E+03  0.46225992642E+03  0.00000000000E+00 0. -1.
         25    2    1    2    0    0  0.94298330906E+02  0.42314590817E+03  0.50066985380E+02  0.45398119837E+03  0.12509032988E+03 0.  0.
          5    1    3    3  502    0  0.11279783260E+03  0.26189217818E+03  0.40077574654E+01  0.28520939422E+03  0.41800000000E+01 0. -1.
         -5    1    3    3    0  502 -0.18499501692E+02  0.16125372999E+03  0.46059227915E+02  0.16877180415E+03  0.41800000000E+01 0. -1.
        -11    1    1    2    0    0 -0.38291636696E+02 -0.32167944660E+03 -0.29076239704E+02  0.32525273791E+03  0.00000000000E+00 0.  1.
         11    1    1    2    0    0 -0.56006694209E+02 -0.10146646157E+03 -0.42747237030E+02  0.12352942522E+03  0.00000000000E+00 0. -1.
</event>
<event>
 7    1  0.2394257E-009  0.8921576E+02  0.7561462E-02  0.1304762E+00
          2   -1    0    0  501    0  0.00000000000E+00  0.00000000000E+00  0.10448810281E+04  0.10448810281E+04  0.00000000000E+00 0. -1.
         -2   -1    0    0    0  501 -0.00000000000E+00 -0.00000000000E+00 -0.13709571423E+02  0.13709571423E+02  0.00000000000E+00 0.  1.
         25    2    1    2    0    0 -0.36109249573E+02  0.54787930138E+00  0.73231525957E+03  0.74379790713E+03  0.12508200978E+03 0.  0.
          5    1    3    3  502    0 -0.18848879252E+02  0.47636523560E+02  0.60060290259E+03  0.60279833910E+03  0.41800000000E+01 0. -1.
         -5    1    3    3    0  502 -0.17260370321E+02 -0.47088644259E+02  0.13171235698E+03  0.14099956803E+03  0.41800000000E+01 0. -1.
        -11    1    1    2    0    0 -0.17264075616E+02  0.13032682224E+02  0.16742288239E+02  0.27353305620E+02  0.00000000000E+00 0.  1.
         11    1    1    2    0    0  0.53373325190E+02 -0.13580561525E+02  0.28211390883E+03  0.28743938674E+03  0.00000000000E+00 0. -1.
</event>
<event>
 7    1  0.2394257E-009  0.9514032E+02  0.7561462E-02  0.1290860E+00
          2   -1    0    0  501    0  0.00000000000E+00  0.00000000000E+00  0.12869575679E+03  0.12869575679E+03  0.00000000000E+00 0. -1.
         -2   -1    0    0    0  501 -0.00000000000E+00 -0.00000000000E+00 -0.10829582483E+03  0.10829582483E+03  0.00000000000E+00 0.  1.
         25    2    1    2    0    0 -0.82937690995E+00  0.18030129755E+02  0.51897656012E+02  0.13663032398E+03  0.12509478520E+03 0.  0.
          5    1    3    3  502    0  0.22367948827E+02  0.64282324620E+02  0.50225717209E+02  0.84691424965E+02  0.41800000000E+01 0.  1.
         -5    1    3    3    0  502 -0.23197325737E+02 -0.46252194866E+02  0.16719388025E+01  0.51938899012E+02  0.41800000000E+01 0.  1.
        -11    1    1    2    0    0  0.34211923401E+02 -0.62536624412E+01 -0.49618902193E+02  0.60593724523E+02  0.00000000000E+00 0.  1.
         11    1    1    2    0    0 -0.33382546492E+02 -0.11776467314E+02  0.18121178142E+02  0.39767533113E+02  0.00000000000E+00 0. -1.
</event>
<event>
 7    1  0.2394257E-009  0.1379401E+03  0.7561462E-02  0.1216128E+00
          1   -1    0    0  501    0  0.00000000000E+00  0.00000000000E+00  0.31012571465E+03  0.31012571465E+03  0.00000000000E+00 0. -1.
         -1   -1    0    0    0  501 -0.00000000000E+00 -0.00000000000E+00 -0.11055610582E+03  0.11055610582E+03  0.00000000000E+00 0.  1.
         25    2    1    2    0    0 -0.10291422863E+03 -0.43099402206E+02  0.21748486641E+03  0.27458202188E+03  0.12508686061E+03 0.  0.
          5    1    3    3  502    0 -0.19773435651E+02 -0.58716478012E+02  0.16156910635E+03  0.17309148470E+03  0.41800000000E+01 0.  1.
         -5    1    3    3    0  502 -0.83140792983E+02  0.15617075806E+02  0.55915760058E+02  0.10149053718E+03  0.41800000000E+01 0.  1.
        -11    1    1    2    0    0 -0.25987335110E-01  0.24472862494E+02 -0.32277912246E+02  0.40506608016E+02  0.00000000000E+00 0.  1.
         11    1    1    2    0    0  0.10294021597E+03  0.18626539712E+02  0.14362654666E+02  0.10559319057E+03  0.00000000000E+00 0. -1.
</event>
<event>
 7    1  0.2394257E-009  0.1080952E+03  0.7561462E-02  0.1264139E+00
          1   -1    0    0  501    0  0.00000000000E+00  0.00000000000E+00  0.70534003564E+03  0.70534003564E+03  0.00000000000E+00 0. -1.
         -1   -1    0    0    0  501 -0.00000000000E+00 -0.00000000000E+00 -0.26575989506E+02  0.26575989506E+02  0.00000000000E+00 0.  1.
         25    2    1    2    0    0 -0.43037156776E+02  0.11354618263E+02  0.56367688576E+03  0.57910360510E+03  0.12509288423E+03 0.  0.
          5    1    3    3  502    0  0.42172468223E+02  0.51435121913E+01  0.26511370806E+03  0.26852881297E+03  0.41800000000E+01 0.  1.
         -5    1    3    3    0  502 -0.85209624999E+02  0.62111060715E+01  0.29856317770E+03  0.31057479213E+03  0.41800000000E+01 0.  1.
        -11    1    1    2    0    0  0.38931669801E+01 -0.39537197567E+02  0.16422664518E+02  0.42988959634E+02  0.00000000000E+00 0.  1.
         11    1    1    2    0    0  0.39143989796E+02  0.28182579304E+02  0.98664495861E+02  0.10982346041E+03  0.00000000000E+00 0. -1.
</event>
<event>
 7    1  0.2394257E-009  0.1651559E+03  0.7561462E-02  0.1182996E+00
         -2   -1    0    0    0  501 -0.00000000000E+00  0.00000000000E+00  0.54895734176E+02  0.54895734176E+02  0.00000000000E+00 0.  1.
          2   -1    0    0  501    0  0.00000000000E+00 -0.00000000000E+00 -0.77712240795E+03  0.77712240795E+03  0.00000000000E+00 0. -1.
         25    2    1    2    0    0  0.94191555955E+02 -0.86630557320E+02 -0.61635645935E+03  0.64181004285E+03  0.12509174013E+03 0.  0.
          5    1    3    3  502    0  0.75660087164E+02  0.99954107964E+01 -0.33842121996E+03  0.34694488257E+03  0.41800000000E+01 0.  1.
         -5    1    3    3    0  502  0.18531468792E+02 -0.96625968117E+02 -0.27793523939E+03  0.29486516028E+03  0.41800000000E+01 0.  1.
        -11    1    1    2    0    0 -0.16811244392E+02  0.75354043276E+02 -0.35373081529E+02  0.84924111257E+02  0.00000000000E+00 0.  1.
         11    1    1    2    0    0 -0.77380311564E+02  0.11276514045E+02 -0.70497132899E+02  0.10528398802E+03  0.00000000000E+00 0. -1.
</event>
<event>
 7    1  0.2394257E-009  0.1020885E+03  0.7561462E-02  0.1275964E+00
         -1   -1    0    0    0  501 -0.00000000000E+00  0.00000000000E+00  0.36794794079E+02  0.36794794079E+02  0.00000000000E+00 0. -1.
          1   -1    0    0  501    0  0.00000000000E+00 -0.00000000000E+00 -0.36931482883E+03  0.36931482883E+03  0.00000000000E+00 0.  1.
         25    2    1    2    0    0  0.23116614547E+02 -0.62555229234E+01 -0.16747037997E+03  0.21040945979E+03  0.12510916500E+03 0.  0.
          5    1    3    3  502    0 -0.23003933388E+02 -0.36874227618E+02 -0.14339947702E+03  0.14989920621E+03  0.41800000000E+01 0.  1.
         -5    1    3    3    0  502  0.46120547935E+02  0.30618704694E+02 -0.24070902952E+02  0.60510253577E+02  0.41800000000E+01 0.  1.
        -11    1    1    2    0    0  0.20976233858E+02 -0.37444191111E+02 -0.62298480236E+02  0.75651638941E+02  0.00000000000E+00 0.  1.
         11    1    1    2    0    0 -0.44092848405E+02  0.43699714035E+02 -0.10275117454E+03  0.12004852417E+03  0.00000000000E+00 0. -1.
</event>
<event>
 7    1  0.2394257E-009  0.1131237E+03  0.7561462E-02  0.1254892E+00
         -1   -1    0    0    0  501 -0.00000000000E+00  0.00000000000E+00  0.16374732619E+03  0.16374732619E+03  0.00000000000E+00 0.  1.
          1   -1    0    0  501    0  0.00000000000E+00 -0.00000000000E+00 -0.18714411700E+03  0.18714411700E+03  0.00000000000E+00 0. -1.
         25    2    1    2    0    0 -0.43312943753E+01 -0.46706878340E+02  0.11684266269E+03  0.17747894786E+03  0.12508507710E+03 0.  0.
          5    1    3    3  502    0  0.23042024504E+01 -0.85062142975E+02  0.10761655868E+03  0.13725769056E+03  0.41800000000E+01 0.  1.
         -5    1    3    3    0  502 -0.66354968258E+01  0.38355264635E+02  0.92261040169E+01  0.40221257299E+02  0.41800000000E+01 0.  1.
        -11    1    1    2    0    0  0.41178752914E+02 -0.15241811448E+01 -0.52945810309E+02  0.67091516968E+02  0.00000000000E+00 0.  1.
         11    1    1    2    0    0 -0.36847458539E+02  0.48231059484E+02 -0.87293643186E+02  0.10632097836E+03  0.00000000000E+00 0. -1.
</event>
<event>
 7    1  0.2394257E-009  0.1182244E+03  0.7561462E-02  0.1246055E+00
         -2   -1    0    0    0  501 -0.00000000000E+00  0.00000000000E+00  0.15400136884E+02  0.15400136884E+02  0.00000000000E+00 0.  1.
          2   -1    0    0  501    0  0.00000000000E+00 -0.00000000000E+00 -0.15319662596E+04  0.15319662596E+04  0.00000000000E+00 0. -1.
         25    2    1    2    0    0 -0.18804463865E+02 -0.91927896476E+02 -0.11018556693E+04  0.11128961945E+04  0.12509067825E+03 0.  0.
          5    1    3    3  502    0 -0.96341485322E+01 -0.11437658689E+03 -0.62900278635E+03  0.63940347050E+03  0.41800000000E+01 0. -1.
         -5    1    3    3    0  502 -0.91703153325E+01  0.22448690415E+02 -0.47285288291E+03  0.47349272398E+03  0.41800000000E+01 0. -1.
        -11    1    1    2    0    0 -0.58425868347E+01  0.24664469426E+02 -0.17379574220E+02  0.30733068071E+02  0.00000000000E+00 0.  1.
         11    1    1    2    0    0  0.24647050699E+02  0.67263427050E+02 -0.39733087926E+03  0.40373713396E+03  0.00000000000E+00 0. -1.
</event>
<event>
 7    1  0.2394257E-009  0.1926246E+03  0.7561462E-02  0.1156115E+00
         -1   -1    0    0    0  501 -0.00000000000E+00  0.00000000000E+00  0.18464346243E+02  0.18464346243E+02  0.00000000000E+00 0.  1.
          1   -1    0    0  501    0  0.00000000000E+00 -0.00000000000E+00 -0.26277316575E+04  0.26277316575E+04  0.00000000000E+00 0. -1.
         25    2    1    2    0    0 -0.66068647967E+02 -0.14704268535E+03 -0.19815256136E+04  0.19920035736E+04  0.12509141449E+03 0.  0.
          5    1    3    3  502    0  0.30519864303E+02 -0.66572844802E+01 -0.21924128011E+03  0.22149490481E+03  0.41800000000E+01 0. -1.
         -5    1    3    3    0  502 -0.96588512270E+02 -0.14038540087E+03 -0.17622843335E+04  0.17705086687E+04  0.41800000000E+01 0. -1.
        -11    1    1    2    0    0  0.87417908626E+02  0.10978615340E+03 -0.45226437537E+03  0.47353770225E+03  0.00000000000E+00 0.  1.
         11    1    1    2    0    0 -0.21349260659E+02  0.37256531945E+02 -0.17547732230E+03  0.18065472799E+03  0.00000000000E+00 0. -1.
</event>
<event>
 7    1  0.2394257E-009  0.1759321E+03  0.7561462E-02  0.1171799E+00
         -2   -1    0    0    0  501 -0.00000000000E+00  0.00000000000E+00  0.15422902025E+03  0.15422902025E+03  0.00000000000E+00 0.  1.
          2   -1    0    0  501    0  0.00000000000E+00 -0.00000000000E+00 -0.23692734645E+03  0.23692734645E+03  0.00000000000E+00 0. -1.
         25    2    1    2    0    0 -0.10454733860E+03  0.11360736587E+03 -0.79931545318E+02  0.21418381235E+03  0.12509545935E+03 0.  0.
          5    1    3    3  502    0  0.18652500022E+02  0.35699201945E+02  0.11460756975E+02  0.42085272091E+02  0.41800000000E+01 0. -1.
         -5    1    3    3    0  502 -0.12319983862E+03  0.77908163926E+02 -0.91392302294E+02  0.17209854026E+03  0.41800000000E+01 0. -1.
        -11    1    1    2    0    0  0.13982605272E+02 -0.57118805365E+02  0.29055938349E+02  0.65592063009E+02  0.00000000000E+00 0.  1.
         11    1    1    2    0    0  0.90564733325E+02 -0.56488560505E+02 -0.31822719227E+02  0.11138049133E+03  0.00000000000E+00 0. -1.
</event>
<event>
 7    1  0.2394257E-009  0.1131002E+03  0.7561462E-02  0.1254934E+00
         -2   -1    0    0    0  501 -0.00000000000E+00  0.00000000000E+00  0.90778537958E+01  0.90778537958E+01  0.00000000000E+00 0.  1.
          2   -1    0    0  501    0  0.00000000000E+00 -0.00000000000E+00 -0.21671192133E+04  0.21671192133E+04  0.00000000000E+00 0. -1.
         25    2    1    2    0    0  0.10062921206E+02 -0.37612893848E+02 -0.18023867352E+04  0.18071419712E+04  0.12509264051E+03 0.  0.
          5    1    3    3  502    0 -0.55808702469E+02 -0.18491375389E+02 -0.63310494056E+03  0.63584265381E+03  0.41800000000E+01 0. -1.
         -5    1    3    3    0  502  0.65871623675E+02 -0.19121518459E+02 -0.11692817947E+04  0.11712993174E+04  0.41800000000E+01 0. -1.
        -11    1    1    2    0    0  0.17640463390E+02 -0.24697361425E+02 -0.11127660511E+03  0.11534135622E+03  0.00000000000E+00 0. -1.
         11    1    1    2    0    0 -0.27703384596E+02  0.62310255274E+02 -0.24437801917E+03  0.25371373965E+03  0.00000000000E+00 0.  1.
</event>
<event>
 7    1  0.2394257E-009  0.2712965E+03  0.7561462E-02  0.1100540E+00
          1   -1    0    0  501    0  0.00000000000E+00  0.00000000000E+00  0.50869648526E+03  0.50869648526E+03  0.00000000000E+00 0. -1.
         -1   -1    0    0    0  501 -0.00000000000E+00 -0.00000000000E+00 -0.27463145367E+03  0.27463145367E+03  0.00000000000E+00 0.  1.
         25    2    1    2    0    0  0.17843775514E+02  0.25464475641E+03  0.38008854370E+03  0.47463449403E+03  0.12509296372E+03 0.  0.
          5    1    3    3  502    0 -0.44100721413E+02  0.79203562778E+02  0.17870675040E+03  0.20042867316E+03  0.41800000000E+01 0. -1.
         -5    1    3    3    0  502  0.61944496927E+02  0.17544119364E+03  0.20138179331E+03  0.27420582087E+03  0.41800000000E+01 0. -1.
        -11    1    1    2    0    0  0.24926956707E+02 -0.15934305029E+03 -0.12004242254E+03  0.20105159550E+03  0.00000000000E+00 0.  1.
         11    1    1    2    0    0 -0.42770732221E+02 -0.95301706125E+02 -0.25981089574E+02  0.10764184939E+03  0.00000000000E+00 0. -1.
</event>
<event>
 7    1  0.2394257E-009  0.1504445E+03  0.7561462E-02  0.1199928E+00
         -1   -1    0    0    0  501 -0.00000000000E+00  0.00000000000E+00  0.82481234511E+03  0.82481234511E+03  0.00000000000E+00 0.  1.
          1   -1    0    0  501    0  0.00000000000E+00 -0.00000000000E+00 -0.38711305079E+02  0.38711305079E+02  0.00000000000E+00 0. -1.
         25    2    1    2    0    0  0.13480447181E+03  0.38833389928E+02  0.35551461272E+03  0.40214025501E+03  0.12508344036E+03 0.  0.
          5    1    3    3  502    0  0.98818292051E+02 -0.10415684995E+02  0.31099430948E+03  0.32650953166E+03  0.41800000000E+01 0.  1.
         -5    1    3    3    0  502  0.35986179757E+02  0.49249074923E+02  0.44520303242E+02  0.75630723354E+02  0.41800000000E+01 0.  1.
        -11    1    1    2    0    0 -0.30866339772E+02 -0.81520239767E+01  0.22256541518E+02  0.38917092212E+02  0.00000000000E+00 0. -1.
         11    1    1    2    0    0 -0.10393813203E+03 -0.30681365952E+02  0.40832988579E+03  0.42246630296E+03  0.00000000000E+00 0.  1.
</event>
<event>
 7    1  0.2394257E-009  0.1068123E+03  0.7561462E-02  0.1266590E+00
          3   -1    0    0  501    0  0.00000000000E+00  0.00000000000E+00  0.30727028249E+03  0.30727028249E+03  0.00000000000E+00 0. -1.
         -3   -1    0    0    0  501 -0.00000000000E+00 -0.00000000000E+00 -0.15896716916E+03  0.15896716916E+03  0.00000000000E+00 0.  1.
         25    2    1    2    0    0  0.51545194595E+02  0.78682369715E+02 -0.10019828456E+03  0.18583865558E+03  0.12509391387E+03 0.  0.
          5    1    3    3  502    0  0.68158102087E+02  0.75229327324E+02 -0.19733525215E+02  0.10349813036E+03  0.41800000000E+01 0.  1.
         -5    1    3    3    0  502 -0.16612907492E+02  0.34530423914E+01 -0.80464759349E+02  0.82340525225E+02  0.41800000000E+01 0.  1.
        -11    1    1    2    0    0 -0.27207536309E+02 -0.50087205966E+02  0.42752242389E+02  0.71251192711E+02  0.00000000000E+00 0.  1.
         11    1    1    2    0    0 -0.24337658286E+02 -0.28595163749E+02  0.20574915551E+03  0.20914760336E+03  0.00000000000E+00 0. -1.
</event>
<event>
 7    1  0.2394257E-009  0.2055660E+03  0.7561462E-02  0.1145126E+00
         -2   -1    0    0    0  501 -0.00000000000E+00  0.00000000000E+00  0.74479309740E+02  0.74479309740E+02  0.00000000000E+00 0.  1.
          2   -1    0    0  501    0  0.00000000000E+00 -0.00000000000E+00 -0.76328041946E+03  0.76328041946E+03  0.00000000000E+00 0. -1.
         25    2    1    2    0    0  0.37959508389E+02  0.19050147038E+03 -0.50521407102E+03  0.55553648978E+03  0.12509116442E+03 0.  0.
          5    1    3    3  502    0 -0.31188544139E+01  0.60526626005E+02 -0.45167392342E+02  0.75701819261E+02  0.41800000000E+01 0.  1.
         -5    1    3    3    0  502  0.41078362802E+02  0.12997484438E+03 -0.46004667868E+03  0.47983467051E+03  0.41800000000E+01 0.  1.
        -11    1    1    2    0    0  0.29434514917E+02 -0.70026162360E+02 -0.57596761047E+02  0.95328070191E+02  0.00000000000E+00 0.  1.
         11    1    1    2    0    0 -0.67394023305E+02 -0.12047530802E+03 -0.12599027765E+03  0.18689516923E+03  0.00000000000E+00 0. -1.
</event>
<event>
 7    1  0.2394257E-009  0.8454383E+02  0.7561462E-02  0.1316630E+00
          2   -1    0    0  501    0  0.00000000000E+00  0.00000000000E+00  0.24365893779E+03  0.24365893779E+03  0.00000000000E+00 0. -1.
         -2   -1    0    0    0  501 -0.00000000000E+00 -0.00000000000E+00 -0.61312893144E+02  0.61312893144E+02  0.00000000000E+00 0.  1.
         25    2    1    2    0    0 -0.32281673920E+02 -0.27375176099E+01  0.35391368557E+02  0.13397685587E+03  0.12509056106E+03 0.  0.
          5    1    3    3  502    0 -0.12332230519E+02 -0.40661913379E+02 -0.32449113020E+02  0.53627347921E+02  0.41800000000E+01 0.  1.
         -5    1    3    3    0  502 -0.19949443401E+02  0.37924395769E+02  0.67840481577E+02  0.80349507945E+02  0.41800000000E+01 0.  1.
        -11    1    1    2    0    0 -0.22759900902E+02  0.14588459886E+02  0.25674286149E+02  0.37282773772E+02  0.00000000000E+00 0. -1.
         11    1    1    2    0    0  0.55041574821E+02 -0.11850942276E+02  0.12128038994E+03  0.13371220130E+03  0.00000000000E+00 0.  1.
</event>
<event>
 7    1  0.2394257E-009  0.1040280E+03  0.7561462E-02  0.1272047E+00
         -1   -1    0    0    0  501 -0.00000000000E+00  0.00000000000E+00  0.51243539136E+02  0.51243539136E+02  0.00000000000E+00 0.  1.
          1   -1    0    0  501    0  0.00000000000E+00 -0.00000000000E+00 -0.31024127065E+03  0.31024127065E+03  0.00000000000E+00 0. -1.
         25    2    1    2    0    0 -0.52594202028E+02  0.38795795885E+02 -0.13616449307E+03  0.19610356229E+03  0.12507827191E+03 0.  0.
          5    1    3    3  502    0 -0.53872619061E+02 -0.18654910274E+02 -0.10859041915E+02  0.58186389759E+02  0.41800000000E+01 0. -1.
         -5    1    3    3    0  502  0.12784170334E+01  0.57450706159E+02 -0.12530545116E+03  0.13791717253E+03  0.41800000000E+01 0. -1.
        -11    1    1    2    0    0  0.18984587537E+01 -0.42408329062E+02 -0.13061896039E+02  0.44414903440E+02  0.00000000000E+00 0.  1.
         11    1    1    2    0    0  0.50695743274E+02  0.36125331770E+01 -0.10977134240E+03  0.12096634406E+03  0.00000000000E+00 0. -1.
</event>
<event>
 7    1  0.2394257E-009  0.1099614E+03  0.7561462E-02  0.1260641E+00
         -2   -1    0    0    0  501 -0.00000000000E+00  0.00000000000E+00  0.63173040909E+02  0.63173040909E+02  0.00000000000E+00 0. -1.
          2   -1    0    0  501    0  0.00000000000E+00 -0.00000000000E+00 -0.22871786521E+03  0.22871786521E+03  0.00000000000E+00 0.  1.
         25    2    1    2    0    0 -0.38026979527E+02  0.40194000131E+02 -0.10839953377E+03  0.17452713845E+03  0.12509058444E+03 0.  0.
          5    1    3    3  502    0 -0.68825096123E+02 -0.33626781315E+01 -0.21194036466E+02  0.72213994781E+02  0.41800000000E+01 0. -1.
         -5    1    3    3    0  502  0.30798116596E+02  0.43556678263E+02 -0.87205497304E+02  0.10231314367E+03  0.41800000000E+01 0. -1.
        -11    1    1    2    0    0  0.11216181486E+02 -0.61885296004E+02 -0.53709929627E+02  0.82706403193E+02  0.00000000000E+00 0. -1.
         11    1    1    2    0    0  0.26810798041E+02  0.21691295872E+02 -0.34353609082E+01  0.34657364481E+02  0.00000000000E+00 0.  1.
</event>
<event>
 7    1  0.2394257E-009  0.1215693E+03  0.7561462E-02  0.1240530E+00
          2   -1    0    0  501    0  0.00000000000E+00  0.00000000000E+00  0.22328058121E+03  0.22328058121E+03  0.00000000000E+00 0. -1.
         -2   -1    0    0    0  501 -0.00000000000E+00 -0.00000000000E+00 -0.10524719704E+03  0.10524719704E+03  0.00000000000E+00 0.  1.
         25    2    1    2    0    0 -0.60171118431E+02 -0.84875108414E+02  0.34642853756E+02  0.16634937926E+03  0.12509053178E+03 0.  0.
          5    1    3    3  502    0 -0.17712083824E+02 -0.28735675064E+02 -0.47290630077E+02  0.58252322082E+02  0.41800000000E+01 0. -1.
         -5    1    3    3    0  502 -0.42459034606E+02 -0.56139433350E+02  0.81933483833E+02  0.10809705717E+03  0.41800000000E+01 0. -1.
        -11    1    1    2    0    0  0.28169237110E+01  0.81085265002E+02  0.42107247608E+02  0.91409931412E+02  0.00000000000E+00 0.  1.
         11    1    1    2    0    0  0.57354194720E+02  0.37898434119E+01  0.41283282810E+02  0.70768467587E+02  0.00000000000E+00 0. -1.
</event>
<event>
 7    1  0.2394257E-009  0.1545971E+03  0.7561462E-02  0.1194935E+00
         -1   -1    0    0    0  501 -0.00000000000E+00  0.00000000000E+00  0.14028455473E+03  0.14028455473E+03  0.00000000000E+00 0.  1.
          1   -1    0    0  501    0  0.00000000000E+00 -0.00000000000E+00 -0.27538509030E+03  0.27538509030E+03  0.00000000000E+00 0. -1.
         25    2    1    2    0    0  0.10971931887E+03  0.59460760595E+01  0.57090254196E+02  0.17601397561E+03  0.12509171728E+03 0.  0.
          5    1    3    3  502    0  0.95923844924E+02 -0.50290204340E+02  0.39342575277E+02  0.11530741219E+03  0.41800000000E+01 0. -1.
         -5    1    3    3    0  502  0.13795473941E+02  0.56236280400E+02  0.17747678919E+02  0.60706563413E+02  0.41800000000E+01 0. -1.
        -11    1    1    2    0    0  0.40071985964E+01  0.24656344234E+02 -0.27028560843E+02  0.36804022237E+02  0.00000000000E+00 0. -1.
         11    1    1    2    0    0 -0.11372651746E+03 -0.30602420293E+02 -0.16516222893E+03  0.20285164719E+03  0.00000000000E+00 0.  1.
</event>
<event>
 7    1  0.2394257E-009  0.3036250E+03  0.7561462E-02  0.1083442E+00
          2   -1    0    0  501    0  0.00000000000E+00  0.00000000000E+00  0.89986536490E+03  0.89986536490E+03  0.00000000000E+00 0. -1.
         -2   -1    0    0    0  501 -0.00000000000E+00 -0.00000000000E+00 -0.11418477486E+03  0.11418477486E+03  0.00000000000E+00 0.  1.
         25    2    1    2    0    0 -0.28373583731E+03 -0.99660623808E+02  0.38020737584E+03  0.50064233918E+03  0.12508732080E+03 0.  0.
          5    1    3    3  502    0 -0.45550560023E+02  0.55562762107E+01  0.13613872399E+03  0.14372525976E+03  0.41800000000E+01 0. -1.
         -5    1    3    3    0  502 -0.23818527729E+03 -0.10521690002E+03  0.24406865185E+03  0.35691707942E+03  0.41800000000E+01 0. -1.
        -11    1    1    2    0    0  0.98668188832E+02  0.32952100099E+02  0.72964492754E+02  0.12706325036E+03  0.00000000000E+00 0. -1.
         11    1    1    2    0    0  0.18506764848E+03  0.66708523709E+02  0.33250872145E+03  0.38634455022E+03  0.00000000000E+00 0.  1.
</event>
<event>
 7    1  0.2394257E-009  0.1115383E+03  0.7561462E-02  0.1257747E+00
         -3   -1    0    0    0  501 -0.00000000000E+00  0.00000000000E+00  0.42608326084E+03  0.42608326084E+03  0.00000000000E+00 0. -1.
          3   -1    0    0  501    0  0.00000000000E+00 -0.00000000000E+00 -0.57935095936E+02  0.57935095936E+02  0.00000000000E+00 0.  1.
         25    2    1    2    0    0  0.62598171626E+02  0.75611824548E+02  0.28484143338E+03  0.32621786321E+03  0.12509105886E+03 0.  0.
          5    1    3    3  502    0  0.31181330752E+02  0.15236365439E+02  0.17169599792E+01  0.34997750940E+02  0.41800000000E+01 0. -1.
         -5    1    3    3    0  502  0.31416840874E+02  0.60375459109E+02  0.28312447340E+03  0.29122011227E+03  0.41800000000E+01 0. -1.
        -11    1    1    2    0    0 -0.77843162463E+02 -0.63753720366E+02  0.92258720911E+02  0.13651287993E+03  0.00000000000E+00 0. -1.
         11    1    1    2    0    0  0.15244990838E+02 -0.11858104182E+02 -0.89519893837E+01  0.21287613637E+02  0.00000000000E+00 0.  1.
</event>
<event>
 7    1  0.2394257E-009  0.1826067E+03  0.7561462E-02  0.1165304E+00
         -1   -1    0    0    0  501 -0.00000000000E+00  0.00000000000E+00  0.77452942973E+02  0.77452942973E+02  0.00000000000E+00 0.  1.
          1   -1    0    0  501    0  0.00000000000E+00 -0.00000000000E+00 -0.47939372880E+03  0.47939372880E+03  0.00000000000E+00 0. -1.
         25    2    1    2    0    0 -0.59261443483E+02 -0.14717586700E+03 -0.20731854968E+03  0.28948494165E+03  0.12509155004E+03 0.  0.
          5    1    3    3  502    0 -0.81325914407E+02 -0.15508941905E+03 -0.16351028030E+03  0.23962411485E+03  0.41800000000E+01 0. -1.
         -5    1    3    3    0  502  0.22064470924E+02  0.79135520461E+01 -0.43808269378E+02  0.49860826799E+02  0.41800000000E+01 0. -1.
        -11    1    1    2    0    0  0.18072253176E+02  0.10762101470E+03 -0.17638501107E+03  0.20741398524E+03  0.00000000000E+00 0. -1.
         11    1    1    2    0    0  0.41189190307E+02  0.39554852296E+02 -0.18237225073E+02  0.59947744884E+02  0.00000000000E+00 0.  1.
</event>
<event>
 7    1  0.2394257E-009  0.1557731E+03  0.7561462E-02  0.1193553E+00
          2   -1    0    0  501    0  0.00000000000E+00  0.00000000000E+00  0.12935035664E+04  0.12935035664E+04  0.00000000000E+00 0. -1.
         -2   -1    0    0    0  501 -0.00000000000E+00 -0.00000000000E+00 -0.24967845095E+02  0.24967845095E+02  0.00000000000E+00 0.  1.
         25    2    1    2    0    0  0.10169842344E+03 -0.90720077912E+02  0.83263289688E+03  0.85293554508E+03  0.12509516868E+03 0.  0.
          5    1    3    3  502    0  0.21620944470E+02  0.25733662416E+02  0.76003567053E+02  0.83208780942E+02  0.41800000000E+01 0. -1.
         -5    1    3    3    0  502  0.80077478971E+02 -0.11645374033E+03  0.75662932983E+03  0.76972676414E+03  0.41800000000E+01 0. -1.
        -11    1    1    2    0    0 -0.29675844644E+02  0.25831383309E+02  0.33664188481E+02  0.51780244352E+02  0.00000000000E+00 0.  1.
         11    1    1    2    0    0 -0.72022578797E+02  0.64888694603E+02  0.40223863598E+03  0.41375562210E+03  0.00000000000E+00 0. -1.
</event>
<event>
 7    1  0.2460234E-009  0.2190677E+03  0.7561462E-02  0.1134580E+00
         -2   -1    0    0    0  501 -0.00000000000E+00  0.00000000000E+00  0.16894767668E+03  0.16894767668E+03  0.00000000000E+00 0.  1.
          2   -1    0    0  501    0  0.00000000000E+00 -0.00000000000E+00 -0.48192942598E+03  0.48192942598E+03  0.00000000000E+00 0. -1.
         25    2    1    2    0    0 -0.69532308552E+02 -0.19529597249E+03  0.25596085139E+02  0.24346783562E+03  0.12508464576E+03 0.  0.
          5    1    3    3  502    0 -0.95785451116E+02 -0.14993819657E+03  0.50920216052E+02  0.18511255019E+03  0.41800000000E+01 0.  1.
         -5    1    3    3    0  502  0.26253142564E+02 -0.45357775921E+02 -0.25324130912E+02  0.58355285428E+02  0.41800000000E+01 0.  1.
        -11    1    1    2    0    0  0.53414927016E+02  0.13516595823E+03 -0.15017039500E+03  0.20898358363E+03  0.00000000000E+00 0.  1.
         11    1    1    2    0    0  0.16117381536E+02  0.60130014254E+02 -0.18840743943E+03  0.19842568341E+03  0.00000000000E+00 0. -1.
</event>
<event>
 7    1  0.2394257E-009  0.9448530E+02  0.7561462E-02  0.1292340E+00
         -2   -1    0    0    0  501 -0.00000000000E+00  0.00000000000E+00  0.44196136317E+03  0.44196136317E+03  0.00000000000E+00 0.  1.
          2   -1    0    0  501    0  0.00000000000E+00 -0.00000000000E+00 -0.39160354676E+02  0.39160354676E+02  0.00000000000E+00 0. -1.
         25    2    1    2    0    0  0.17196826733E+02  0.37331546781E+02  0.34147731074E+03  0.36598155568E+03  0.12508545126E+03 0.  0.
          5    1    3    3  502    0  0.50719933842E+02  0.58882260675E+02  0.13653801289E+03  0.15716148916E+03  0.41800000000E+01 0. -1.
         -5    1    3    3    0  502 -0.33523107110E+02 -0.21550713894E+02  0.20493929785E+03  0.20882006652E+03  0.41800000000E+01 0. -1.
        -11    1    1    2    0    0  0.18812287695E+02  0.53177222284E+00  0.59988088229E+02  0.62870944636E+02  0.00000000000E+00 0.  1.
         11    1    1    2    0    0 -0.36009114428E+02 -0.37863319004E+02  0.13356095225E+01  0.52269217525E+02  0.00000000000E+00 0. -1.
</event>
<event>
 7    1  0.2394257E-009  0.9645918E+02  0.7561462E-02  0.1287923E+00
         -1   -1    0    0    0  501 -0.00000000000E+00  0.00000000000E+00  0.15461206235E+02  0.15461206235E+02  0.00000000000E+00 0.  1.
          1   -1    0    0  501    0  0.00000000000E+00 -0.00000000000E+00 -0.76404632705E+03  0.76404632705E+03  0.00000000000E+00 0. -1.
         25    2    1    2    0    0  0.15172846560E+01  0.77184528987E+01 -0.49444255369E+03  0.51008222833E+03  0.12509422085E+03 0.  0.
          5    1    3    3  502    0 -0.53478354445E+02  0.20324980309E+02 -0.14235258081E+03  0.15347562960E+03  0.41800000000E+01 0.  1.
         -5    1    3    3    0  502  0.54995639101E+02 -0.12606527410E+02 -0.35208997288E+03  0.35660659873E+03  0.41800000000E+01 0.  1.
        -11    1    1    2    0    0 -0.36641966470E+02 -0.20029547615E+02 -0.69596355776E+02  0.81163225797E+02  0.00000000000E+00 0.  1.
         11    1    1    2    0    0  0.35124681814E+02  0.12311094717E+02 -0.18454621135E+03  0.18826207916E+03  0.00000000000E+00 0. -1.
</event>
<event>
 7    1  0.2394257E-009  0.1071577E+03  0.7561462E-02  0.1265926E+00
          1   -1    0    0  501    0  0.00000000000E+00  0.00000000000E+00  0.21578234759E+03  0.21578234759E+03  0.00000000000E+00 0. -1.
         -1   -1    0    0    0  501 -0.00000000000E+00 -0.00000000000E+00 -0.82614106466E+02  0.82614106466E+02  0.00000000000E+00 0.  1.
         25    2    1    2    0    0 -0.25769581810E+02  0.86255845145E+01  0.15496055085E+03  0.20099265635E+03  0.12508718373E+03 0.  0.
          5    1    3    3  502    0  0.43686205857E+01  0.63538486805E+02  0.92931016622E+02  0.11273806102E+03  0.41800000000E+01 0. -1.
         -5    1    3    3    0  502 -0.30138202395E+02 -0.54912902291E+02  0.62029534225E+02  0.88254595335E+02  0.41800000000E+01 0. -1.
        -11    1    1    2    0    0 -0.86475293927E-02 -0.43966901579E+02  0.77143903735E+01  0.44638552038E+02  0.00000000000E+00 0. -1.
         11    1    1    2    0    0  0.25778229339E+02  0.35341317065E+02 -0.29506700095E+02  0.52765245666E+02  0.00000000000E+00 0.  1.
</event>
<event>
 7    1  0.2394257E-009  0.2350284E+03  0.7561462E-02  0.1123150E+00
          1   -1    0    0  501    0  0.00000000000E+00  0.00000000000E+00  0.14416337088E+03  0.14416337088E+03  0.00000000000E+00 0. -1.
         -1   -1    0    0    0  501 -0.00000000000E+00 -0.00000000000E+00 -0.47980932306E+03  0.47980932306E+03  0.00000000000E+00 0.  1.
         25    2    1    2    0    0 -0.10098771168E+03 -0.20555801203E+03 -0.93930074846E+02  0.27735018667E+03  0.12509057864E+03 0.  0.
          5    1    3    3  502    0 -0.26586854192E+02 -0.13373167492E+02  0.25247748557E+02  0.39250778741E+02  0.41800000000E+01 0. -1.
         -5    1    3    3    0  502 -0.74400857491E+02 -0.19218484454E+03 -0.11917782340E+03  0.23809940793E+03  0.41800000000E+01 0. -1.
        -11    1    1    2    0    0  0.42789812510E+01  0.53505833092E+02 -0.12606037021E+02  0.55137065798E+02  0.00000000000E+00 0. -1.
         11    1    1    2    0    0  0.96708730432E+02  0.15205217894E+03 -0.22910984031E+03  0.29148544147E+03  0.00000000000E+00 0.  1.
</event>
<event>
 7    1  0.2394257E-009  0.7579305E+02  0.7561462E-02  0.1341433E+00
         -1   -1    0    0    0  501 -0.00000000000E+00  0.00000000000E+00  0.61001618622E+02  0.61001618622E+02  0.00000000000E+00 0.  1.
          1   -1    0    0  501    0  0.00000000000E+00 -0.00000000000E+00 -0.55273557809E+03  0.55273557809E+03  0.00000000000E+00 0. -1.
         25    2    1    2    0    0  0.50169717707E+02 -0.38985294067E+02 -0.48383012081E+03  0.50375999316E+03  0.12508273735E+03 0.  0.
          5    1    3    3  502    0  0.38195488905E+02 -0.44587073382E+02 -0.78112879853E+02  0.97805914363E+02  0.41800000000E+01 0.  1.
         -5    1    3    3    0  502  0.11974228802E+02  0.56017793145E+01 -0.40571724095E+03  0.40595407880E+03  0.41800000000E+01 0.  1.
        -11    1    1    2    0    0 -0.48387217838E+02  0.94848713124E+01 -0.42059885423E+02  0.64809872672E+02  0.00000000000E+00 0. -1.
         11    1    1    2    0    0 -0.17824998697E+01  0.29500422755E+02  0.34156046761E+02  0.45167330880E+02  0.00000000000E+00 0.  1.
</event>
<event>
 7    1  0.2394257E-009  0.1072432E+03  0.7561462E-02  0.1265762E+00
         -2   -1    0    0    0  501 -0.00000000000E+00  0.00000000000E+00  0.63701433430E+02  0.63701433430E+02  0.00000000000E+00 0. -1.
          2   -1    0    0  501    0  0.00000000000E+00 -0.00000000000E+00 -0.36195545598E+03  0.36195545598E+03  0.00000000000E+00 0.  1.
         25    2    1    2    0    0 -0.45545264273E+02  0.61521835085E+02 -0.26426849254E+03  0.30223256817E+03  0.12508949527E+03 0.  0.
          5    1    3    3  502    0  0.10654333773E+02  0.29913647617E+02 -0.22360724594E+03  0.22588938439E+03  0.41800000000E+01 0. -1.
         -5    1    3    3    0  502 -0.56199598046E+02  0.31608187468E+02 -0.40661246597E+02  0.76343183785E+02  0.41800000000E+01 0. -1.
        -11    1    1    2    0    0  0.62232471894E+02 -0.74232374548E+02 -0.33316842495E+02  0.10243699519E+03  0.00000000000E+00 0.  1.
         11    1    1    2    0    0 -0.16687207621E+02  0.12710539463E+02 -0.66868751484E+00  0.20987326048E+02  0.00000000000E+00 0. -1.
</event>
<event>
 7    1  0.2394257E-009  0.9439390E+02  0.7561462E-02  0.1292547E+00
         -3   -1    0    0    0  501 -0.00000000000E+00  0.00000000000E+00  0.18339205507E+03  0.18339205507E+03  0.00000000000E+00 0.  1.
          3   -1    0    0  501    0  0.00000000000E+00 -0.00000000000E+00 -0.77894425370E+02  0.77894425370E+02  0.00000000000E+00 0. -1.
         25    2    1    2    0    0 -0.29468460056E+02 -0.42014392005E+02  0.56741800133E+02  0.14663232590E+03  0.12509119811E+03 0.  0.
          5    1    3    3  502    0 -0.31488494388E+02  0.31977424606E+02  0.56780026716E+02  0.72494998429E+02  0.41800000000E+01 0.  1.
         -5    1    3    3    0  502  0.20200343321E+01 -0.73991816611E+02 -0.38226583105E-01  0.74137327476E+02  0.41800000000E+01 0.  1.
        -11    1    1    2    0    0  0.42460783386E+02  0.32644540610E+02  0.69942226298E+02  0.88093695444E+02  0.00000000000E+00 0.  1.
         11    1    1    2    0    0 -0.12992323330E+02  0.93698513948E+01 -0.21186396731E+02  0.26560459091E+02  0.00000000000E+00 0. -1.
</event>
<event>
 7    1  0.2394257E-009  0.1139218E+03  0.7561462E-02  0.1253475E+00
          2   -1    0    0  501    0  0.00000000000E+00  0.00000000000E+00  0.85611217094E+02  0.85611217094E+02  0.00000000000E+00 0. -1.
         -2   -1    0    0    0  501 -0.00000000000E+00 -0.00000000000E+00 -0.24071145978E+03  0.24071145978E+03  0.00000000000E+00 0.  1.
         25    2    1    2    0    0 -0.19224995819E+02 -0.90196115784E+02 -0.10424830269E+03  0.18713670555E+03  0.12508996037E+03 0.  0.
          5    1    3    3  502    0  0.19272673029E+02 -0.65399433140E+01 -0.91793027090E+02  0.94115030715E+02  0.41800000000E+01 0.  1.
         -5    1    3    3    0  502 -0.38497668848E+02 -0.83656172470E+02 -0.12455275600E+02  0.93021674836E+02  0.41800000000E+01 0.  1.
        -11    1    1    2    0    0 -0.17006982510E+02  0.72671544980E+02 -0.38585578782E+00  0.74636048855E+02  0.00000000000E+00 0. -1.
         11    1    1    2    0    0  0.36231978329E+02  0.17524570804E+02 -0.50466084212E+02  0.64549922472E+02  0.00000000000E+00 0.  1.
</event>
<event>
 7    1  0.2394257E-009  0.1046476E+03  0.7561462E-02  0.1270815E+00
          2   -1    0    0  501    0  0.00000000000E+00  0.00000000000E+00  0.32198549319E+03  0.32198549319E+03  0.00000000000E+00 0. -1.
         -2   -1    0    0    0  501 -0.00000000000E+00 -0.00000000000E+00 -0.46116327337E+02  0.46116327337E+02  0.00000000000E+00 0.  1.
         25    2    1    2    0    0  0.44793127928E+02  0.19935631344E+02  0.19645662060E+03  0.23800472859E+03  0.12508874188E+03 0.  0.
          5    1    3    3  502    0 -0.60276284916E+01  0.52755656091E+02  0.30640064632E+02  0.61447355643E+02  0.41800000000E+01 0.  1.
         -5    1    3    3    0  502  0.50820756420E+02 -0.32820024747E+02  0.16581655597E+03  0.17655737295E+03  0.41800000000E+01 0.  1.
        -11    1    1    2    0    0 -0.69030883216E+02 -0.13985599800E+02  0.78007618504E+02  0.10510018261E+03  0.00000000000E+00 0. -1.
         11    1    1    2    0    0  0.24237755288E+02 -0.59500315434E+01  0.14049267431E+01  0.24996909328E+02  0.00000000000E+00 0.  1.
</event>
<event>
 7    1  0.2394257E-009  0.1824461E+03  0.7561462E-02  0.1165456E+00
         -2   -1    0    0    0  501 -0.00000000000E+00  0.00000000000E+00  0.10387426877E+03  0.10387426877E+03  0.00000000000E+00 0.  1.
          2   -1    0    0  501    0  0.00000000000E+00 -0.00000000000E+00 -0.37293835783E+03  0.37293835783E+03  0.00000000000E+00 0. -1.
         25    2    1    2    0    0 -0.96146933278E+02 -0.12887273668E+03 -0.16915654675E+03  0.26479170750E+03  0.12509314935E+03 0.  0.
          5    1    3    3  502    0 -0.12336273114E+03 -0.83088760067E+02 -0.10972253584E+03  0.18487458656E+03  0.41800000000E+01 0.  1.
         -5    1    3    3    0  502  0.27215797857E+02 -0.45783976610E+02 -0.59434010913E+02  0.79917120947E+02  0.41800000000E+01 0.  1.
        -11    1    1    2    0    0  0.56872547340E+02  0.55585700703E+02 -0.10139397820E+03  0.12886037242E+03  0.00000000000E+00 0. -1.
         11    1    1    2    0    0  0.39274385939E+02  0.73287035974E+02  0.14864358894E+01  0.83160546682E+02  0.00000000000E+00 0.  1.
</event>
<event>
 7    1  0.2394257E-009  0.9373300E+02  0.7561462E-02  0.1294055E+00
          2   -1    0    0  501    0  0.00000000000E+00  0.00000000000E+00  0.25895496489E+03  0.25895496489E+03  0.00000000000E+00 0. -1.
         -2   -1    0    0    0  501 -0.00000000000E+00 -0.00000000000E+00 -0.52913975776E+02  0.52913975776E+02  0.00000000000E+00 0.  1.
         25    2    1    2    0    0  0.72705492023E+01 -0.21023156086E+02  0.73322670147E+02  0.14668638954E+03  0.12508336796E+03 0.  0.
          5    1    3    3  502    0  0.30093598788E+02 -0.64885770322E+02  0.21192750349E+02  0.74715413039E+02  0.41800000000E+01 0.  1.
         -5    1    3    3    0  502 -0.22823049586E+02  0.43862614235E+02  0.52129919798E+02  0.71970976498E+02  0.41800000000E+01 0.  1.
        -11    1    1    2    0    0  0.21590417152E+02  0.29093614606E+02  0.82496014176E+01  0.37156970372E+02  0.00000000000E+00 0.  1.
         11    1    1    2    0    0 -0.28860966355E+02 -0.80704585203E+01  0.12446871755E+03  0.12802558076E+03  0.00000000000E+00 0. -1.
</event>
<event>
 7    1  0.2394257E-009  0.1060151E+03  0.7561462E-02  0.1268133E+00
         -2   -1    0    0    0  501 -0.00000000000E+00  0.00000000000E+00  0.22079724866E+02  0.22079724866E+02  0.00000000000E+00 0.  1.
          2   -1    0    0  501    0  0.00000000000E+00 -0.00000000000E+00 -0.94190337053E+03  0.94190337053E+03  0.00000000000E+00 0. -1.
         25    2    1    2    0    0 -0.82293312998E+02  0.35700976452E+02 -0.60076275948E+03  0.62017001100E+03  0.12509276671E+03 0.  0.
          5    1    3    3  502    0 -0.85304083907E+02  0.38293387299E+02 -0.60550942929E+03  0.61270083368E+03  0.41800000000E+01 0. -1.
         -5    1    3    3    0  502  0.30107709085E+01 -0.25924108474E+01  0.47466698099E+01  0.74691773141E+01  0.41800000000E+01 0. -1.
        -11    1    1    2    0    0  0.68198787247E+02 -0.55799172583E+02 -0.30017426946E+03  0.31284055729E+03  0.00000000000E+00 0. -1.
         11    1    1    2    0    0  0.14094525751E+02  0.20098196131E+02 -0.18886616732E+02  0.30972527108E+02  0.00000000000E+00 0.  1.
</event>
<event>
 7    1  0.2394257E-009  0.2195755E+03  0.7561462E-02  0.1134200E+00
         -2   -1    0    0    0  501 -0.00000000000E+00  0.00000000000E+00  0.65735955652E+02  0.65735955652E+02  0.00000000000E+00 0. -1.
          2   -1    0    0  501    0  0.00000000000E+00 -0.00000000000E+00 -0.81141908156E+03  0.81141908156E+03  0.00000000000E+00 0.  1.
         25    2    1    2    0    0 -0.15138428774E+03 -0.13611481533E+03 -0.40383146676E+03  0.46922444864E+03  0.12508910475E+03 0.  0.
          5    1    3    3  502    0 -0.16947188504E+03 -0.11766020088E+03 -0.31464539109E+03  0.37627627779E+03  0.41800000000E+01 0.  1.
         -5    1    3    3    0  502  0.18087597305E+02 -0.18454614443E+02 -0.89186075671E+02  0.92948170849E+02  0.41800000000E+01 0.  1.
        -11    1    1    2    0    0  0.43227733477E+02  0.19046924250E+02 -0.15651200812E+03  0.16348526219E+03  0.00000000000E+00 0.  1.
         11    1    1    2    0    0  0.10815655426E+03  0.11706789108E+03 -0.18533965102E+03  0.24444532638E+03  0.00000000000E+00 0. -1.
</event>
<event>
 7    1  0.2394257E-009  0.9780152E+02  0.7561462E-02  0.1284988E+00
          1   -1    0    0  501    0  0.00000000000E+00  0.00000000000E+00  0.45744267804E+03  0.45744267804E+03  0.00000000000E+00 0. -1.
         -1   -1    0    0    0  501 -0.00000000000E+00 -0.00000000000E+00 -0.31148595943E+02  0.31148595943E+02  0.00000000000E+00 0.  1.
         25    2    1    2    0    0  0.51109381970E+02 -0.12378000835E+02  0.22639511278E+03  0.26394614789E+03  0.12508972005E+03 0.  0.
          5    1    3    3  502    0 -0.13180898135E+02  0.24755935015E+02  0.30172728328E+01  0.28516113505E+02  0.41800000000E+01 0. -1.
         -5    1    3    3    0  502  0.64290280105E+02 -0.37133935850E+02  0.22337783995E+03  0.23543003438E+03  0.41800000000E+01 0. -1.
        -11    1    1    2    0    0 -0.52525261961E+02  0.39503900894E+02  0.90021631574E+02  0.11146010713E+03  0.00000000000E+00 0.  1.
         11    1    1    2    0    0  0.14158799912E+01 -0.27125900059E+02  0.10987733774E+03  0.11318501896E+03  0.00000000000E+00 0. -1.
</event>
<event>
 7    1  0.2394257E-009  0.9700563E+02  0.7561462E-02  0.1286722E+00
         -1   -1    0    0    0  501 -0.00000000000E+00  0.00000000000E+00  0.53277521634E+03  0.53277521634E+03  0.00000000000E+00 0.  1.
          1   -1    0    0  501    0  0.00000000000E+00 -0.00000000000E+00 -0.30388634898E+02  0.30388634898E+02  0.00000000000E+00 0. -1.
         25    2    1    2    0    0  0.13323429501E+02 -0.36025635569E+02  0.39991862149E+03  0.42078273859E+03  0.12509136299E+03 0.  0.
          5    1    3    3  502    0 -0.16552165514E+02 -0.63212329482E+02  0.10983908478E+03  0.12787442953E+03  0.41800000000E+01 0. -1.
         -5    1    3    3    0  502  0.29875595015E+02  0.27186693913E+02  0.29007953671E+03  0.29290830907E+03  0.41800000000E+01 0. -1.
        -11    1    1    2    0    0  0.31998824061E+02  0.36071731739E+01  0.87846378220E+01  0.33378230949E+02  0.00000000000E+00 0. -1.
         11    1    1    2    0    0 -0.45322253562E+02  0.32418462395E+02  0.93683322132E+02  0.10900288169E+03  0.00000000000E+00 0.  1.
</event>
<event>
 7    1  0.2394257E-009  0.1144056E+03  0.7561462E-02  0.1252622E+00
         -1   -1    0    0    0  501 -0.00000000000E+00  0.00000000000E+00  0.24332013352E+02  0.24332013352E+02  0.00000000000E+00 0.  1.
          1   -1    0    0  501    0  0.00000000000E+00 -0.00000000000E+00 -0.68923475826E+03  0.68923475826E+03  0.00000000000E+00 0. -1.
         25    2    1    2    0    0  0.51133261643E+02 -0.37862083342E+02 -0.45125636803E+03  0.47257663902E+03  0.12509285452E+03 0.  0.
          5    1    3    3  502    0 -0.26043949241E+02  0.22574285817E+02 -0.61120917649E+02  0.70293133708E+02  0.41800000000E+01 0.  1.
         -5    1    3    3    0  502  0.77177210884E+02 -0.60436369159E+02 -0.39013545038E+03  0.40228350531E+03  0.41800000000E+01 0.  1.
        -11    1    1    2    0    0 -0.69404325449E+02  0.34081982052E+02 -0.20735148823E+03  0.22129885124E+03  0.00000000000E+00 0. -1.
         11    1    1    2    0    0  0.18271063806E+02  0.37801012894E+01 -0.62948886546E+01  0.19691281359E+02  0.00000000000E+00 0.  1.
</event>
<event>
 7    1  0.2394257E-009  0.1328875E+03  0.7561462E-02  0.1223233E+00
          2   -1    0    0  501    0  0.00000000000E+00  0.00000000000E+00  0.19494237466E+03  0.19494237466E+03  0.00000000000E+00 0. -1.
         -2   -1    0    0    0  501 -0.00000000000E+00 -0.00000000000E+00 -0.12625074361E+03  0.12625074361E+03  0.00000000000E+00 0.  1.
         25    2    1    2    0    0 -0.68713341919E+02  0.88465796987E+02  0.21755090439E+02  0.16932036826E+03  0.12509349525E+03 0.  0.
          5    1    3    3  502    0  0.18987386658E+02  0.12986269728E+02 -0.33639845081E+02  0.40966762511E+02  0.41800000000E+01 0.  1.
         -5    1    3    3    0  502 -0.87700728577E+02  0.75479527259E+02  0.55394935520E+02  0.12835360575E+03  0.41800000000E+01 0.  1.
        -11    1    1    2    0    0  0.64424445912E+02 -0.35669151460E+02 -0.97577276932E+01  0.74283314726E+02  0.00000000000E+00 0.  1.
         11    1    1    2    0    0  0.42888960065E+01 -0.52796645528E+02  0.56694268312E+02  0.77589435282E+02  0.00000000000E+00 0. -1.
</event>
<event>
 7    1  0.2394257E-009  0.1348454E+03  0.7561462E-02  0.1220438E+00
         -1   -1    0    0    0  501 -0.00000000000E+00  0.00000000000E+00  0.26988915705E+02  0.26988915705E+02  0.00000000000E+00 0.  1.
          1   -1    0    0  501    0  0.00000000000E+00 -0.00000000000E+00 -0.87767314275E+03  0.87767314275E+03  0.00000000000E+00 0. -1.
         25    2    1    2    0    0  0.70760908479E+02  0.87288686493E+02 -0.45931596362E+03  0.48912653804E+03  0.12508874775E+03 0.  0.
          5    1    3    3  502    0  0.10401199920E+02  0.69214511859E+02 -0.88189367000E+02  0.11266619042E+03  0.41800000000E+01 0. -1.
         -5    1    3    3    0  502  0.60359708559E+02  0.18074174634E+02 -0.37112659663E+03  0.37646034762E+03  0.41800000000E+01 0. -1.
        -11    1    1    2    0    0  0.12013823562E+02 -0.38531606566E+02 -0.78765799256E+02  0.88504620182E+02  0.00000000000E+00 0.  1.
         11    1    1    2    0    0 -0.82774732041E+02 -0.48757079927E+02 -0.31260246417E+03  0.32703090024E+03  0.00000000000E+00 0. -1.
</event>
<event>
 7    1  0.2394257E-009  0.1213703E+03  0.7561462E-02  0.1240853E+00
          1   -1    0    0  501    0  0.00000000000E+00  0.00000000000E+00  0.20767247121E+03  0.20767247121E+03  0.00000000000E+00 0. -1.
         -1   -1    0    0    0  501 -0.00000000000E+00 -0.00000000000E+00 -0.79186938660E+02  0.79186938660E+02  0.00000000000E+00 0.  1.
         25    2    1    2    0    0  0.48062599173E+02 -0.39104718195E+02  0.10071637208E+03  0.17213575118E+03  0.12509091416E+03 0.  0.
          5    1    3    3  502    0 -0.34310790126E+02 -0.38904754801E+02  0.62219280373E+02  0.81114249768E+02  0.41800000000E+01 0. -1.
         -5    1    3    3    0  502  0.82373389299E+02 -0.19996339382E+00  0.38497091711E+02  0.91021501417E+02  0.41800000000E+01 0. -1.
        -11    1    1    2    0    0 -0.39359675608E+02 -0.22947277544E+02 -0.14563330185E+01  0.45583796645E+02  0.00000000000E+00 0. -1.
         11    1    1    2    0    0 -0.87029235642E+01  0.62051995739E+02  0.29225493488E+02  0.69139862044E+02  0.00000000000E+00 0.  1.
</event>
<event>
 7    1  0.2394257E-009  0.8448836E+02  0.7561462E-02  0.1316776E+00
          2   -1    0    0  501    0  0.00000000000E+00  0.00000000000E+00  0.43385177197E+02  0.43385177197E+02  0.00000000000E+00 0. -1.
         -2   -1    0    0    0  501 -0.00000000000E+00 -0.00000000000E+00 -0.39969570609E+03  0.39969570609E+03  0.00000000000E+00 0.  1.
         25    2    1    2    0    0  0.29709255052E+02 -0.60422727949E+02 -0.26235918552E+03  0.29834964835E+03  0.12508646830E+03 0.  0.
          5    1    3    3  502    0 -0.98434432084E+01 -0.34728976103E+02 -0.50115609912E+01  0.36682193213E+02  0.41800000000E+01 0. -1.
         -5    1    3    3    0  502  0.39552698261E+02 -0.25693751846E+02 -0.25734762453E+03  0.26166745513E+03  0.41800000000E+01 0. -1.
        -11    1    1    2    0    0 -0.43475711968E+02  0.32922673961E+02 -0.99515560403E+02  0.11347857399E+03  0.00000000000E+00 0.  1.
         11    1    1    2    0    0  0.13766456915E+02  0.27500053988E+02  0.55642170345E+01  0.31252660952E+02  0.00000000000E+00 0. -1.
</event>
<event>
 7    1  0.2394257E-009  0.1365991E+03  0.7561462E-02  0.1217980E+00
         -1   -1    0    0    0  501 -0.00000000000E+00  0.00000000000E+00  0.42616855712E+03  0.42616855712E+03  0.00000000000E+00 0.  1.
          1   -1    0    0  501    0  0.00000000000E+00 -0.00000000000E+00 -0.55025405632E+02  0.55025405632E+02  0.00000000000E+00 0. -1.
         25    2    1    2    0    0  0.10582921818E+03 -0.13505852798E+01  0.16816781480E+03  0.23479555779E+03  0.12508753943E+03 0.  0.
          5    1    3    3  502    0  0.82897179344E+02  0.50970711683E+02  0.14107119715E+03  0.17143077570E+03  0.41800000000E+01 0. -1.
         -5    1    3    3    0  502  0.22932038840E+02 -0.52321296963E+02  0.27096617656E+02  0.63364782093E+02  0.41800000000E+01 0. -1.
        -11    1    1    2    0    0 -0.89718097073E+02  0.21950096637E+02  0.19972159935E+03  0.22004513385E+03  0.00000000000E+00 0.  1.
         11    1    1    2    0    0 -0.16111121112E+02 -0.20599511357E+02  0.32537373390E+01  0.26353271112E+02  0.00000000000E+00 0. -1.
</event>
<event>
 7    1  0.2394257E-009  0.1049383E+03  0.7561462E-02  0.1270241E+00
         -1   -1    0    0    0  501 -0.00000000000E+00  0.00000000000E+00  0.10787407064E+04  0.10787407064E+04  0.00000000000E+00 0.  1.
          1   -1    0    0  501    0  0.00000000000E+00 -0.00000000000E+00 -0.19956533434E+02  0.19956533434E+02  0.00000000000E+00 0. -1.
         25    2    1    2    0    0  0.26627448733E+02  0.73596161378E+02  0.73058627991E+03  0.74533793363E+03  0.12508759697E+03 0.  0.
          5    1    3    3  502    0  0.53507870522E+02  0.24172466959E+01  0.14171724623E+03  0.15155918174E+03  0.41800000000E+01 0. -1.
         -5    1    3    3    0  502 -0.26880421790E+02  0.71178914682E+02  0.58886903368E+03  0.59377875189E+03  0.41800000000E+01 0. -1.
        -11    1    1    2    0    0 -0.17901668006E+02 -0.65991720244E+02  0.33363628756E+03  0.34057091661E+03  0.00000000000E+00 0.  1.
         11    1    1    2    0    0 -0.87257807266E+01 -0.76044411341E+01 -0.54383944950E+01  0.12788389615E+02  0.00000000000E+00 0. -1.
</event>
<event>
 7    1  0.2394257E-009  0.1350662E+03  0.7561462E-02  0.1220126E+00
          2   -1    0    0  501    0  0.00000000000E+00  0.00000000000E+00  0.25383330669E+03  0.25383330669E+03  0.00000000000E+00 0. -1.
         -2   -1    0    0    0  501 -0.00000000000E+00 -0.00000000000E+00 -0.91226045940E+02  0.91226045940E+02  0.00000000000E+00 0.  1.
         25    2    1    2    0    0 -0.73415686811E+02 -0.67209304815E+02  0.44001709980E+02  0.16580331224E+03  0.12509050382E+03 0.  0.
          5    1    3    3  502    0  0.32218670609E+02 -0.31472497413E+02 -0.15762172373E+01  0.45260553355E+02  0.41800000000E+01 0.  1.
         -5    1    3    3    0  502 -0.10563435742E+03 -0.35736807402E+02  0.45577927217E+02  0.12054275889E+03  0.41800000000E+01 0.  1.
        -11    1    1    2    0    0  0.10993997859E+02 -0.94142530696E+01 -0.96077077437E+01  0.17372512710E+02  0.00000000000E+00 0.  1.
         11    1    1    2    0    0  0.62421688952E+02  0.76623557885E+02  0.12821325852E+03  0.16188352768E+03  0.00000000000E+00 0. -1.
</event>
<event>
 7    1  0.2394257E-009  0.1018385E+03  0.7561462E-02  0.1276477E+00
          1   -1    0    0  501    0  0.00000000000E+00  0.00000000000E+00  0.61486391917E+02  0.61486391917E+02  0.00000000000E+00 0. -1.
         -1   -1    0    0    0  501 -0.00000000000E+00 -0.00000000000E+00 -0.24771273988E+03  0.24771273988E+03  0.00000000000E+00 0.  1.
         25    2    1    2    0    0 -0.42423352385E+02  0.37145714790E+02 -0.90838369042E+02  0.16455538797E+03  0.12508925399E+03 0.  0.
          5    1    3    3  502    0  0.33222170839E+02  0.23179973869E+02 -0.75824104211E+02  0.86068525044E+02  0.41800000000E+01 0. -1.
         -5    1    3    3    0  502 -0.75645523224E+02  0.13965740921E+02 -0.15014264831E+02  0.78486862924E+02  0.41800000000E+01 0. -1.
        -11    1    1    2    0    0  0.79555341450E+01  0.18681400350E+02 -0.72288406724E+02  0.75085944019E+02  0.00000000000E+00 0.  1.
         11    1    1    2    0    0  0.34467818240E+02 -0.55827115140E+02 -0.23099572200E+02  0.69557799813E+02  0.00000000000E+00 0. -1.
</event>
<event>
 7    1  0.2394257E-009  0.1135422E+03  0.7561462E-02  0.1254147E+00
         -1   -1    0    0    0  501 -0.00000000000E+00  0.00000000000E+00  0.76392066496E+02  0.76392066496E+02  0.00000000000E+00 0.  1.
          1   -1    0    0  501    0  0.00000000000E+00 -0.00000000000E+00 -0.25753491280E+03  0.25753491280E+03  0.00000000000E+00 0. -1.
         25    2    1    2    0    0  0.12032189354E+02  0.60850976792E+02 -0.26438890677E+02  0.14210403280E+03  0.12508767421E+03 0.  0.
          5    1    3    3  502    0 -0.34029965845E+02  0.73348186739E+02  0.10450504187E+02  0.81637494517E+02  0.41800000000E+01 0. -1.
         -5    1    3    3    0  502  0.46062155199E+02 -0.12497209946E+02 -0.36889394865E+02  0.60466538280E+02  0.41800000000E+01 0. -1.
        -11    1    1    2    0    0 -0.43442594311E+02 -0.46623913967E+02 -0.48273967000E+02  0.79946383558E+02  0.00000000000E+00 0.  1.
         11    1    1    2    0    0  0.31410404957E+02 -0.14227062825E+02 -0.10642998862E+03  0.11187656294E+03  0.00000000000E+00 0. -1.
</event>
<event>
 7    1  0.2985727E-009  0.1757739E+03  0.7561462E-02  0.1171957E+00
          1   -1    0    0  501    0  0.00000000000E+00  0.00000000000E+00  0.59411970151E+03  0.59411970151E+03  0.00000000000E+00 0. -1.
         -1   -1    0    0    0  501 -0.00000000000E+00 -0.00000000000E+00 -0.68276245394E+02  0.68276245394E+02  0.00000000000E+00 0.  1.
         25    2    1    2    0    0 -0.12331093777E+03  0.10998275771E+03  0.33552596977E+03  0.39436928245E+03  0.12509060789E+03 0.  0.
          5    1    3    3  502    0 -0.39385625516E+02 -0.77012144608E+01  0.15560889109E+02  0.43245229463E+02  0.41800000000E+01 0.  1.
         -5    1    3    3    0  502 -0.83925312257E+02  0.11768397217E+03  0.31996508067E+03  0.35112405299E+03  0.41800000000E+01 0.  1.
        -11    1    1    2    0    0  0.38241635260E+02 -0.47835353669E+02  0.14300504466E+02  0.62889968643E+02  0.00000000000E+00 0.  1.
         11    1    1    2    0    0  0.85069302513E+02 -0.62147404038E+02  0.17601698187E+03  0.20513669580E+03  0.00000000000E+00 0. -1.
</event>
<event>
 7    1  0.2394257E-009  0.1105862E+03  0.7561462E-02  0.1259488E+00
          2   -1    0    0  501    0  0.00000000000E+00  0.00000000000E+00  0.51512272241E+03  0.51512272241E+03  0.00000000000E+00 0. -1.
         -2   -1    0    0    0  501 -0.00000000000E+00 -0.00000000000E+00 -0.28258184897E+02  0.28258184897E+02  0.00000000000E+00 0.  1.
         25    2    1    2    0    0 -0.31150260296E+02  0.47527252758E+02  0.27645236456E+03  0.30871030255E+03  0.12508781937E+03 0.  0.
          5    1    3    3  502    0 -0.41797238108E+02 -0.30767590948E+02  0.67297971070E+02  0.85089030293E+02  0.41800000000E+01 0. -1.
         -5    1    3    3    0  502  0.10646977812E+02  0.78294843706E+02  0.20915439349E+03  0.22362127226E+03  0.41800000000E+01 0. -1.
        -11    1    1    2    0    0  0.19384974377E+02  0.16145065075E+02  0.12483051102E+03  0.12735421799E+03  0.00000000000E+00 0. -1.
         11    1    1    2    0    0  0.11765285919E+02 -0.63672317833E+02  0.85581661932E+02  0.10731638677E+03  0.00000000000E+00 0.  1.
</event>
<event>
 7    1  0.2394257E-009  0.1251288E+03  0.7561462E-02  0.1234868E+00
         -1   -1    0    0    0  501 -0.00000000000E+00  0.00000000000E+00  0.51825176696E+02  0.51825176696E+02  0.00000000000E+00 0. -1.
          1   -1    0    0  501    0  0.00000000000E+00 -0.00000000000E+00 -0.47381992186E+03  0.47381992186E+03  0.00000000000E+00 0.  1.
         25    2    1    2    0    0  0.10004001245E+03  0.40190943497E+01 -0.30960419079E+03  0.34860619262E+03  0.12508942950E+03 0.  0.
          5    1    3    3  502    0  0.50075399699E+02 -0.53694110146E+02 -0.21345119363E+03  0.22576423007E+03  0.41800000000E+01 0. -1.
         -5    1    3    3    0  502  0.49964612753E+02  0.57713204496E+02 -0.96152997157E+02  0.12284196255E+03  0.41800000000E+01 0. -1.
        -11    1    1    2    0    0 -0.36919991639E+02  0.11298139503E+01  0.10833792305E+02  0.38493289258E+02  0.00000000000E+00 0. -1.
         11    1    1    2    0    0 -0.63120020813E+02 -0.51489083000E+01 -0.12322434668E+03  0.13854561667E+03  0.00000000000E+00 0.  1.
</event>
<event>
 7    1  0.2394257E-009  0.1238458E+03  0.7561462E-02  0.1236884E+00
         -4   -1    0    0    0  501 -0.00000000000E+00  0.00000000000E+00  0.97914725731E+02  0.97914725731E+02  0.00000000000E+00 0.  1.
          4   -1    0    0  501    0  0.00000000000E+00 -0.00000000000E+00 -0.21617610288E+03  0.21617610288E+03  0.00000000000E+00 0. -1.
         25    2    1    2    0    0 -0.30946731340E+02  0.59505834279E+02  0.95343509466E+01  0.14225566770E+03  0.12508847529E+03 0.  0.
          5    1    3    3  502    0 -0.23575711123E+02  0.98837434184E+02  0.62666540956E+01  0.10188913536E+03  0.41800000000E+01 0. -1.
         -5    1    3    3    0  502 -0.73710202171E+01 -0.39331599905E+02  0.32676968510E+01  0.40366532336E+02  0.41800000000E+01 0. -1.
        -11    1    1    2    0    0  0.54452696285E+02 -0.16751241863E+02 -0.10153598033E+03  0.11642703955E+03  0.00000000000E+00 0. -1.
         11    1    1    2    0    0 -0.23505964945E+02 -0.42754592415E+02 -0.26259747771E+02  0.55408121369E+02  0.00000000000E+00 0.  1.
</event>
<event>
 7    1  0.2394257E-009  0.1242624E+03  0.7561462E-02  0.1236227E+00
          2   -1    0    0  501    0  0.00000000000E+00  0.00000000000E+00  0.91803490726E+02  0.91803490726E+02  0.00000000000E+00 0. -1.
         -2   -1    0    0    0  501 -0.00000000000E+00 -0.00000000000E+00 -0.19486406258E+03  0.19486406258E+03  0.00000000000E+00 0.  1.
         25    2    1    2    0    0  0.30184375520E+02  0.71529852058E+02 -0.60940100800E+02  0.15933792373E+03  0.12508901547E+03 0.  0.
          5    1    3    3  502    0  0.43281910319E+02  0.95010506924E+02 -0.14466634354E+02  0.10548495673E+03  0.41800000000E+01 0. -1.
         -5    1    3    3    0  502 -0.13097534798E+02 -0.23480654866E+02 -0.46473466446E+02  0.53852966996E+02  0.41800000000E+01 0. -1.
        -11    1    1    2    0    0  0.29249654059E+02 -0.39982345829E+02 -0.33058417922E+01  0.49649358813E+02  0.00000000000E+00 0. -1.
         11    1    1    2    0    0 -0.59434029580E+02 -0.31547506229E+02 -0.38814629257E+02  0.77680270762E+02  0.00000000000E+00 0.  1.
</event>
<event>
 7    1  0.2394257E-009  0.1683290E+03  0.7561462E-02  0.1179602E+00
         -2   -1    0    0    0  501 -0.00000000000E+00  0.00000000000E+00  0.35884286619E+02  0.35884286619E+02  0.00000000000E+00 0.  1.
          2   -1    0    0  501    0  0.00000000000E+00 -0.00000000000E+00 -0.10512026585E+04  0.10512026585E+04  0.00000000000E+00 0. -1.
         25    2    1    2    0    0  0.11710448803E+03  0.57627180814E+02 -0.26911178829E+03  0.32419565186E+03  0.12508922018E+03 0.  0.
          5    1    3    3  502    0 -0.25086223804E+02  0.17000700597E+02 -0.28906938808E+02  0.42088311403E+02  0.41800000000E+01 0. -1.
         -5    1    3    3    0  502  0.14219071184E+03  0.40626480217E+02 -0.24020484948E+03  0.28210734046E+03  0.41800000000E+01 0. -1.
        -11    1    1    2    0    0 -0.12914387849E+03 -0.37163833911E+02 -0.60958199854E+03  0.62421911606E+03  0.00000000000E+00 0. -1.
         11    1    1    2    0    0  0.12039390460E+02 -0.20463346903E+02 -0.13662458502E+03  0.13867217717E+03  0.00000000000E+00 0.  1.
</event>
<event>
 7    1  0.2394257E-009  0.1095189E+03  0.7561462E-02  0.1261463E+00
         -2   -1    0    0    0  501 -0.00000000000E+00  0.00000000000E+00  0.46253840270E+02  0.46253840270E+02  0.00000000000E+00 0.  1.
          2   -1    0    0  501    0  0.00000000000E+00 -0.00000000000E+00 -0.39902664865E+03  0.39902664865E+03  0.00000000000E+00 0. -1.
         25    2    1    2    0    0 -0.29664596391E+02 -0.21293008499E+02 -0.74418744794E+02  0.15006214854E+03  0.12508844214E+03 0.  0.
          5    1    3    3  502    0  0.44407296899E+02 -0.77708590240E+01 -0.17102947007E+01  0.45307745208E+02  0.41800000000E+01 0. -1.
         -5    1    3    3    0  502 -0.74071893290E+02 -0.13522149475E+02 -0.72708450093E+02  0.10475440333E+03  0.41800000000E+01 0. -1.
        -11    1    1    2    0    0 -0.31829451873E+02 -0.35519541998E+01 -0.91047802585E+02  0.96516489476E+02  0.00000000000E+00 0.  1.
         11    1    1    2    0    0  0.61494048264E+02  0.24844962698E+02 -0.18730626100E+03  0.19870185091E+03  0.00000000000E+00 0. -1.
</event>
<event>
 7    1  0.2394257E-009  0.1533566E+03  0.7561462E-02  0.1196408E+00
         -2   -1    0    0    0  501 -0.00000000000E+00  0.00000000000E+00  0.16861747583E+02  0.16861747583E+02  0.00000000000E+00 0.  1.
          2   -1    0    0  501    0  0.00000000000E+00 -0.00000000000E+00 -0.17799829136E+04  0.17799829136E+04  0.00000000000E+00 0. -1.
         25    2    1    2    0    0  0.19022671210E+02 -0.12532934212E+03 -0.11812591135E+04  0.11946087144E+04  0.12509029235E+03 0.  0.
          5    1    3    3  502    0 -0.28768391104E+02 -0.35154467794E+01 -0.73161790188E+02  0.78804179053E+02  0.41800000000E+01 0.  1.
         -5    1    3    3    0  502  0.47791062314E+02 -0.12181389534E+03 -0.11080973233E+04  0.11158045353E+04  0.41800000000E+01 0.  1.
        -11    1    1    2    0    0  0.23226492078E+02  0.84952200552E+02 -0.24514320138E+03  0.26048327297E+03  0.00000000000E+00 0.  1.
         11    1    1    2    0    0 -0.42249163288E+02  0.40377141568E+02 -0.33671885116E+03  0.34175267385E+03  0.00000000000E+00 0. -1.
</event>
<event>
 7    1  0.2394257E-009  0.1793622E+03  0.7561462E-02  0.1168422E+00
         -1   -1    0    0    0  501 -0.00000000000E+00  0.00000000000E+00  0.14051807530E+03  0.14051807530E+03  0.00000000000E+00 0.  1.
          1   -1    0    0  501    0  0.00000000000E+00 -0.00000000000E+00 -0.33636593321E+03  0.33636593321E+03  0.00000000000E+00 0. -1.
         25    2    1    2    0    0  0.43837340419E+02 -0.15231220321E+03 -0.21215635947E+03  0.29287783980E+03  0.12508552483E+03 0.  0.
          5    1    3    3  502    0  0.68030417789E+02 -0.32183393539E+02 -0.53818176188E+02  0.92616289347E+02  0.41800000000E+01 0. -1.
         -5    1    3    3    0  502 -0.24193077370E+02 -0.12012880967E+03 -0.15833818328E+03  0.20026155046E+03  0.41800000000E+01 0. -1.
        -11    1    1    2    0    0 -0.29382599147E+02  0.54990233444E+02  0.50092210359E+02  0.79978074780E+02  0.00000000000E+00 0.  1.
         11    1    1    2    0    0 -0.14454741272E+02  0.97321969769E+02 -0.33783708800E+02  0.10402809392E+03  0.00000000000E+00 0. -1.
</event>
<event>
 7    1  0.2394257E-009  0.1424452E+03  0.7561462E-02  0.1210076E+00
         -1   -1    0    0    0  501 -0.00000000000E+00  0.00000000000E+00  0.28944600977E+02  0.28944600977E+02  0.00000000000E+00 0.  1.
          1   -1    0    0  501    0  0.00000000000E+00 -0.00000000000E+00 -0.82112444637E+03  0.82112444637E+03  0.00000000000E+00 0. -1.
         25    2    1    2    0    0  0.39561020523E+02  0.90443563036E+02 -0.29651489793E+03  0.33662410024E+03  0.12509831225E+03 0.  0.
          5    1    3    3  502    0  0.81743715056E+02  0.74998593346E+02 -0.17764201331E+03  0.20947787771E+03  0.41800000000E+01 0. -1.
         -5    1    3    3    0  502 -0.42182694533E+02  0.15444969690E+02 -0.11887288461E+03  0.12714622253E+03  0.41800000000E+01 0. -1.
        -11    1    1    2    0    0 -0.39253698692E+02 -0.94908937781E+00 -0.92905796180E+02  0.10086248359E+03  0.00000000000E+00 0.  1.
         11    1    1    2    0    0 -0.30732183105E+00 -0.89494473659E+02 -0.40275915129E+03  0.41258246352E+03  0.00000000000E+00 0. -1.
</event>
<event>
 7    1  0.2394257E-009  0.1768703E+03  0.7561462E-02  0.1170867E+00
         -1   -1    0    0    0  501 -0.00000000000E+00  0.00000000000E+00  0.74319036718E+02  0.74319036718E+02  0.00000000000E+00 0.  1.
          1   -1    0    0  501    0  0.00000000000E+00 -0.00000000000E+00 -0.64830069987E+03  0.64830069987E+03  0.00000000000E+00 0. -1.
         25    2    1    2    0    0 -0.15726753799E+03 -0.47512082419E+02 -0.45594425562E+03  0.50052399696E+03  0.12509448756E+03 0.  0.
          5    1    3    3  502    0 -0.41782230277E+02 -0.59138870763E+02 -0.84573269999E+02  0.11141486077E+03  0.41800000000E+01 0.  1.
         -5    1    3    3    0  502 -0.11548530771E+03  0.11626788343E+02 -0.37137098562E+03  0.38910913619E+03  0.41800000000E+01 0.  1.
        -11    1    1    2    0    0  0.71194026734E+02  0.29853257489E+02 -0.10927449155E+03  0.13379357582E+03  0.00000000000E+00 0.  1.
         11    1    1    2    0    0  0.86073511257E+02  0.17658824930E+02 -0.87629159832E+01  0.88302163816E+02  0.00000000000E+00 0. -1.
</event>
<event>
 7    1  0.2394257E-009  0.1796676E+03  0.7561462E-02  0.1168125E+00
         -2   -1    0    0    0  501 -0.00000000000E+00  0.00000000000E+00  0.19809232762E+03  0.19809232762E+03  0.00000000000E+00 0.  1.
          2   -1    0    0  501    0  0.00000000000E+00 -0.00000000000E+00 -0.20121223102E+03  0.20121223102E+03  0.00000000000E+00 0. -1.
         25    2    1    2    0    0  0.94326550529E+02 -0.12755468469E+03 -0.66121036420E+02  0.21257967679E+03  0.12510168587E+03 0.  0.
          5    1    3    3  502    0 -0.22927789662E+02 -0.57950864959E+02 -0.38550809560E+02  0.73400433282E+02  0.41800000000E+01 0. -1.
         -5    1    3    3    0  502  0.11725434019E+03 -0.69603819733E+02 -0.27570226860E+02  0.13917924351E+03  0.41800000000E+01 0. -1.
        -11    1    1    2    0    0 -0.42593792270E+02  0.77689402545E+02  0.72191309558E+02  0.11428674282E+03  0.00000000000E+00 0.  1.
         11    1    1    2    0    0 -0.51732758259E+02  0.49865282147E+02 -0.91901765408E+01  0.72438139026E+02  0.00000000000E+00 0. -1.
</event>
<event>
 7    1  0.2394257E-009  0.1019744E+03  0.7561462E-02  0.1276198E+00
          2   -1    0    0  501    0  0.00000000000E+00  0.00000000000E+00  0.44942674467E+02  0.44942674467E+02  0.00000000000E+00 0. -1.
         -2   -1    0    0    0  501 -0.00000000000E+00 -0.00000000000E+00 -0.37103162656E+03  0.37103162656E+03  0.00000000000E+00 0.  1.
         25    2    1    2    0    0 -0.60253113031E+02 -0.14980555443E+02 -0.23381605799E+03  0.27234382889E+03  0.12508540080E+03 0.  0.
          5    1    3    3  502    0 -0.84242320493E+02  0.63899951644E+01 -0.84535985375E+02  0.11958848533E+03  0.41800000000E+01 0.  1.
         -5    1    3    3    0  502  0.23989207462E+02 -0.21370550608E+02 -0.14928007261E+03  0.15275534356E+03  0.41800000000E+01 0.  1.
        -11    1    1    2    0    0  0.60997437565E+02  0.32712303512E+02 -0.24265836645E+02  0.73345845272E+02  0.00000000000E+00 0. -1.
         11    1    1    2    0    0 -0.74432453469E+00 -0.17731748068E+02 -0.68007057459E+02  0.70284626860E+02  0.00000000000E+00 0.  1.
</event>
<event>
 7    1  0.2394257E-009  0.7301922E+02  0.7561462E-02  0.1350117E+00
         -1   -1    0    0    0  501 -0.00000000000E+00  0.00000000000E+00  0.27037067965E+03  0.27037067965E+03  0.00000000000E+00 0.  1.
          1   -1    0    0  501    0  0.00000000000E+00 -0.00000000000E+00 -0.60054019409E+02  0.60054019409E+02  0.00000000000E+00 0. -1.
         25    2    1    2    0    0 -0.43292374493E+02  0.48682110881E+01  0.18207038838E+03  0.22515596840E+03  0.12509058563E+03 0.  0.
          5    1    3    3  502    0 -0.20272429504E+02 -0.14416429125E+02  0.19169328483E+03  0.19334578526E+03  0.41800000000E+01 0. -1.
         -5    1    3    3    0  502 -0.23019944989E+02  0.19284640213E+02 -0.96228964550E+01  0.31810183143E+02  0.41800000000E+01 0. -1.
        -11    1    1    2    0    0  0.39819966380E+02  0.33458418509E+02  0.39345746189E+02  0.65216433779E+02  0.00000000000E+00 0. -1.
         11    1    1    2    0    0  0.34724081125E+01 -0.38326629597E+02 -0.11099474331E+02  0.40052296873E+02  0.00000000000E+00 0.  1.
</event>
<event>
 7    1  0.2394257E-009  0.1759399E+03  0.7561462E-02  0.1171791E+00
         -2   -1    0    0    0  501 -0.00000000000E+00  0.00000000000E+00  0.16102488657E+03  0.16102488657E+03  0.00000000000E+00 0.  1.
          2   -1    0    0  501    0  0.00000000000E+00 -0.00000000000E+00 -0.24948989513E+03  0.24948989513E+03  0.00000000000E+00 0. -1.
         25    2    1    2    0    0  0.14465506540E+03 -0.15453182531E+02  0.38160847974E+02  0.19561854298E+03  0.12508587148E+03 0.  0.
          5    1    3    3  502    0  0.11582156089E+03  0.34086641990E+02  0.59053444187E+02  0.13446677954E+03  0.41800000000E+01 0. -1.
         -5    1    3    3    0  502  0.28833504509E+02 -0.49539824521E+02 -0.20892596213E+02  0.61151763444E+02  0.41800000000E+01 0. -1.
        -11    1    1    2    0    0 -0.50297956350E+02 -0.39904560982E+02 -0.48591389316E+02  0.80519448059E+02  0.00000000000E+00 0.  1.
         11    1    1    2    0    0 -0.94357109048E+02  0.55357743513E+02 -0.78034467219E+02  0.13437679066E+03  0.00000000000E+00 0. -1.
</event>
<event>
 7    1  0.2394257E-009  0.9030682E+02  0.7561462E-02  0.1302110E+00
         -1   -1    0    0    0  501 -0.00000000000E+00  0.00000000000E+00  0.12552696549E+03  0.12552696549E+03  0.00000000000E+00 0.  1.
          1   -1    0    0  501    0  0.00000000000E+00 -0.00000000000E+00 -0.98635259110E+02  0.98635259110E+02  0.00000000000E+00 0. -1.
         25    2    1    2    0    0 -0.19748493585E+02 -0.31373407349E+02  0.40627614563E+02  0.13664477453E+03  0.12508755995E+03 0.  0.
          5    1    3    3  502    0  0.28769468105E+02 -0.64258212085E+02  0.13015597820E+02  0.71719441590E+02  0.41800000000E+01 0.  1.
         -5    1    3    3    0  502 -0.48517961690E+02  0.32884804735E+02  0.27612016743E+02  0.64925332942E+02  0.41800000000E+01 0.  1.
        -11    1    1    2    0    0  0.13377182746E+02 -0.50864587647E+01 -0.39769569682E+02  0.42266295718E+02  0.00000000000E+00 0. -1.
         11    1    1    2    0    0  0.63713108392E+01  0.36459866114E+02  0.26033661497E+02  0.45251154348E+02  0.00000000000E+00 0.  1.
</event>
<event>
 7    1  0.2394257E-009  0.6655212E+02  0.7561462E-02  0.1372226E+00
         -2   -1    0    0    0  501 -0.00000000000E+00  0.00000000000E+00  0.52561063165E+02  0.52561063165E+02  0.00000000000E+00 0.  1.
          2   -1    0    0  501    0  0.00000000000E+00 -0.00000000000E+00 -0.23147084452E+03  0.23147084452E+03  0.00000000000E+00 0. -1.
         25    2    1    2    0    0 -0.18191528814E+02  0.11137811010E+02 -0.97788239555E+02  0.16020280280E+03  0.12508963056E+03 0.  0.
          5    1    3    3  502    0 -0.38849515300E+02  0.33148505666E+02 -0.11450307076E+03  0.12544534220E+03  0.41800000000E+01 0. -1.
         -5    1    3    3    0  502  0.20657986485E+02 -0.22010694655E+02  0.16714831203E+02  0.34757460595E+02  0.41800000000E+01 0. -1.
        -11    1    1    2    0    0  0.18242860302E+01 -0.27901180154E+02  0.10037280149E+02  0.29707757679E+02  0.00000000000E+00 0.  1.
         11    1    1    2    0    0  0.16367242784E+02  0.16763369143E+02 -0.91158821947E+02  0.94121347207E+02  0.00000000000E+00 0. -1.
</event>
<event>
 7    1  0.2394257E-009  0.9160453E+02  0.7561462E-02  0.1299012E+00
         -2   -1    0    0    0  501 -0.00000000000E+00  0.00000000000E+00  0.10967061109E+03  0.10967061109E+03  0.00000000000E+00 0.  1.
          2   -1    0    0  501    0  0.00000000000E+00 -0.00000000000E+00 -0.16205525392E+03  0.16205525392E+03  0.00000000000E+00 0. -1.
         25    2    1    2    0    0 -0.75310133426E+02  0.66224828431E+01 -0.43626333885E+02  0.15253117319E+03  0.12508808221E+03 0.  0.
          5    1    3    3  502    0 -0.13918036630E+02  0.11043781653E+01 -0.79678402842E+02  0.81000318976E+02  0.41800000000E+01 0.  1.
         -5    1    3    3    0  502 -0.61392096796E+02  0.55181046778E+01  0.36052068957E+02  0.71530854213E+02  0.41800000000E+01 0.  1.
        -11    1    1    2    0    0  0.87709852392E+02  0.75362337081E+01  0.14559636520E+02  0.89228896893E+02  0.00000000000E+00 0.  1.
         11    1    1    2    0    0 -0.12399718966E+02 -0.14158716551E+02 -0.23317945469E+02  0.29965794929E+02  0.00000000000E+00 0. -1.
</event>
<event>
 7    1  0.2394257E-009  0.1005578E+03  0.7561462E-02  0.1279127E+00
         -2   -1    0    0    0  501 -0.00000000000E+00  0.00000000000E+00  0.18957498936E+02  0.18957498936E+02  0.00000000000E+00 0.  1.
          2   -1    0    0  501    0  0.00000000000E+00 -0.00000000000E+00 -0.84781138114E+03  0.84781138114E+03  0.00000000000E+00 0. -1.
         25    2    1    2    0    0 -0.31525691545E+01  0.21899227998E+02 -0.67271474055E+03  0.68460382910E+03  0.12509102998E+03 0.  0.
          5    1    3    3  502    0  0.50542103405E+02  0.15594091297E+02 -0.15045065509E+03  0.15953229114E+03  0.41800000000E+01 0.  1.
         -5    1    3    3    0  502 -0.53694672559E+02  0.63051367012E+01 -0.52226408546E+03  0.52507153796E+03  0.41800000000E+01 0.  1.
        -11    1    1    2    0    0  0.40806645760E+02  0.12657873487E+02 -0.71398419103E+02  0.83205398562E+02  0.00000000000E+00 0. -1.
         11    1    1    2    0    0 -0.37654076606E+02 -0.34557101485E+02 -0.84740722552E+02  0.98959652418E+02  0.00000000000E+00 0.  1.
</event>
<event>
 7    1  0.2394257E-009  0.1610833E+03  0.7561462E-02  0.1187479E+00
          2   -1    0    0  501    0  0.00000000000E+00  0.00000000000E+00  0.61048869483E+03  0.61048869483E+03  0.00000000000E+00 0. -1.
         -2   -1    0    0    0  501 -0.00000000000E+00 -0.00000000000E+00 -0.68978824779E+02  0.68978824779E+02  0.00000000000E+00 0.  1.
         25    2    1    2    0    0  0.53134229140E+02 -0.13913438666E+03  0.13489345885E+03  0.23670661472E+03  0.12510856227E+03 0.  0.
          5    1    3    3  502    0  0.47417085489E+02 -0.72383832161E+02  0.67154231318E+00  0.86635573084E+02  0.41800000000E+01 0. -1.
         -5    1    3    3    0  502  0.57171436506E+01 -0.66750554495E+02  0.13422191654E+03  0.15007104163E+03  0.41800000000E+01 0. -1.
        -11    1    1    2    0    0 -0.63930405190E+02  0.57257140033E+02  0.14582280058E+03  0.16920332728E+03  0.00000000000E+00 0.  1.
         11    1    1    2    0    0  0.10796176050E+02  0.81877246623E+02  0.26079361062E+03  0.27355757761E+03  0.00000000000E+00 0. -1.
</event>
<event>
 7    1  0.2394257E-009  0.1071130E+03  0.7561462E-02  0.1266011E+00
          4   -1    0    0  501    0  0.00000000000E+00  0.00000000000E+00  0.13357601098E+02  0.13357601098E+02  0.00000000000E+00 0. -1.
         -4   -1    0    0    0  501 -0.00000000000E+00 -0.00000000000E+00 -0.10842945329E+04  0.10842945329E+04  0.00000000000E+00 0.  1.
         25    2    1    2    0    0  0.33137397505E+02 -0.31646386472E+02 -0.73759469189E+03  0.74952843852E+03  0.12508944697E+03 0.  0.
          5    1    3    3  502    0  0.64955316955E+02 -0.49254231084E+02 -0.64194873047E+03  0.64711731350E+03  0.41800000000E+01 0.  1.
         -5    1    3    3    0  502 -0.31817919450E+02  0.17607844612E+02 -0.95645961425E+02  0.10241112502E+03  0.41800000000E+01 0.  1.
        -11    1    1    2    0    0  0.20486622812E+02 -0.14622924820E+02 -0.13938407355E+03  0.14163845383E+03  0.00000000000E+00 0. -1.
         11    1    1    2    0    0 -0.53624020317E+02  0.46269311292E+02 -0.19395816635E+03  0.20648524164E+03  0.00000000000E+00 0.  1.
</event>
<event>
 7    1  0.3439840E-009  0.1139609E+03  0.7561462E-02  0.1253406E+00
          1   -1    0    0  501    0  0.00000000000E+00  0.00000000000E+00  0.68581217410E+03  0.68581217410E+03  0.00000000000E+00 0. -1.
         -1   -1    0    0    0  501 -0.00000000000E+00 -0.00000000000E+00 -0.27628245231E+02  0.27628245231E+02  0.00000000000E+00 0.  1.
         25    2    1    2    0    0  0.19870766739E+02  0.81537709233E+02  0.33395313627E+03  0.36635377158E+03  0.12508854196E+03 0.  0.
          5    1    3    3  502    0 -0.34811228615E+02  0.46947475454E+02  0.26620736746E+03  0.27257975343E+03  0.41800000000E+01 0. -1.
         -5    1    3    3    0  502  0.54681995353E+02  0.34590233778E+02  0.67745768807E+02  0.93774018150E+02  0.41800000000E+01 0. -1.
        -11    1    1    2    0    0 -0.39123972243E+02 -0.29489694406E+02  0.24801433572E+03  0.25280711620E+03  0.00000000000E+00 0. -1.
         11    1    1    2    0    0  0.19253205504E+02 -0.52048014827E+02  0.76216456884E+02  0.94279531551E+02  0.00000000000E+00 0.  1.
</event>
<event>
 7    1  0.2394257E-009  0.1009759E+03  0.7561462E-02  0.1278257E+00
         -1   -1    0    0    0  501 -0.00000000000E+00  0.00000000000E+00  0.10703442368E+03  0.10703442368E+03  0.00000000000E+00 0.  1.
          1   -1    0    0  501    0  0.00000000000E+00 -0.00000000000E+00 -0.15896723560E+03  0.15896723560E+03  0.00000000000E+00 0. -1.
         25    2    1    2    0    0  0.21699204673E+02 -0.63482323097E+02 -0.53715119409E+02  0.15175384938E+03  0.12507220282E+03 0.  0.
          5    1    3    3  502    0 -0.29454334919E+02 -0.17121801896E+02 -0.72389055409E+02  0.80114678360E+02  0.41800000000E+01 0.  1.
         -5    1    3    3    0  502  0.51153539592E+02 -0.46360521200E+02  0.18673936000E+02  0.71639171020E+02  0.41800000000E+01 0.  1.
        -11    1    1    2    0    0 -0.34134992508E+02  0.36818997538E+00  0.28619264709E+02  0.44546555309E+02  0.00000000000E+00 0.  1.
         11    1    1    2    0    0  0.12435787836E+02  0.63114133121E+02 -0.26836957221E+02  0.69701254591E+02  0.00000000000E+00 0. -1.
</event>
<event>
 7    1  0.2394257E-009  0.1180247E+03  0.7561462E-02  0.1246392E+00
         -3   -1    0    0    0  501 -0.00000000000E+00  0.00000000000E+00  0.61395325163E+02  0.61395325163E+02  0.00000000000E+00 0.  1.
          3   -1    0    0  501    0  0.00000000000E+00 -0.00000000000E+00 -0.25400006391E+03  0.25400006391E+03  0.00000000000E+00 0. -1.
         25    2    1    2    0    0 -0.51439031561E+02  0.33178168853E+02 -0.10473471494E+03  0.17425024928E+03  0.12508806499E+03 0.  0.
          5    1    3    3  502    0 -0.67594957119E+01 -0.43439591104E+02 -0.11785546719E+02  0.45706239936E+02  0.41800000000E+01 0. -1.
         -5    1    3    3    0  502 -0.44679535849E+02  0.76617759957E+02 -0.92949168219E+02  0.12854400934E+03  0.41800000000E+01 0. -1.
        -11    1    1    2    0    0  0.45830091583E+02 -0.60109237917E+02 -0.84589640159E+02  0.11344128437E+03  0.00000000000E+00 0.  1.
         11    1    1    2    0    0  0.56089399777E+01  0.26931069064E+02 -0.32803836497E+01  0.27703855427E+02  0.00000000000E+00 0. -1.
</event>
<event>
 7    1  0.2394257E-009  0.9824736E+02  0.7561462E-02  0.1284025E+00
          1   -1    0    0  501    0  0.00000000000E+00  0.00000000000E+00  0.34621673936E+03  0.34621673936E+03  0.00000000000E+00 0. -1.
         -1   -1    0    0    0  501 -0.00000000000E+00 -0.00000000000E+00 -0.49431029672E+02  0.49431029672E+02  0.00000000000E+00 0.  1.
         25    2    1    2    0    0  0.68252493099E+02 -0.54894699264E+01  0.18919819008E+03  0.23692222489E+03  0.12509056088E+03 0.  0.
          5    1    3    3  502    0 -0.40409905086E+01 -0.30071472044E+02 -0.23046892090E+01  0.30714931671E+02  0.41800000000E+01 0. -1.
         -5    1    3    3    0  502  0.72293483607E+02  0.24582002118E+02  0.19150287929E+03  0.20620729322E+03  0.41800000000E+01 0. -1.
        -11    1    1    2    0    0 -0.19138824583E+01  0.21145985522E+02  0.83932449568E+02  0.86576392511E+02  0.00000000000E+00 0. -1.
         11    1    1    2    0    0 -0.66338610640E+02 -0.15656515596E+02  0.23655070036E+02  0.72149151628E+02  0.00000000000E+00 0.  1.
</event>
<event>
 7    1  0.2394257E-009  0.8582697E+02  0.7561462E-02  0.1313284E+00
         -2   -1    0    0    0  501 -0.00000000000E+00  0.00000000000E+00  0.14733647322E+03  0.14733647322E+03  0.00000000000E+00 0.  1.
          2   -1    0    0  501    0  0.00000000000E+00 -0.00000000000E+00 -0.11086789061E+03  0.11086789061E+03  0.00000000000E+00 0. -1.
         25    2    1    2    0    0  0.58371118462E+02  0.14895834922E+02  0.57954586371E+02  0.15045064184E+03  0.12509032009E+03 0.  0.
          5    1    3    3  502    0  0.28238039534E+02 -0.30139448551E+02 -0.27057231315E+02  0.49551381435E+02  0.41800000000E+01 0. -1.
         -5    1    3    3    0  502  0.30133078929E+02  0.45035283473E+02  0.85011817686E+02  0.10089926040E+03  0.41800000000E+01 0. -1.
        -11    1    1    2    0    0 -0.16493117191E+02  0.16595424378E+02  0.27443131952E+02  0.36063229421E+02  0.00000000000E+00 0.  1.
         11    1    1    2    0    0 -0.41878001272E+02 -0.31491259301E+02 -0.48929135711E+02  0.71690492565E+02  0.00000000000E+00 0. -1.
</event>
<event>
 7    1  0.2394257E-009  0.1625477E+03  0.7561462E-02  0.1185850E+00
          2   -1    0    0  501    0  0.00000000000E+00  0.00000000000E+00  0.26560891642E+03  0.26560891642E+03  0.00000000000E+00 0.  1.
         -2   -1    0    0    0  501 -0.00000000000E+00 -0.00000000000E+00 -0.10542030715E+03  0.10542030715E+03  0.00000000000E+00 0. -1.
         25    2    1    2    0    0  0.10846962324E+03  0.58543802907E+02  0.55931432954E+02  0.18430719100E+03  0.12509108456E+03 0.  0.
          5    1    3    3  502    0 -0.13928900359E+02  0.46069087584E+02 -0.17899297606E+01  0.48343058908E+02  0.41800000000E+01 0.  1.
         -5    1    3    3    0  502  0.12239852360E+03  0.12474715322E+02  0.57721362715E+02  0.13596413209E+03  0.41800000000E+01 0.  1.
        -11    1    1    2    0    0 -0.50594457419E+02  0.21444575688E+02  0.48744453067E+02  0.73455365037E+02  0.00000000000E+00 0.  1.
         11    1    1    2    0    0 -0.57875165824E+02 -0.79988378595E+02  0.55512723250E+02  0.11326666752E+03  0.00000000000E+00 0. -1.
</event>
<event>
 7    1  0.2394257E-009  0.1188175E+03  0.7561462E-02  0.1245061E+00
          1   -1    0    0  501    0  0.00000000000E+00  0.00000000000E+00  0.11452504693E+03  0.11452504693E+03  0.00000000000E+00 0. -1.
         -1   -1    0    0    0  501 -0.00000000000E+00 -0.00000000000E+00 -0.18560090482E+03  0.18560090482E+03  0.00000000000E+00 0.  1.
         25    2    1    2    0    0 -0.47791116735E+02 -0.68142022450E+02 -0.91133556644E+02  0.17572717896E+03  0.12508952880E+03 0.  0.
          5    1    3    3  502    0 -0.44509299051E+01  0.21153550475E+02 -0.71035088827E+02  0.74368943245E+02  0.41800000000E+01 0. -1.
         -5    1    3    3    0  502 -0.43340186830E+02 -0.89295572925E+02 -0.20098467817E+02  0.10135823571E+03  0.41800000000E+01 0. -1.
        -11    1    1    2    0    0  0.12980802811E+02  0.78803877384E+02  0.32066484498E+02  0.86062836117E+02  0.00000000000E+00 0. -1.
         11    1    1    2    0    0  0.34810313924E+02 -0.10661854934E+02 -0.12008785741E+02  0.38335936680E+02  0.00000000000E+00 0.  1.
</event>
<event>
 7    1  0.2394257E-009  0.1455287E+03  0.7561462E-02  0.1206078E+00
         -2   -1    0    0    0  501 -0.00000000000E+00  0.00000000000E+00  0.11503253005E+02  0.11503253005E+02  0.00000000000E+00 0.  1.
          2   -1    0    0  501    0  0.00000000000E+00 -0.00000000000E+00 -0.32288297758E+04  0.32288297758E+04  0.00000000000E+00 0. -1.
         25    2    1    2    0    0 -0.10433717180E+03  0.45541235756E+02 -0.26241425708E+04  0.26295875746E+04  0.12508529353E+03 0.  0.
          5    1    3    3  502    0  0.26215055140E+02  0.21698517111E+02 -0.39060327148E+03  0.39210514260E+03  0.41800000000E+01 0. -1.
         -5    1    3    3    0  502 -0.13055222694E+03  0.23842718645E+02 -0.22335392994E+04  0.22374824320E+04  0.41800000000E+01 0. -1.
        -11    1    1    2    0    0  0.10394362760E+03 -0.29638794725E+02 -0.58028507549E+03  0.59026562217E+03  0.00000000000E+00 0. -1.
         11    1    1    2    0    0  0.39354419520E+00 -0.15902441031E+02 -0.12898876472E+02  0.20479832080E+02  0.00000000000E+00 0.  1.
</event>
<event>
 7    1  0.2394257E-009  0.1397357E+03  0.7561462E-02  0.1213685E+00
         -1   -1    0    0    0  501 -0.00000000000E+00  0.00000000000E+00  0.11443216748E+03  0.11443216748E+03  0.00000000000E+00 0.  1.
          1   -1    0    0  501    0  0.00000000000E+00 -0.00000000000E+00 -0.22804747422E+03  0.22804747422E+03  0.00000000000E+00 0. -1.
         25    2    1    2    0    0  0.50040879512E+01 -0.92205724291E+02 -0.14057933450E+03  0.20961403353E+03  0.12509419361E+03 0.  0.
          5    1    3    3  502    0  0.56594843429E+02 -0.18953217555E+02 -0.85512290640E+02  0.10436486482E+03  0.41800000000E+01 0. -1.
         -5    1    3    3    0  502 -0.51590755478E+02 -0.73252506736E+02 -0.55067043864E+02  0.10524916871E+03  0.41800000000E+01 0. -1.
        -11    1    1    2    0    0 -0.30810221113E+02 -0.33277372620E+01  0.36933916985E+01  0.31208727987E+02  0.00000000000E+00 0.  1.
         11    1    1    2    0    0  0.25806133162E+02  0.95533461553E+02  0.23270636071E+02  0.10165688018E+03  0.00000000000E+00 0. -1.
</event>
<event>
 7    1  0.2394257E-009  0.5101751E+02  0.7561462E-02  0.1439929E+00
         -1   -1    0    0    0  501 -0.00000000000E+00  0.00000000000E+00  0.15438831487E+03  0.15438831487E+03  0.00000000000E+00 0.  1.
          1   -1    0    0  501    0  0.00000000000E+00 -0.00000000000E+00 -0.14349240570E+03  0.14349240570E+03  0.00000000000E+00 0. -1.
         25    2    1    2    0    0  0.28205289990E+02 -0.37413464663E+02  0.97182647067E+02  0.16518966353E+03  0.12509137590E+03 0.  0.
          5    1    3    3  502    0  0.22981865499E+02 -0.10822435799E+02  0.12411415425E+03  0.12675601344E+03  0.41800000000E+01 0. -1.
         -5    1    3    3    0  502  0.52234244909E+01 -0.26591028864E+02 -0.26931507185E+02  0.38433650083E+02  0.41800000000E+01 0. -1.
        -11    1    1    2    0    0 -0.20848268500E+02  0.16152775157E+02  0.14036518222E+02  0.29876182630E+02  0.00000000000E+00 0.  1.
         11    1    1    2    0    0 -0.73570214903E+01  0.21260689506E+02 -0.10032325612E+03  0.10281487442E+03  0.00000000000E+00 0. -1.
</event>
<event>
 7    1  0.2394257E-009  0.1225008E+03  0.7561462E-02  0.1239028E+00
         -1   -1    0    0    0  501 -0.00000000000E+00  0.00000000000E+00  0.26478065314E+02  0.26478065314E+02  0.00000000000E+00 0.  1.
          1   -1    0    0  501    0  0.00000000000E+00 -0.00000000000E+00 -0.74372345344E+03  0.74372345344E+03  0.00000000000E+00 0. -1.
         25    2    1    2    0    0  0.60890855437E+02  0.19947173482E+02 -0.53446243495E+03  0.55263285349E+03  0.12508952943E+03 0.  0.
          5    1    3    3  502    0  0.67331704421E+02 -0.31990308190E+02 -0.42155400351E+03  0.42811469084E+03  0.41800000000E+01 0. -1.
         -5    1    3    3    0  502 -0.64408489846E+01  0.51937481671E+02 -0.11290843144E+03  0.12451816264E+03  0.41800000000E+01 0. -1.
        -11    1    1    2    0    0 -0.81453899371E+02 -0.38543439390E+02 -0.14463494133E+03  0.17041009564E+03  0.00000000000E+00 0.  1.
         11    1    1    2    0    0  0.20563043935E+02  0.18596265908E+02 -0.38148011844E+02  0.47158569627E+02  0.00000000000E+00 0. -1.
</event>
<event>
 7    1  0.2394257E-009  0.1991204E+03  0.7561462E-02  0.1150483E+00
         -2   -1    0    0    0  501 -0.00000000000E+00  0.00000000000E+00  0.73277701781E+02  0.73277701781E+02  0.00000000000E+00 0.  1.
          2   -1    0    0  501    0  0.00000000000E+00 -0.00000000000E+00 -0.60019836702E+03  0.60019836702E+03  0.00000000000E+00 0. -1.
         25    2    1    2    0    0  0.17923755171E+02 -0.17601917042E+03 -0.31450184414E+03  0.38191995213E+03  0.12508968989E+03 0.  0.
          5    1    3    3  502    0  0.62203758244E+02 -0.15489393694E+03 -0.23190390904E+03  0.28575922499E+03  0.41800000000E+01 0. -1.
         -5    1    3    3    0  502 -0.44280003072E+02 -0.21125233479E+02 -0.82597935100E+02  0.96160727142E+02  0.41800000000E+01 0. -1.
        -11    1    1    2    0    0  0.88400911638E+01  0.11575630974E+03 -0.18856141713E+03  0.22143414029E+03  0.00000000000E+00 0. -1.
         11    1    1    2    0    0 -0.26763846335E+02  0.60262860674E+02 -0.23857403974E+02  0.70121976382E+02  0.00000000000E+00 0.  1.
</event>
<event>
 7    1  0.2394257E-009  0.3397929E+03  0.7561462E-02  0.1066884E+00
          2   -1    0    0  501    0  0.00000000000E+00  0.00000000000E+00  0.12044093283E+03  0.12044093283E+03  0.00000000000E+00 0. -1.
         -2   -1    0    0    0  501 -0.00000000000E+00 -0.00000000000E+00 -0.96842342420E+03  0.96842342420E+03  0.00000000000E+00 0.  1.
         25    2    1    2    0    0  0.31824684516E+03  0.40137933811E+02 -0.40007796763E+03  0.52782767471E+03  0.12509023075E+03 0.  0.
          5    1    3    3  502    0  0.26028943774E+03 -0.19369036228E+02 -0.29845301065E+03  0.39650652318E+03  0.41800000000E+01 0.  1.
         -5    1    3    3    0  502  0.57957407420E+02  0.59506970038E+02 -0.10162495698E+03  0.13132115153E+03  0.41800000000E+01 0.  1.
        -11    1    1    2    0    0 -0.14513772940E+03  0.30665348557E+02 -0.16478834913E+03  0.22172172673E+03  0.00000000000E+00 0. -1.
         11    1    1    2    0    0 -0.17310911576E+03 -0.70803282368E+02 -0.28311617462E+03  0.33931495559E+03  0.00000000000E+00 0.  1.
</event>
<event>
 7    1  0.2394257E-009  0.1642863E+03  0.7561462E-02  0.1183941E+00
         -1   -1    0    0    0  501 -0.00000000000E+00  0.00000000000E+00  0.17706057113E+03  0.17706057113E+03  0.00000000000E+00 0.  1.
          1   -1    0    0  501    0  0.00000000000E+00 -0.00000000000E+00 -0.17742934764E+03  0.17742934764E+03  0.00000000000E+00 0. -1.
         25    2    1    2    0    0 -0.12362172234E+03 -0.57041833141E+02 -0.33710490169E+02  0.18793658659E+03  0.12509061703E+03 0.  0.
          5    1    3    3  502    0 -0.14081977009E+03 -0.37202219075E+02 -0.53041699845E+02  0.15506484797E+03  0.41800000000E+01 0.  1.
         -5    1    3    3    0  502  0.17198047747E+02 -0.19839614066E+02  0.19331209676E+02  0.32871738624E+02  0.41800000000E+01 0.  1.
        -11    1    1    2    0    0  0.66823531197E+02  0.71294876910E+02 -0.27698330552E+01  0.97754875942E+02  0.00000000000E+00 0. -1.
         11    1    1    2    0    0  0.56798191147E+02 -0.14253043770E+02  0.36111546712E+02  0.68798456234E+02  0.00000000000E+00 0.  1.
</event>
<event>
 7    1  0.2394257E-009  0.9967135E+02  0.7561462E-02  0.1280989E+00
          3   -1    0    0  501    0  0.00000000000E+00  0.00000000000E+00  0.11339157167E+03  0.11339157167E+03  0.00000000000E+00 0. -1.
         -3   -1    0    0    0  501 -0.00000000000E+00 -0.00000000000E+00 -0.10280674641E+03  0.10280674641E+03  0.00000000000E+00 0.  1.
         25    2    1    2    0    0 -0.52819590745E+01  0.41290131915E+01 -0.98082036899E+01  0.12564138595E+03  0.12507841205E+03 0.  0.
          5    1    3    3  502    0 -0.19037653828E+01 -0.55133580721E+02 -0.29834333899E+02  0.62856152642E+02  0.41800000000E+01 0.  1.
         -5    1    3    3    0  502 -0.33781936917E+01  0.59262593913E+02  0.20026130209E+02  0.62785233304E+02  0.41800000000E+01 0.  1.
        -11    1    1    2    0    0 -0.26794217123E+02 -0.32198380637E+02 -0.28907790389E+01  0.41988360177E+02  0.00000000000E+00 0. -1.
         11    1    1    2    0    0  0.32076176197E+02  0.28069367446E+02  0.23283807984E+02  0.48568571962E+02  0.00000000000E+00 0.  1.
</event>
<event>
 7    1  0.2394257E-009  0.1129546E+03  0.7561462E-02  0.1255194E+00
         -1   -1    0    0    0  501 -0.00000000000E+00  0.00000000000E+00  0.10710692547E+03  0.10710692547E+03  0.00000000000E+00 0.  1.
          1   -1    0    0  501    0  0.00000000000E+00 -0.00000000000E+00 -0.12068086074E+03  0.12068086074E+03  0.00000000000E+00 0. -1.
         25    2    1    2    0    0  0.29289737779E+02 -0.13148208315E+02  0.43510347061E+01  0.12921708327E+03  0.12508940396E+03 0.  0.
          5    1    3    3  502    0  0.47614708619E+02 -0.61125361077E+02  0.14581823906E+01  0.77608433430E+02  0.41800000000E+01 0.  1.
         -5    1    3    3    0  502 -0.18324970840E+02  0.47977152762E+02  0.28928523155E+01  0.51608649836E+02  0.41800000000E+01 0.  1.
        -11    1    1    2    0    0 -0.55894665151E+02 -0.15184952109E+02 -0.81230002407E+01  0.58487430237E+02  0.00000000000E+00 0.  1.
         11    1    1    2    0    0  0.26604927371E+02  0.28333160423E+02 -0.98019697349E+01  0.40083272704E+02  0.00000000000E+00 0. -1.
</event>
<event>
 7    1  0.2394257E-009  0.9275214E+02  0.7561462E-02  0.1296321E+00
          2   -1    0    0  501    0  0.00000000000E+00  0.00000000000E+00  0.47414928003E+03  0.47414928003E+03  0.00000000000E+00 0. -1.
         -2   -1    0    0    0  501 -0.00000000000E+00 -0.00000000000E+00 -0.30792348794E+02  0.30792348794E+02  0.00000000000E+00 0.  1.
         25    2    1    2    0    0  0.38099249163E+02  0.32405313318E+02  0.20774797929E+03  0.24760577484E+03  0.12509092580E+03 0.  0.
          5    1    3    3  502    0  0.54834358347E+02  0.13840647869E+02  0.21409803758E+03  0.22148095287E+03  0.41800000000E+01 0.  1.
         -5    1    3    3    0  502 -0.16735109184E+02  0.18564665449E+02 -0.63500582893E+01  0.26124821970E+02  0.41800000000E+01 0.  1.
        -11    1    1    2    0    0 -0.25679611588E+02  0.30192701114E+02  0.87016155419E+02  0.95618266852E+02  0.00000000000E+00 0.  1.
         11    1    1    2    0    0 -0.12419637575E+02 -0.62598014432E+02  0.14859279653E+03  0.16171758714E+03  0.00000000000E+00 0. -1.
</event>
<event>
 7    1  0.2394257E-009  0.1346309E+03  0.7561462E-02  0.1220742E+00
          3   -1    0    0  501    0  0.00000000000E+00  0.00000000000E+00  0.15769081240E+03  0.15769081240E+03  0.00000000000E+00 0. -1.
         -3   -1    0    0    0  501 -0.00000000000E+00 -0.00000000000E+00 -0.15697070470E+03  0.15697070470E+03  0.00000000000E+00 0.  1.
         25    2    1    2    0    0  0.10008239077E+03 -0.18066831240E+02 -0.49249385815E+02  0.16857262623E+03  0.12509329710E+03 0.  0.
          5    1    3    3  502    0  0.23401743061E+01  0.39522526953E+02  0.92366007501E+01  0.40869227372E+02  0.41800000000E+01 0. -1.
         -5    1    3    3    0  502  0.97742216465E+02 -0.57589358194E+02 -0.58485986565E+02  0.12770339886E+03  0.41800000000E+01 0. -1.
        -11    1    1    2    0    0 -0.62274960660E+02 -0.16794509237E+02 -0.11950845283E+02  0.65597629292E+02  0.00000000000E+00 0.  1.
         11    1    1    2    0    0 -0.37807430110E+02  0.34861340477E+02  0.61920338805E+02  0.80491261570E+02  0.00000000000E+00 0. -1.
</event>
<event>
 7    1  0.2394257E-009  0.1433659E+03  0.7561462E-02  0.1208870E+00
          1   -1    0    0  501    0  0.00000000000E+00  0.00000000000E+00  0.36032357795E+03  0.36032357795E+03  0.00000000000E+00 0. -1.
         -1   -1    0    0    0  501 -0.00000000000E+00 -0.00000000000E+00 -0.65947244221E+02  0.65947244221E+02  0.00000000000E+00 0.  1.
         25    2    1    2    0    0 -0.21035586547E+01  0.93712006274E+02  0.85915926206E+02  0.17836624760E+03  0.12508639745E+03 0.  0.
          5    1    3    3  502    0 -0.60891691145E+02  0.58023240820E+02  0.29222646313E+02  0.89139946059E+02  0.41800000000E+01 0. -1.
         -5    1    3    3    0  502  0.58788132491E+02  0.35688765454E+02  0.56693279894E+02  0.89226301540E+02  0.41800000000E+01 0. -1.
        -11    1    1    2    0    0  0.32306938040E+02  0.28597626171E+01  0.41414015747E+02  0.52602634802E+02  0.00000000000E+00 0.  1.
         11    1    1    2    0    0 -0.30203379386E+02 -0.96571768891E+02  0.16704639177E+03  0.19530193977E+03  0.00000000000E+00 0. -1.
</event>
<event>
 7    1  0.2394257E-009  0.1299666E+03  0.7561462E-02  0.1227505E+00
          1   -1    0    0  501    0  0.00000000000E+00  0.00000000000E+00  0.47739821107E+02  0.47739821107E+02  0.00000000000E+00 0. -1.
         -1   -1    0    0    0  501 -0.00000000000E+00 -0.00000000000E+00 -0.46575118909E+03  0.46575118909E+03  0.00000000000E+00 0.  1.
         25    2    1    2    0    0  0.96153765229E+02 -0.38981243327E+02 -0.22739500913E+03  0.27950307978E+03  0.12509355511E+03 0.  0.
          5    1    3    3  502    0  0.48883138194E+02 -0.79732118645E+02 -0.17256202568E+03  0.19632090325E+03  0.41800000000E+01 0. -1.
         -5    1    3    3    0  502  0.47270627034E+02  0.40750875318E+02 -0.54832983447E+02  0.83182176535E+02  0.41800000000E+01 0. -1.
        -11    1    1    2    0    0 -0.72976848040E+02  0.28926984638E+02 -0.19325161691E+03  0.20858709986E+03  0.00000000000E+00 0.  1.
         11    1    1    2    0    0 -0.23176917188E+02  0.10054258688E+02  0.26352580513E+01  0.25400830560E+02  0.00000000000E+00 0. -1.
</event>
<event>
 7    1  0.2394257E-009  0.1166770E+03  0.7561462E-02  0.1248682E+00
          2   -1    0    0  501    0  0.00000000000E+00  0.00000000000E+00  0.73115159747E+02  0.73115159747E+02  0.00000000000E+00 0. -1.
         -2   -1    0    0    0  501 -0.00000000000E+00 -0.00000000000E+00 -0.19587175475E+03  0.19587175475E+03  0.00000000000E+00 0.  1.
         25    2    1    2    0    0  0.49906038205E+02  0.37286192924E+00 -0.58440367098E+02  0.14681072476E+03  0.12508941092E+03 0.  0.
          5    1    3    3  502    0  0.83827233377E+02 -0.29509646253E+02 -0.33935974242E+02  0.95220517880E+02  0.41800000000E+01 0.  1.
         -5    1    3    3    0  502 -0.33921195172E+02  0.29882508182E+02 -0.24504392856E+02  0.51590206885E+02  0.41800000000E+01 0.  1.
        -11    1    1    2    0    0  0.21874542381E+02 -0.13935482954E+02 -0.34766834792E+02  0.43375408827E+02  0.00000000000E+00 0.  1.
         11    1    1    2    0    0 -0.71780580585E+02  0.13562621024E+02 -0.29549393116E+02  0.78800780908E+02  0.00000000000E+00 0. -1.
</event>
<event>
 7    1  0.2394257E-009  0.1403706E+03  0.7561462E-02  0.1212831E+00
          2   -1    0    0  501    0  0.00000000000E+00  0.00000000000E+00  0.60433416133E+02  0.60433416133E+02  0.00000000000E+00 0. -1.
         -2   -1    0    0    0  501 -0.00000000000E+00 -0.00000000000E+00 -0.34820502806E+03  0.34820502806E+03  0.00000000000E+00 0.  1.
         25    2    1    2    0    0 -0.54438570676E+02 -0.74683055510E+02 -0.10787669123E+03  0.18927356879E+03  0.12508391813E+03 0.  0.
          5    1    3    3  502    0  0.37051111419E+02 -0.51638340925E-01 -0.23113997851E+02  0.43869315251E+02  0.41800000000E+01 0.  1.
         -5    1    3    3    0  502 -0.91489682094E+02 -0.74631417169E+02 -0.84762693378E+02  0.14540425354E+03  0.41800000000E+01 0.  1.
        -11    1    1    2    0    0  0.14571542821E+02 -0.18739988893E+02 -0.39385958706E+02  0.45986637049E+02  0.00000000000E+00 0.  1.
         11    1    1    2    0    0  0.39867027855E+02  0.93423044403E+02 -0.14050896199E+03  0.17337823836E+03  0.00000000000E+00 0. -1.
</event>
<event>
 7    1  0.2394257E-009  0.1599471E+03  0.7561462E-02  0.1188756E+00
          2   -1    0    0  501    0  0.00000000000E+00  0.00000000000E+00  0.39421025690E+03  0.39421025690E+03  0.00000000000E+00 0.  1.
         -2   -1    0    0    0  501 -0.00000000000E+00 -0.00000000000E+00 -0.98776891188E+02  0.98776891188E+02  0.00000000000E+00 0. -1.
         25    2    1    2    0    0 -0.11327682441E+03  0.86324915054E+02  0.53189867256E+02  0.19687491306E+03  0.12508772723E+03 0.  0.
          5    1    3    3  502    0 -0.99797048817E+02  0.52205975136E+02 -0.20405166139E+02  0.11453714680E+03  0.41800000000E+01 0. -1.
         -5    1    3    3    0  502 -0.13479775597E+02  0.34118939918E+02  0.73595033395E+02  0.82337766254E+02  0.41800000000E+01 0. -1.
        -11    1    1    2    0    0  0.37389066401E+02 -0.86656336025E+02  0.13156923454E+03  0.16191888814E+03  0.00000000000E+00 0.  1.
         11    1    1    2    0    0  0.75887758013E+02  0.33142097161E+00  0.11067426392E+03  0.13419334689E+03  0.00000000000E+00 0. -1.
</event>
<event>
 7    1  0.2394257E-009  0.3299574E+03  0.7561462E-02  0.1071156E+00
          2   -1    0    0  501    0  0.00000000000E+00  0.00000000000E+00  0.11990613822E+04  0.11990613822E+04  0.00000000000E+00 0. -1.
         -2   -1    0    0    0  501 -0.00000000000E+00 -0.00000000000E+00 -0.10268950549E+03  0.10268950549E+03  0.00000000000E+00 0.  1.
         25    2    1    2    0    0 -0.24792937515E+03 -0.21706649140E+03  0.65455289179E+03  0.74342003086E+03  0.12508803857E+03 0.  0.
          5    1    3    3  502    0 -0.66228762994E+02 -0.54148013480E+02  0.72326760529E+02  0.11210213691E+03  0.41800000000E+01 0. -1.
         -5    1    3    3    0  502 -0.18170061215E+03 -0.16291847792E+03  0.58222613126E+03  0.63131789395E+03  0.41800000000E+01 0. -1.
        -11    1    1    2    0    0  0.89742193423E+02  0.65462682493E+02  0.86079471862E+02  0.14053006638E+03  0.00000000000E+00 0.  1.
         11    1    1    2    0    0  0.15818718172E+03  0.15160380891E+03  0.35573951305E+03  0.41780079042E+03  0.00000000000E+00 0. -1.
</event>
<event>
 7    1  0.2394257E-009  0.2159506E+03  0.7561462E-02  0.1136939E+00
         -1   -1    0    0    0  501 -0.00000000000E+00  0.00000000000E+00  0.10959966192E+03  0.10959966192E+03  0.00000000000E+00 0.  1.
          1   -1    0    0  501    0  0.00000000000E+00 -0.00000000000E+00 -0.93499074499E+03  0.93499074499E+03  0.00000000000E+00 0. -1.
         25    2    1    2    0    0 -0.33617381046E+01  0.20926259546E+03 -0.65685440192E+02  0.25251550039E+03  0.12508943098E+03 0.  0.
          5    1    3    3  502    0 -0.86489967305E+00  0.13272258515E+03 -0.10220585619E+03  0.16756951423E+03  0.41800000000E+01 0.  1.
         -5    1    3    3    0  502 -0.24968384316E+01  0.76540010306E+02  0.36520415996E+02  0.84945986158E+02  0.41800000000E+01 0.  1.
        -11    1    1    2    0    0  0.39201951104E+02 -0.99235339129E+02 -0.31596157476E+03  0.33349087278E+03  0.00000000000E+00 0.  1.
         11    1    1    2    0    0 -0.35840213000E+02 -0.11002725633E+03 -0.44374406813E+03  0.45858403374E+03  0.00000000000E+00 0. -1.
</event>
<event>
 7    1  0.2394257E-009  0.2598143E+03  0.7561462E-02  0.1107255E+00
          1   -1    0    0  501    0  0.00000000000E+00  0.00000000000E+00  0.22292369969E+04  0.22292369969E+04  0.00000000000E+00 0. -1.
         -1   -1    0    0    0  501 -0.00000000000E+00 -0.00000000000E+00 -0.36645852689E+02  0.36645852689E+02  0.00000000000E+00 0.  1.
         25    2    1    2    0    0 -0.22891841742E+03 -0.92499437280E+02  0.14129941222E+04  0.14398476798E+04  0.12509661803E+03 0.  0.
          5    1    3    3  502    0 -0.49079319911E+02  0.20943253714E+02  0.15445516218E+03  0.16346641564E+03  0.41800000000E+01 0. -1.
         -5    1    3    3    0  502 -0.17983909751E+03 -0.11344269099E+03  0.12585389600E+04  0.12763812642E+04  0.41800000000E+01 0. -1.
        -11    1    1    2    0    0  0.11145509073E+03  0.75801904679E+02  0.25769834744E+03  0.29082057059E+03  0.00000000000E+00 0.  1.
         11    1    1    2    0    0  0.11746332669E+03  0.16697532601E+02  0.52189867459E+03  0.53521459925E+03  0.00000000000E+00 0. -1.
</event>
<event>
 7    1  0.2394257E-009  0.1095722E+03  0.7561462E-02  0.1261364E+00
          2   -1    0    0  501    0  0.00000000000E+00  0.00000000000E+00  0.49119687883E+03  0.49119687883E+03  0.00000000000E+00 0. -1.
         -2   -1    0    0    0  501 -0.00000000000E+00 -0.00000000000E+00 -0.41317906409E+02  0.41317906409E+02  0.00000000000E+00 0.  1.
         25    2    1    2    0    0  0.84532283552E+02 -0.36213865937E+02  0.22249497916E+03  0.27131797531E+03  0.12510906014E+03 0.  0.
          5    1    3    3  502    0  0.16649032299E+02 -0.16661625561E+02  0.19328542038E+03  0.19476017605E+03  0.41800000000E+01 0.  1.
         -5    1    3    3    0  502  0.67883251253E+02 -0.19552240376E+02  0.29209558776E+02  0.76557799264E+02  0.41800000000E+01 0.  1.
        -11    1    1    2    0    0 -0.59542490156E+02 -0.20102077645E+02  0.82122851418E+02  0.10340969193E+03  0.00000000000E+00 0.  1.
         11    1    1    2    0    0 -0.24989793396E+02  0.56315943582E+02  0.14526114185E+03  0.15778711800E+03  0.00000000000E+00 0. -1.
</event>
<event>
 7    1  0.3126914E-009  0.1289374E+03  0.7561462E-02  0.1229041E+00
          1   -1    0    0  501    0  0.00000000000E+00  0.00000000000E+00  0.31158589459E+02  0.31158589459E+02  0.00000000000E+00 0. -1.
         -1   -1    0    0    0  501 -0.00000000000E+00 -0.00000000000E+00 -0.84289378199E+03  0.84289378199E+03  0.00000000000E+00 0.  1.
         25    2    1    2    0    0  0.42010801533E+02  0.11238025112E+03 -0.42346882742E+03  0.45756664923E+03  0.12508861821E+03 0.  0.
          5    1    3    3  502    0  0.23641141711E+02  0.60314622928E+02 -0.55359675737E+02  0.85316606930E+02  0.41800000000E+01 0. -1.
         -5    1    3    3    0  502  0.18369659822E+02  0.52065628196E+02 -0.36810915168E+03  0.37225004230E+03  0.41800000000E+01 0. -1.
        -11    1    1    2    0    0 -0.58240654659E+02 -0.63877847594E+02 -0.31823353962E+03  0.32976497541E+03  0.00000000000E+00 0.  1.
         11    1    1    2    0    0  0.16229853126E+02 -0.48502403530E+02 -0.70032825494E+02  0.86720746811E+02  0.00000000000E+00 0. -1.
</event>
<event>
 7    1  0.2394257E-009  0.8650607E+02  0.7561462E-02  0.1311540E+00
         -2   -1    0    0    0  501 -0.00000000000E+00  0.00000000000E+00  0.17767573710E+02  0.17767573710E+02  0.00000000000E+00 0.  1.
          2   -1    0    0  501    0  0.00000000000E+00 -0.00000000000E+00 -0.85640943730E+03  0.85640943730E+03  0.00000000000E+00 0. -1.
         25    2    1    2    0    0  0.18629092881E+02  0.70454925891E+01 -0.65996937081E+03  0.67201507497E+03  0.12509200018E+03 0.  0.
          5    1    3    3  502    0  0.41812925362E+02 -0.17985080368E+02 -0.89362657582E+02  0.10037400467E+03  0.41800000000E+01 0.  1.
         -5    1    3    3    0  502 -0.23183832481E+02  0.25030572957E+02 -0.57060671323E+03  0.57164107030E+03  0.41800000000E+01 0.  1.
        -11    1    1    2    0    0 -0.16846124964E+02 -0.48549230934E+02 -0.79777424158E+02  0.94896033405E+02  0.00000000000E+00 0.  1.
         11    1    1    2    0    0 -0.17829679174E+01  0.41503738345E+02 -0.98895068623E+02  0.10726590264E+03  0.00000000000E+00 0. -1.
</event>
<event>
 7    1  0.2394257E-009  0.9977992E+02  0.7561462E-02  0.1280759E+00
          3   -1    0    0  501    0  0.00000000000E+00  0.00000000000E+00  0.42023785705E+03  0.42023785705E+03  0.00000000000E+00 0. -1.
         -3   -1    0    0    0  501 -0.00000000000E+00 -0.00000000000E+00 -0.31527937029E+02  0.31527937029E+02  0.00000000000E+00 0.  1.
         25    2    1    2    0    0  0.67521626235E+01  0.27548460604E+02  0.29044836340E+03  0.31750972843E+03  0.12509063300E+03 0.  0.
          5    1    3    3  502    0  0.21477707222E+02  0.64822481341E+02  0.25441541018E+03  0.26345382771E+03  0.41800000000E+01 0.  1.
         -5    1    3    3    0  502 -0.14725544598E+02 -0.37274020736E+02  0.36032953216E+02  0.54055900724E+02  0.41800000000E+01 0.  1.
        -11    1    1    2    0    0 -0.63016386708E+01 -0.59029574764E+02  0.56480807582E+02  0.81940728407E+02  0.00000000000E+00 0.  1.
         11    1    1    2    0    0 -0.45052395267E+00  0.31481114159E+02  0.41780749043E+02  0.52315337246E+02  0.00000000000E+00 0. -1.
</event>
<event>
 7    1  0.2394257E-009  0.1043954E+03  0.7561462E-02  0.1271315E+00
          3   -1    0    0  501    0  0.00000000000E+00  0.00000000000E+00  0.64337409818E+02  0.64337409818E+02  0.00000000000E+00 0. -1.
         -3   -1    0    0    0  501 -0.00000000000E+00 -0.00000000000E+00 -0.30280327018E+03  0.30280327018E+03  0.00000000000E+00 0.  1.
         25    2    1    2    0    0 -0.52024791435E+01 -0.38774565394E+02 -0.28138188128E+02  0.13405076678E+03  0.12508923908E+03 0.  0.
          5    1    3    3  502    0  0.30199784900E+02 -0.65710905762E+02  0.12670329730E+02  0.73538831916E+02  0.41800000000E+01 0. -1.
         -5    1    3    3    0  502 -0.35402264044E+02  0.26936340368E+02 -0.40808517858E+02  0.60511934869E+02  0.41800000000E+01 0. -1.
        -11    1    1    2    0    0 -0.49409414810E+01  0.64151774803E+02 -0.18484598910E+03  0.19572404758E+03  0.00000000000E+00 0.  1.
         11    1    1    2    0    0  0.10143420625E+02 -0.25377209409E+02 -0.25481683130E+02  0.37365865633E+02  0.00000000000E+00 0. -1.
</event>
<event>
 7    1  0.2394257E-009  0.1165148E+03  0.7561462E-02  0.1248960E+00
         -1   -1    0    0    0  501 -0.00000000000E+00  0.00000000000E+00  0.29858970060E+02  0.29858970060E+02  0.00000000000E+00 0.  1.
          1   -1    0    0  501    0  0.00000000000E+00 -0.00000000000E+00 -0.73880750996E+03  0.73880750996E+03  0.00000000000E+00 0. -1.
         25    2    1    2    0    0  0.64797082291E+02  0.72542911820E+02 -0.46967392395E+03  0.49568354318E+03  0.12508974462E+03 0.  0.
          5    1    3    3  502    0  0.59417388753E+02  0.40092232505E+02 -0.45284024872E+03  0.45849708445E+03  0.41800000000E+01 0.  1.
         -5    1    3    3    0  502  0.53796935385E+01  0.32450679315E+02 -0.16833675233E+02  0.37186458723E+02  0.41800000000E+01 0.  1.
        -11    1    1    2    0    0 -0.81257441376E+02 -0.37785379848E+02 -0.13688844986E+03  0.16361220742E+03  0.00000000000E+00 0.  1.
         11    1    1    2    0    0  0.16460359085E+02 -0.34757531972E+02 -0.10238616609E+03  0.10937072943E+03  0.00000000000E+00 0. -1.
</event>
<event>
 7    1  0.2394257E-009  0.2315518E+03  0.7561462E-02  0.1125552E+00
          1   -1    0    0  501    0  0.00000000000E+00  0.00000000000E+00  0.52527595149E+03  0.52527595149E+03  0.00000000000E+00 0. -1.
         -1   -1    0    0    0  501 -0.00000000000E+00 -0.00000000000E+00 -0.12478721388E+03  0.12478721388E+03  0.00000000000E+00 0.  1.
         25    2    1    2    0    0 -0.18096703868E+03 -0.13528287418E+03  0.15684666908E+03  0.30215715159E+03  0.12509013357E+03 0.  0.
          5    1    3    3  502    0 -0.15352576625E+03 -0.13185511426E+03  0.75339443139E+02  0.21598480537E+03  0.41800000000E+01 0. -1.
         -5    1    3    3    0  502 -0.27441272429E+02 -0.34277599250E+01  0.81507225945E+02  0.86172346213E+02  0.41800000000E+01 0. -1.
        -11    1    1    2    0    0  0.47472479275E+02  0.68783812250E+02  0.15027127466E+03  0.17194855366E+03  0.00000000000E+00 0.  1.
         11    1    1    2    0    0  0.13349455941E+03  0.66499061934E+02  0.93370793861E+02  0.17595746013E+03  0.00000000000E+00 0. -1.
</event>
<event>
 7    1  0.2394257E-009  0.1238473E+03  0.7561462E-02  0.1236882E+00
          1   -1    0    0  501    0  0.00000000000E+00  0.00000000000E+00  0.43266565317E+03  0.43266565317E+03  0.00000000000E+00 0.  1.
         -1   -1    0    0    0  501 -0.00000000000E+00 -0.00000000000E+00 -0.58183103557E+02  0.58183103557E+02  0.00000000000E+00 0. -1.
         25    2    1    2    0    0 -0.16997892970E+02 -0.60651113982E+02  0.32157703359E+03  0.35075138706E+03  0.12508901229E+03 0.  0.
          5    1    3    3  502    0 -0.48231816999E+02  0.18561175866E+02  0.15804334297E+03  0.16633098352E+03  0.41800000000E+01 0.  1.
         -5    1    3    3    0  502  0.31233924029E+02 -0.79212289848E+02  0.16353369062E+03  0.18442040354E+03  0.41800000000E+01 0.  1.
        -11    1    1    2    0    0 -0.36359365038E+02  0.38109634813E+02  0.62121033961E+02  0.81445506641E+02  0.00000000000E+00 0.  1.
         11    1    1    2    0    0  0.53357258009E+02  0.22541479169E+02 -0.92155179455E+01  0.58651863025E+02  0.00000000000E+00 0. -1.
</event>
<event>
 7    1  0.2394257E-009  0.9906239E+02  0.7561462E-02  0.1282280E+00
          1   -1    0    0  501    0  0.00000000000E+00  0.00000000000E+00  0.51682328496E+02  0.51682328496E+02  0.00000000000E+00 0. -1.
         -1   -1    0    0    0  501 -0.00000000000E+00 -0.00000000000E+00 -0.57417021232E+03  0.57417021232E+03  0.00000000000E+00 0.  1.
         25    2    1    2    0    0  0.57617617421E+02 -0.76727231448E+01 -0.49825992843E+03  0.51700077458E+03  0.12509270210E+03 0.  0.
          5    1    3    3  502    0  0.45016619595E+02 -0.52327679769E+02 -0.42206282150E+03  0.42769051872E+03  0.41800000000E+01 0.  1.
         -5    1    3    3    0  502  0.12600997827E+02  0.44654956624E+02 -0.76197106934E+02  0.89310255864E+02  0.41800000000E+01 0.  1.
        -11    1    1    2    0    0  0.69201476214E+00 -0.18470039353E+02  0.22916376803E+02  0.29441154256E+02  0.00000000000E+00 0. -1.
         11    1    1    2    0    0 -0.58309632184E+02  0.26142762498E+02 -0.47144332189E+02  0.79410611973E+02  0.00000000000E+00 0.  1.
</event>
<event>
 7    1  0.2394257E-009  0.7697344E+02  0.7561462E-02  0.1337867E+00
         -2   -1    0    0    0  501 -0.00000000000E+00  0.00000000000E+00  0.42088687015E+02  0.42088687015E+02  0.00000000000E+00 0.  1.
          2   -1    0    0  501    0  0.00000000000E+00 -0.00000000000E+00 -0.29642094414E+03  0.29642094414E+03  0.00000000000E+00 0. -1.
         25    2    1    2    0    0 -0.60844671837E+01 -0.13083897215E+02 -0.12723110793E+03  0.17900257151E+03  0.12508379862E+03 0.  0.
          5    1    3    3  502    0 -0.54625264346E+02 -0.11005630150E+02 -0.11629964013E+03  0.12902760207E+03  0.41800000000E+01 0.  1.
         -5    1    3    3    0  502  0.48540797162E+02 -0.20782670653E+01 -0.10931467791E+02  0.49974969447E+02  0.41800000000E+01 0.  1.
        -11    1    1    2    0    0 -0.18163330451E+02  0.16836274573E+02  0.48987554215E+01  0.25246079285E+02  0.00000000000E+00 0.  1.
         11    1    1    2    0    0  0.24247797635E+02 -0.37523773583E+01 -0.13199990462E+03  0.13426098035E+03  0.00000000000E+00 0. -1.
</event>
<event>
 7    1  0.2485745E-009  0.1187177E+03  0.7561462E-02  0.1245228E+00
         -1   -1    0    0    0  501 -0.00000000000E+00  0.00000000000E+00  0.35538365768E+02  0.35538365768E+02  0.00000000000E+00 0.  1.
          1   -1    0    0  501    0  0.00000000000E+00 -0.00000000000E+00 -0.48425854960E+03  0.48425854960E+03  0.00000000000E+00 0. -1.
         25    2    1    2    0    0 -0.28966916843E+01 -0.73623909177E+02 -0.25008189211E+03  0.28916721836E+03  0.12509139292E+03 0.  0.
          5    1    3    3  502    0 -0.38355865668E+02  0.20404695734E+02 -0.91538345198E+02  0.10141136564E+03  0.41800000000E+01 0. -1.
         -5    1    3    3    0  502  0.35459173984E+02 -0.94028604911E+02 -0.15854354692E+03  0.18775585272E+03  0.41800000000E+01 0. -1.
        -11    1    1    2    0    0  0.13635065903E+02  0.79709243932E+02 -0.20220999387E+03  0.21778053221E+03  0.00000000000E+00 0. -1.
         11    1    1    2    0    0 -0.10738374218E+02 -0.60853347550E+01  0.35717021450E+01  0.12849164803E+02  0.00000000000E+00 0.  1.
</event>
<event>
 7    1  0.2394257E-009  0.1242527E+03  0.7561462E-02  0.1236242E+00
          1   -1    0    0  501    0  0.00000000000E+00  0.00000000000E+00  0.24248321319E+03  0.24248321319E+03  0.00000000000E+00 0. -1.
         -1   -1    0    0    0  501 -0.00000000000E+00 -0.00000000000E+00 -0.91520532282E+02  0.91520532282E+02  0.00000000000E+00 0.  1.
         25    2    1    2    0    0 -0.85491972426E+02  0.49929492983E+02  0.62885066770E+02  0.17147714525E+03  0.12509215844E+03 0.  0.
          5    1    3    3  502    0  0.47608844979E+00 -0.74020438455E+01  0.67426000088E+02  0.67961421418E+02  0.41800000000E+01 0.  1.
         -5    1    3    3    0  502 -0.85968060876E+02  0.57331536828E+02 -0.45409333175E+01  0.10351572384E+03  0.41800000000E+01 0.  1.
        -11    1    1    2    0    0  0.82050395485E+01  0.26583418792E+02  0.18959542776E+02  0.33666973297E+02  0.00000000000E+00 0. -1.
         11    1    1    2    0    0  0.77286932877E+02 -0.76512911775E+02  0.69118071363E+02  0.12885962692E+03  0.00000000000E+00 0.  1.
</event>
<event>
 7    1  0.2394257E-009  0.1473903E+03  0.7561462E-02  0.1203717E+00
          2   -1    0    0  501    0  0.00000000000E+00  0.00000000000E+00  0.14304975049E+03  0.14304975049E+03  0.00000000000E+00 0. -1.
         -2   -1    0    0    0  501 -0.00000000000E+00 -0.00000000000E+00 -0.20305630589E+03  0.20305630589E+03  0.00000000000E+00 0.  1.
         25    2    1    2    0    0  0.13399384881E+03 -0.12131307316E+02 -0.47174525191E+02  0.18966675622E+03  0.12508606018E+03 0.  0.
          5    1    3    3  502    0  0.69911439130E+02 -0.43571540179E+02  0.26854688345E+02  0.86745231113E+02  0.41800000000E+01 0.  1.
         -5    1    3    3    0  502  0.64082409680E+02  0.31440232862E+02 -0.74029213536E+02  0.10292152510E+03  0.41800000000E+01 0.  1.
        -11    1    1    2    0    0 -0.37528712839E+02 -0.15265880529E+02  0.26837930311E+02  0.48597591494E+02  0.00000000000E+00 0. -1.
         11    1    1    2    0    0 -0.96465135971E+02  0.27397187846E+02 -0.39669960526E+02  0.10784170867E+03  0.00000000000E+00 0.  1.
</event>
<event>
 7    1  0.2461614E-009  0.1190727E+03  0.7561462E-02  0.1244635E+00
          2   -1    0    0  501    0  0.00000000000E+00  0.00000000000E+00  0.57527231417E+03  0.57527231417E+03  0.00000000000E+00 0. -1.
         -2   -1    0    0    0  501 -0.00000000000E+00 -0.00000000000E+00 -0.31068502732E+02  0.31068502732E+02  0.00000000000E+00 0.  1.
         25    2    1    2    0    0  0.12608684253E+01 -0.60616946524E+02  0.41237858318E+03  0.43517828262E+03  0.12509211727E+03 0.  0.
          5    1    3    3  502    0  0.17870679714E+02 -0.95658258743E+02  0.32923346339E+03  0.34333949594E+03  0.41800000000E+01 0. -1.
         -5    1    3    3    0  502 -0.16609811288E+02  0.35041312219E+02  0.83145119787E+02  0.91838786672E+02  0.41800000000E+01 0. -1.
        -11    1    1    2    0    0 -0.12214456093E+02 -0.18335064661E+02  0.71072288252E+01  0.23149087138E+02  0.00000000000E+00 0.  1.
         11    1    1    2    0    0  0.10953587668E+02  0.78952011185E+02  0.12471799943E+03  0.14801344714E+03  0.00000000000E+00 0. -1.
</event>
<event>
 7    1  0.2394257E-009  0.1914215E+03  0.7561462E-02  0.1157185E+00
          2   -1    0    0  501    0  0.00000000000E+00  0.00000000000E+00  0.66457505072E+03  0.66457505072E+03  0.00000000000E+00 0. -1.
         -2   -1    0    0    0  501 -0.00000000000E+00 -0.00000000000E+00 -0.10596201785E+03  0.10596201785E+03  0.00000000000E+00 0.  1.
         25    2    1    2    0    0 -0.14214794884E+03 -0.68619720017E+02  0.20526107400E+02  0.20244418995E+03  0.12509046177E+03 0.  0.
          5    1    3    3  502    0 -0.10359960097E+03  0.19102899967E+02  0.13257624372E+02  0.10625928248E+03  0.41800000000E+01 0.  1.
         -5    1    3    3    0  502 -0.38548347874E+02 -0.87722619985E+02  0.72684830284E+01  0.96184907477E+02  0.41800000000E+01 0.  1.
        -11    1    1    2    0    0  0.49495206648E+02 -0.19915705250E+02  0.13659889036E+03  0.14664810822E+03  0.00000000000E+00 0.  1.
         11    1    1    2    0    0  0.92652742197E+02  0.88535425267E+02  0.40148803511E+03  0.42144477040E+03  0.00000000000E+00 0. -1.
</event>
<event>
 7    1  0.2394257E-009  0.7592325E+02  0.7561462E-02  0.1341036E+00
         -3   -1    0    0    0  501 -0.00000000000E+00  0.00000000000E+00  0.97941469423E+02  0.97941469423E+02  0.00000000000E+00 0.  1.
          3   -1    0    0  501    0  0.00000000000E+00 -0.00000000000E+00 -0.12387656674E+03  0.12387656674E+03  0.00000000000E+00 0. -1.
         25    2    1    2    0    0 -0.11953936966E+02  0.83130384446E+01 -0.11343779582E+02  0.12643666541E+03  0.12508215623E+03 0.  0.
          5    1    3    3  502    0 -0.28374431888E+02 -0.26260776261E+02 -0.55553261875E+02  0.67811312181E+02  0.41800000000E+01 0. -1.
         -5    1    3    3    0  502  0.16420494922E+02  0.34573814705E+02  0.44209482293E+02  0.58625353230E+02  0.41800000000E+01 0. -1.
        -11    1    1    2    0    0  0.14614840309E+02 -0.40037152295E+02 -0.37007477951E+02  0.56445730977E+02  0.00000000000E+00 0. -1.
         11    1    1    2    0    0 -0.26609033432E+01  0.31724113851E+02  0.22416160214E+02  0.38935639778E+02  0.00000000000E+00 0.  1.
</event>
<event>
 7    1  0.2394257E-009  0.1730264E+03  0.7561462E-02  0.1174728E+00
         -1   -1    0    0    0  501 -0.00000000000E+00  0.00000000000E+00  0.51898967436E+02  0.51898967436E+02  0.00000000000E+00 0.  1.
          1   -1    0    0  501    0  0.00000000000E+00 -0.00000000000E+00 -0.71272208350E+03  0.71272208350E+03  0.00000000000E+00 0. -1.
         25    2    1    2    0    0  0.75857127127E+02 -0.13509484988E+03 -0.28428055540E+03  0.34708429781E+03  0.12508858226E+03 0.  0.
          5    1    3    3  502    0  0.94519030133E+02 -0.12158222273E+03 -0.16585443765E+03  0.22636530394E+03  0.41800000000E+01 0. -1.
         -5    1    3    3    0  502 -0.18661903007E+02 -0.13512627155E+02 -0.11842611775E+03  0.12071899387E+03  0.41800000000E+01 0. -1.
        -11    1    1    2    0    0 -0.21665820366E+02  0.10372468210E+03 -0.30274926306E+03  0.32075743753E+03  0.00000000000E+00 0. -1.
         11    1    1    2    0    0 -0.54191306760E+02  0.31370167782E+02 -0.73793297607E+02  0.96779315594E+02  0.00000000000E+00 0.  1.
</event>
<event>
 7    1  0.2394257E-009  0.9264711E+02  0.7561462E-02  0.1296565E+00
         -2   -1    0    0    0  501 -0.00000000000E+00  0.00000000000E+00  0.53513344629E+02  0.53513344629E+02  0.00000000000E+00 0.  1.
          2   -1    0    0  501    0  0.00000000000E+00 -0.00000000000E+00 -0.57701269300E+03  0.57701269300E+03  0.00000000000E+00 0. -1.
         25    2    1    2    0    0  0.60685945196E+02  0.20233646642E+02 -0.49650561944E+03  0.51600113131E+03  0.12508858049E+03 0.  0.
          5    1    3    3  502    0  0.58921275368E+02  0.25866468145E+01 -0.49409653785E+03  0.49762161182E+03  0.41800000000E+01 0. -1.
         -5    1    3    3    0  502  0.17646698276E+01  0.17646999828E+02 -0.24090815940E+01  0.18379519489E+02  0.41800000000E+01 0. -1.
        -11    1    1    2    0    0 -0.18589533197E+01 -0.44335456824E+02 -0.24975099013E+02  0.50919976532E+02  0.00000000000E+00 0. -1.
         11    1    1    2    0    0 -0.58826991876E+02  0.24101810182E+02 -0.20186299178E+01  0.63604929793E+02  0.00000000000E+00 0.  1.
</event>
<event>
 7    1  0.2394257E-009  0.1810445E+03  0.7561462E-02  0.1166796E+00
          1   -1    0    0  501    0  0.00000000000E+00  0.00000000000E+00  0.12495834157E+04  0.12495834157E+04  0.00000000000E+00 0. -1.
         -1   -1    0    0    0  501 -0.00000000000E+00 -0.00000000000E+00 -0.33763662673E+02  0.33763662673E+02  0.00000000000E+00 0.  1.
         25    2    1    2    0    0  0.16872689832E+03  0.36765334699E+02  0.68112822365E+03  0.71372512508E+03  0.12508973207E+03 0.  0.
          5    1    3    3  502    0  0.10046174651E+03  0.56851016740E+02  0.57082273353E+03  0.58239219271E+03  0.41800000000E+01 0. -1.
         -5    1    3    3    0  502  0.68265151810E+02 -0.20085682041E+02  0.11030549012E+03  0.13133293238E+03  0.41800000000E+01 0. -1.
        -11    1    1    2    0    0 -0.63779791144E+02 -0.29007060809E+02  0.35097817202E+03  0.35790354646E+03  0.00000000000E+00 0. -1.
         11    1    1    2    0    0 -0.10494710718E+03 -0.77582738895E+01  0.18371335735E+03  0.21171840683E+03  0.00000000000E+00 0.  1.
</event>
<event>
 7    1  0.2394257E-009  0.2293941E+03  0.7561462E-02  0.1127067E+00
          2   -1    0    0  501    0  0.00000000000E+00  0.00000000000E+00  0.17859699828E+03  0.17859699828E+03  0.00000000000E+00 0. -1.
         -2   -1    0    0    0  501 -0.00000000000E+00 -0.00000000000E+00 -0.31627197937E+03  0.31627197937E+03  0.00000000000E+00 0.  1.
         25    2    1    2    0    0  0.47959229768E+02 -0.20548969957E+03 -0.61499810646E+02  0.25289318841E+03  0.12508650481E+03 0.  0.
          5    1    3    3  502    0  0.87143203709E+02 -0.17179413000E+03 -0.56573641223E+02  0.20081138000E+03  0.41800000000E+01 0. -1.
         -5    1    3    3    0  502 -0.39183973942E+02 -0.33695569573E+02 -0.49261694226E+01  0.52081808416E+02  0.41800000000E+01 0. -1.
        -11    1    1    2    0    0 -0.35912909726E+01  0.96787781317E+02 -0.78304351904E+02  0.12454855885E+03  0.00000000000E+00 0.  1.
         11    1    1    2    0    0 -0.44367938795E+02  0.10870191826E+03  0.21291814607E+01  0.11742723040E+03  0.00000000000E+00 0. -1.
</event>
<event>
 7    1  0.2394257E-009  0.2224470E+03  0.7561462E-02  0.1132072E+00
         -1   -1    0    0    0  501 -0.00000000000E+00  0.00000000000E+00  0.59355929956E+02  0.59355929956E+02  0.00000000000E+00 0.  1.
          1   -1    0    0  501    0  0.00000000000E+00 -0.00000000000E+00 -0.98031317263E+03  0.98031317263E+03  0.00000000000E+00 0. -1.
         25    2    1    2    0    0  0.19696495093E+03  0.27967101263E+02 -0.29711148173E+03  0.37881043022E+03  0.12507901033E+03 0.  0.
          5    1    3    3  502    0  0.15864257280E+01 -0.26662461364E+02 -0.13870562394E+02  0.30385333530E+02  0.41800000000E+01 0.  1.
         -5    1    3    3    0  502  0.19537852520E+03  0.54629562628E+02 -0.28324091933E+03  0.34842509670E+03  0.41800000000E+01 0.  1.
        -11    1    1    2    0    0 -0.54300822273E+02  0.28722527029E+02 -0.23254589033E+03  0.24052266830E+03  0.00000000000E+00 0. -1.
         11    1    1    2    0    0 -0.14266412866E+03 -0.56689628293E+02 -0.39129987061E+03  0.42033600405E+03  0.00000000000E+00 0.  1.
</event>
<event>
 7    1  0.2394257E-009  0.1331684E+03  0.7561462E-02  0.1222829E+00
          2   -1    0    0  501    0  0.00000000000E+00  0.00000000000E+00  0.52757141469E+03  0.52757141469E+03  0.00000000000E+00 0.  1.
         -2   -1    0    0    0  501 -0.00000000000E+00 -0.00000000000E+00 -0.35516069734E+02  0.35516069734E+02  0.00000000000E+00 0. -1.
         25    2    1    2    0    0  0.81461980477E+02 -0.17275668239E+02  0.24296942230E+03  0.28568473340E+03  0.12508846369E+03 0.  0.
          5    1    3    3  502    0  0.50127431666E+02  0.49461246179E+02  0.79360340493E+02  0.10618243886E+03  0.41800000000E+01 0.  1.
         -5    1    3    3    0  502  0.31334548811E+02 -0.66736914418E+02  0.16360908181E+03  0.17950229454E+03  0.41800000000E+01 0.  1.
        -11    1    1    2    0    0 -0.24759998178E+02 -0.36297653848E+02  0.96527584935E+02  0.10605730450E+03  0.00000000000E+00 0.  1.
         11    1    1    2    0    0 -0.56701982299E+02  0.53573322087E+02  0.15255833772E+03  0.17134544652E+03  0.00000000000E+00 0. -1.
</event>
<event>
 7    1  0.2394257E-009  0.1849505E+03  0.7561462E-02  0.1163096E+00
         -1   -1    0    0    0  501 -0.00000000000E+00  0.00000000000E+00  0.63814332660E+03  0.63814332660E+03  0.00000000000E+00 0.  1.
          1   -1    0    0  501    0  0.00000000000E+00 -0.00000000000E+00 -0.63358211953E+02  0.63358211953E+02  0.00000000000E+00 0. -1.
         25    2    1    2    0    0  0.15548808089E+03 -0.40130061978E+02  0.21373835192E+03  0.29515729737E+03  0.12508709741E+03 0.  0.
          5    1    3    3  502    0  0.18556477584E+01 -0.39509946548E+02  0.88050835839E+02  0.96617293466E+02  0.41800000000E+01 0. -1.
         -5    1    3    3    0  502  0.15363243313E+03 -0.62011543047E+00  0.12568751608E+03  0.19854000390E+03  0.41800000000E+01 0. -1.
        -11    1    1    2    0    0 -0.78883022020E+02 -0.17222209051E+02  0.10136784527E+03  0.12959388760E+03  0.00000000000E+00 0. -1.
         11    1    1    2    0    0 -0.76605058870E+02  0.57352271029E+02  0.25967891746E+03  0.27675035359E+03  0.00000000000E+00 0.  1.
</event>
<event>
 7    1  0.2394257E-009  0.1960144E+03  0.7561462E-02  0.1153146E+00
          1   -1    0    0  501    0  0.00000000000E+00  0.00000000000E+00  0.25879329125E+04  0.25879329125E+04  0.00000000000E+00 0. -1.
         -1   -1    0    0    0  501 -0.00000000000E+00 -0.00000000000E+00 -0.35447522227E+02  0.35447522227E+02  0.00000000000E+00 0.  1.
         25    2    1    2    0    0 -0.12707440446E+03  0.11998731058E+03  0.22656795367E+04  0.22758505144E+04  0.12508773568E+03 0.  0.
          5    1    3    3  502    0 -0.70293620518E+02  0.13823308811E+03  0.16330461580E+04  0.16403983682E+04  0.41800000000E+01 0. -1.
         -5    1    3    3    0  502 -0.56780783941E+02 -0.18245777535E+02  0.63263337872E+03  0.63545214618E+03  0.41800000000E+01 0. -1.
        -11    1    1    2    0    0  0.61845011760E+02 -0.77954754640E+02  0.83437594511E+02  0.12985985303E+03  0.00000000000E+00 0.  1.
         11    1    1    2    0    0  0.65229392699E+02 -0.42032555938E+02  0.20336825902E+03  0.21767006732E+03  0.00000000000E+00 0. -1.
</event>
<event>
 7    1  0.2394257E-009  0.9599036E+02  0.7561462E-02  0.1288961E+00
         -2   -1    0    0    0  501 -0.00000000000E+00  0.00000000000E+00  0.61389432309E+03  0.61389432309E+03  0.00000000000E+00 0.  1.
          2   -1    0    0  501    0  0.00000000000E+00 -0.00000000000E+00 -0.30121030284E+02  0.30121030284E+02  0.00000000000E+00 0. -1.
         25    2    1    2    0    0  0.52050897988E+02  0.14857966065E+01  0.46056362718E+03  0.48008067303E+03  0.12508834626E+03 0.  0.
          5    1    3    3  502    0 -0.26783031432E+02 -0.15040382879E+02  0.28725596844E+03  0.28892387872E+03  0.41800000000E+01 0. -1.
         -5    1    3    3    0  502  0.78833929420E+02  0.16526179485E+02  0.17330765873E+03  0.19115679431E+03  0.41800000000E+01 0. -1.
        -11    1    1    2    0    0  0.90974890358E+01 -0.15146673616E+02  0.92472906408E+02  0.94145761709E+02  0.00000000000E+00 0.  1.
         11    1    1    2    0    0 -0.61148387024E+02  0.13660877009E+02  0.30736759224E+02  0.69788918632E+02  0.00000000000E+00 0. -1.
</event>
<event>
 7    1  0.2394257E-009  0.9729402E+02  0.7561462E-02  0.1286091E+00
          1   -1    0    0  501    0  0.00000000000E+00  0.00000000000E+00  0.30648196492E+03  0.30648196492E+03  0.00000000000E+00 0. -1.
         -1   -1    0    0    0  501 -0.00000000000E+00 -0.00000000000E+00 -0.52639485202E+02  0.52639485202E+02  0.00000000000E+00 0.  1.
         25    2    1    2    0    0 -0.42011658687E+02 -0.46058444038E+02  0.17323949774E+03  0.22259099609E+03  0.12509383770E+03 0.  0.
          5    1    3    3  502    0 -0.69239679620E+02  0.97057592566E+01  0.12719672159E+03  0.14520610655E+03  0.41800000000E+01 0. -1.
         -5    1    3    3    0  502  0.27228020933E+02 -0.55764203295E+02  0.46042776152E+02  0.77384889538E+02  0.41800000000E+01 0. -1.
        -11    1    1    2    0    0  0.29364786875E+02  0.31476245918E+02 -0.97510703018E+01  0.44137604571E+02  0.00000000000E+00 0.  1.
         11    1    1    2    0    0  0.12646871812E+02  0.14582198121E+02  0.90354052275E+02  0.92392849459E+02  0.00000000000E+00 0. -1.
</event>
<event>
 7    1  0.2394257E-009  0.1251403E+03  0.7561462E-02  0.1234850E+00
         -2   -1    0    0    0  501 -0.00000000000E+00  0.00000000000E+00  0.27090573957E+02  0.27090573957E+02  0.00000000000E+00 0.  1.
          2   -1    0    0  501    0  0.00000000000E+00 -0.00000000000E+00 -0.10232135909E+04  0.10232135909E+04  0.00000000000E+00 0. -1.
         25    2    1    2    0    0 -0.75172549761E+02  0.47425246808E+02 -0.81022492282E+03  0.82462865521E+03  0.12509167499E+03 0.  0.
          5    1    3    3  502    0 -0.70438527814E+02  0.79164357986E+02 -0.73674626137E+03  0.74433937677E+03  0.41800000000E+01 0. -1.
         -5    1    3    3    0  502 -0.47340219466E+01 -0.31739111177E+02 -0.73478661459E+02  0.80289278437E+02  0.41800000000E+01 0. -1.
        -11    1    1    2    0    0 -0.47719452055E+01  0.11570480716E+02  0.24264007466E+01  0.12748917822E+02  0.00000000000E+00 0.  1.
         11    1    1    2    0    0  0.79944494966E+02 -0.58995727524E+02 -0.18832449487E+03  0.21292659183E+03  0.00000000000E+00 0. -1.
</event>
<event>
 7    1  0.2394257E-009  0.8626756E+02  0.7561462E-02  0.1312151E+00
          1   -1    0    0  501    0  0.00000000000E+00  0.00000000000E+00  0.14244986719E+03  0.14244986719E+03  0.00000000000E+00 0. -1.
         -1   -1    0    0    0  501 -0.00000000000E+00 -0.00000000000E+00 -0.92827508646E+02  0.92827508646E+02  0.00000000000E+00 0.  1.
         25    2    1    2    0    0 -0.68247808787E+01 -0.11051063451E+02 -0.76693789178E+01  0.12599684442E+03  0.12509069427E+03 0.  0.
          5    1    3    3  502    0  0.33208919442E+02 -0.55329279642E+02  0.49029904222E+01  0.64851162143E+02  0.41800000000E+01 0.  1.
         -5    1    3    3    0  502 -0.40033700321E+02  0.44278216191E+02 -0.12572369340E+02  0.61145682278E+02  0.41800000000E+01 0.  1.
        -11    1    1    2    0    0 -0.16524154004E+02  0.17234779101E+02 -0.18197930289E+02  0.30020825155E+02  0.00000000000E+00 0.  1.
         11    1    1    2    0    0  0.23348934882E+02 -0.61837156502E+01  0.75489667754E+02  0.79259706264E+02  0.00000000000E+00 0. -1.
</event>
<event>
 7    1  0.2394257E-009  0.1154808E+03  0.7561462E-02  0.1250744E+00
          1   -1    0    0  501    0  0.00000000000E+00  0.00000000000E+00  0.25039190560E+03  0.25039190560E+03  0.00000000000E+00 0. -1.
         -1   -1    0    0    0  501 -0.00000000000E+00 -0.00000000000E+00 -0.69386639901E+02  0.69386639901E+02  0.00000000000E+00 0.  1.
         25    2    1    2    0    0 -0.47971682702E+02 -0.51720343408E+02  0.78591394422E+02  0.16369566509E+03  0.12507352728E+03 0.  0.
          5    1    3    3  502    0  0.41264922897E+02 -0.11928927929E+02  0.10165160847E+02  0.44338426655E+02  0.41800000000E+01 0.  1.
         -5    1    3    3    0  502 -0.89236605598E+02 -0.39791415478E+02  0.68426233575E+02  0.11935723843E+03  0.41800000000E+01 0.  1.
        -11    1    1    2    0    0 -0.77712289903E+01  0.28641224599E+02 -0.75799054354E+01  0.30629507227E+02  0.00000000000E+00 0.  1.
         11    1    1    2    0    0  0.55742911692E+02  0.23079118808E+02  0.10999377672E+03  0.12545337319E+03  0.00000000000E+00 0. -1.
</event>
<event>
 7    1  0.2394257E-009  0.1055859E+03  0.7561462E-02  0.1268969E+00
         -2   -1    0    0    0  501 -0.00000000000E+00  0.00000000000E+00  0.43099883818E+02  0.43099883818E+02  0.00000000000E+00 0.  1.
          2   -1    0    0  501    0  0.00000000000E+00 -0.00000000000E+00 -0.31115171474E+03  0.31115171474E+03  0.00000000000E+00 0. -1.
         25    2    1    2    0    0  0.39695694839E+02  0.84420496225E+01 -0.14288869208E+03  0.19419524064E+03  0.12509035443E+03 0.  0.
          5    1    3    3  502    0  0.41393074554E+02 -0.47351719871E+02 -0.11617232752E+03  0.13217054921E+03  0.41800000000E+01 0.  1.
         -5    1    3    3    0  502 -0.16973797146E+01  0.55793769494E+02 -0.26716364559E+02  0.62024691434E+02  0.41800000000E+01 0.  1.
        -11    1    1    2    0    0 -0.45585819997E+02  0.29152719286E+02 -0.41655321711E+02  0.68286996225E+02  0.00000000000E+00 0.  1.
         11    1    1    2    0    0  0.58901251582E+01 -0.37594768908E+02 -0.83507817122E+02  0.91769361685E+02  0.00000000000E+00 0. -1.
</event>
<event>
 7    1  0.2461993E-009  0.1446730E+03  0.7561462E-02  0.1207176E+00
          1   -1    0    0  501    0  0.00000000000E+00  0.00000000000E+00  0.13750604855E+04  0.13750604855E+04  0.00000000000E+00 0. -1.
         -1   -1    0    0    0  501 -0.00000000000E+00 -0.00000000000E+00 -0.23497939006E+02  0.23497939006E+02  0.00000000000E+00 0.  1.
         25    2    1    2    0    0 -0.87379664751E+02 -0.11133661163E+03  0.79491768406E+03  0.81705082079E+03  0.12508745912E+03 0.  0.
          5    1    3    3  502    0 -0.83999196488E+02 -0.95980788066E+02  0.78972953137E+03  0.79997398820E+03  0.41800000000E+01 0. -1.
         -5    1    3    3    0  502 -0.33804682630E+01 -0.15355823562E+02  0.51881526907E+01  0.17076832589E+02  0.41800000000E+01 0. -1.
        -11    1    1    2    0    0  0.27158036460E+02  0.12903995593E+02  0.30392882792E+02  0.42752770332E+02  0.00000000000E+00 0. -1.
         11    1    1    2    0    0  0.60221628292E+02  0.98432616034E+02  0.52625197965E+03  0.53875483339E+03  0.00000000000E+00 0.  1.
</event>
<event>
 7    1  0.2394257E-009  0.3199430E+03  0.7561462E-02  0.1075676E+00
          2   -1    0    0  501    0  0.00000000000E+00  0.00000000000E+00  0.19166722625E+04  0.19166722625E+04  0.00000000000E+00 0. -1.
         -2   -1    0    0    0  501 -0.00000000000E+00 -0.00000000000E+00 -0.56659330585E+02  0.56659330585E+02  0.00000000000E+00 0.  1.
         25    2    1    2    0    0  0.21802662241E+03  0.21042514054E+03  0.11457109941E+04  0.11916859380E+04  0.12508934837E+03 0.  0.
          5    1    3    3  502    0 -0.96869948155E+00  0.61338723782E+02  0.26137728210E+03  0.26851244554E+03  0.41800000000E+01 0. -1.
         -5    1    3    3    0  502  0.21899532189E+03  0.14908641676E+03  0.88433371200E+03  0.92317349250E+03  0.41800000000E+01 0. -1.
        -11    1    1    2    0    0 -0.88033134217E+01 -0.47370847506E+02  0.71031426327E+02  0.85830991178E+02  0.00000000000E+00 0.  1.
         11    1    1    2    0    0 -0.20922330898E+03 -0.16305429303E+03  0.64327051146E+03  0.69581466384E+03  0.00000000000E+00 0. -1.
</event>
<event>
 7    1  0.2394257E-009  0.1580798E+03  0.7561462E-02  0.1190882E+00
         -1   -1    0    0    0  501 -0.00000000000E+00  0.00000000000E+00  0.71515955158E+02  0.71515955158E+02  0.00000000000E+00 0.  1.
          1   -1    0    0  501    0  0.00000000000E+00 -0.00000000000E+00 -0.72219533270E+03  0.72219533270E+03  0.00000000000E+00 0. -1.
         25    2    1    2    0    0 -0.11582939002E+03 -0.31250523133E+02 -0.61207149991E+03  0.63614220405E+03  0.12510931210E+03 0.  0.
          5    1    3    3  502    0 -0.12881741392E+03 -0.52314939611E+02 -0.41991710155E+03  0.44235576588E+03  0.41800000000E+01 0.  1.
         -5    1    3    3    0  502  0.12988023897E+02  0.21064416478E+02 -0.19215439837E+03  0.19378643817E+03  0.41800000000E+01 0.  1.
        -11    1    1    2    0    0  0.69371996797E+02  0.64587093881E+02 -0.31843160107E+02  0.99989766883E+02  0.00000000000E+00 0. -1.
         11    1    1    2    0    0  0.46457393221E+02 -0.33336570748E+02 -0.67647175154E+01  0.57579316922E+02  0.00000000000E+00 0.  1.
</event>
<event>
 7    1  0.2394257E-009  0.8672757E+02  0.7561462E-02  0.1310976E+00
         -2   -1    0    0    0  501 -0.00000000000E+00  0.00000000000E+00  0.31013163891E+03  0.31013163891E+03  0.00000000000E+00 0.  1.
          2   -1    0    0  501    0  0.00000000000E+00 -0.00000000000E+00 -0.49655493841E+02  0.49655493841E+02  0.00000000000E+00 0. -1.
         25    2    1    2    0    0 -0.51142943430E+02 -0.50817149826E+01  0.99965728607E+02  0.16817313215E+03  0.12509049121E+03 0.  0.
          5    1    3    3  502    0 -0.70383071926E+01  0.17858263372E+02  0.11452910545E+03  0.11620173723E+03  0.41800000000E+01 0. -1.
         -5    1    3    3    0  502 -0.44104636238E+02 -0.22939978355E+02 -0.14563376846E+02  0.51971394918E+02  0.41800000000E+01 0. -1.
        -11    1    1    2    0    0  0.73040452541E+02  0.21963628378E+02  0.12730089632E+03  0.14840089920E+03  0.00000000000E+00 0.  1.
         11    1    1    2    0    0 -0.21897509110E+02 -0.16881913395E+02  0.33209520140E+02  0.43213101405E+02  0.00000000000E+00 0. -1.
</event>
<event>
 7    1  0.2394257E-009  0.2300345E+03  0.7561462E-02  0.1126616E+00
          1   -1    0    0  501    0  0.00000000000E+00  0.00000000000E+00  0.39527473158E+03  0.39527473158E+03  0.00000000000E+00 0. -1.
         -1   -1    0    0    0  501 -0.00000000000E+00 -0.00000000000E+00 -0.15108722700E+03  0.15108722700E+03  0.00000000000E+00 0.  1.
         25    2    1    2    0    0 -0.20792189262E+03 -0.62543812577E+02  0.12168354782E+03  0.27856229039E+03  0.12508725712E+03 0.  0.
          5    1    3    3  502    0 -0.41746155139E+02  0.30745917605E+02 -0.73639822708E+00  0.52019876976E+02  0.41800000000E+01 0. -1.
         -5    1    3    3    0  502 -0.16617573748E+03 -0.93289730183E+02  0.12241994605E+03  0.22654241341E+03  0.41800000000E+01 0. -1.
        -11    1    1    2    0    0  0.11102866266E+03  0.27322695873E+02  0.93505421227E+01  0.11472282370E+03  0.00000000000E+00 0.  1.
         11    1    1    2    0    0  0.96893229965E+02  0.35221116704E+02  0.11315341463E+03  0.15307684449E+03  0.00000000000E+00 0. -1.
</event>
<event>
 7    1  0.2394257E-009  0.1741635E+03  0.7561462E-02  0.1173574E+00
         -2   -1    0    0    0  501 -0.00000000000E+00  0.00000000000E+00  0.22007414854E+02  0.22007414854E+02  0.00000000000E+00 0.  1.
          2   -1    0    0  501    0  0.00000000000E+00 -0.00000000000E+00 -0.17815211882E+04  0.17815211882E+04  0.00000000000E+00 0. -1.
         25    2    1    2    0    0 -0.13082772056E+03  0.64060970027E+02 -0.12676608818E+04  0.12821201629E+04  0.12509316718E+03 0.  0.
          5    1    3    3  502    0 -0.42007712652E+02  0.77326691230E+02 -0.38795611530E+03  0.39783348891E+03  0.41800000000E+01 0.  1.
         -5    1    3    3    0  502 -0.88820007904E+02 -0.13265721203E+02 -0.87970476648E+03  0.88428667395E+03  0.41800000000E+01 0.  1.
        -11    1    1    2    0    0  0.61870585780E+02  0.16744102287E+02 -0.14227198166E+03  0.15604374743E+03  0.00000000000E+00 0.  1.
         11    1    1    2    0    0  0.68957134776E+02 -0.80805072314E+02 -0.34958090994E+03  0.36536469280E+03  0.00000000000E+00 0. -1.
</event>
<event>
 7    1  0.2394257E-009  0.9470932E+02  0.7561462E-02  0.1291832E+00
          1   -1    0    0  501    0  0.00000000000E+00  0.00000000000E+00  0.22772713626E+03  0.22772713626E+03  0.00000000000E+00 0. -1.
         -1   -1    0    0    0  501 -0.00000000000E+00 -0.00000000000E+00 -0.45450524479E+02  0.45450524479E+02  0.00000000000E+00 0.  1.
         25    2    1    2    0    0 -0.86522211984E+01 -0.14113650743E+02  0.13137643628E+03  0.18215785767E+03  0.12509061129E+03 0.  0.
          5    1    3    3  502    0  0.49100569813E+02 -0.24792320565E+02  0.24980163844E+02  0.60555809801E+02  0.41800000000E+01 0. -1.
         -5    1    3    3    0  502 -0.57752791011E+02  0.10678669822E+02  0.10639627243E+03  0.12160204787E+03  0.41800000000E+01 0. -1.
        -11    1    1    2    0    0  0.16942471551E+02  0.42526592765E+02  0.32974873883E+02  0.56417202536E+02  0.00000000000E+00 0. -1.
         11    1    1    2    0    0 -0.82902503529E+01 -0.28412942022E+02  0.17925301618E+02  0.34602600529E+02  0.00000000000E+00 0.  1.
</event>
<event>
 7    1  0.2394257E-009  0.1211816E+03  0.7561462E-02  0.1241160E+00
         -1   -1    0    0    0  501 -0.00000000000E+00  0.00000000000E+00  0.18565125820E+03  0.18565125820E+03  0.00000000000E+00 0. -1.
          1   -1    0    0  501    0  0.00000000000E+00 -0.00000000000E+00 -0.20884749935E+03  0.20884749935E+03  0.00000000000E+00 0.  1.
         25    2    1    2    0    0  0.74322085903E+02  0.51337922368E+02 -0.14869377098E+03  0.21427940159E+03  0.12508584929E+03 0.  0.
          5    1    3    3  502    0  0.13956341519E+02 -0.29175791734E+02 -0.94370304715E+02  0.99846047012E+02  0.41800000000E+01 0. -1.
         -5    1    3    3    0  502  0.60365744384E+02  0.80513714102E+02 -0.54323466262E+02  0.11443335458E+03  0.41800000000E+01 0. -1.
        -11    1    1    2    0    0 -0.85246721841E+02 -0.44768476359E+02  0.13391907409E+03  0.16494101511E+03  0.00000000000E+00 0. -1.
         11    1    1    2    0    0  0.10924635937E+02 -0.65694460090E+01 -0.84215442700E+01  0.15278340850E+02  0.00000000000E+00 0.  1.
</event>
<event>
 7    1  0.2394257E-009  0.1057567E+03  0.7561462E-02  0.1268636E+00
          2   -1    0    0  501    0  0.00000000000E+00  0.00000000000E+00  0.41342045982E+03  0.41342045982E+03  0.00000000000E+00 0. -1.
         -2   -1    0    0    0  501 -0.00000000000E+00 -0.00000000000E+00 -0.46582908223E+02  0.46582908223E+02  0.00000000000E+00 0.  1.
         25    2    1    2    0    0  0.64267469121E+02  0.18653527432E+01  0.29443389229E+03  0.32630155528E+03  0.12509037101E+03 0.  0.
          5    1    3    3  502    0 -0.30808065247E+02 -0.23365132571E+01  0.15052763322E+03  0.15372259737E+03  0.41800000000E+01 0. -1.
         -5    1    3    3    0  502  0.95075534369E+02  0.42018660003E+01  0.14390625907E+03  0.17257895791E+03  0.41800000000E+01 0. -1.
        -11    1    1    2    0    0 -0.46836704059E+02 -0.27321723209E+02  0.84633878901E+02  0.10051391378E+03  0.00000000000E+00 0. -1.
         11    1    1    2    0    0 -0.17430765063E+02  0.25456370466E+02 -0.12230219591E+02  0.33187898987E+02  0.00000000000E+00 0.  1.
</event>
<event>
 7    1  0.2394257E-009  0.1129011E+03  0.7561462E-02  0.1255290E+00
         -1   -1    0    0    0  501 -0.00000000000E+00  0.00000000000E+00  0.66703946616E+02  0.66703946616E+02  0.00000000000E+00 0.  1.
          1   -1    0    0  501    0  0.00000000000E+00 -0.00000000000E+00 -0.29992581974E+03  0.29992581974E+03  0.00000000000E+00 0. -1.
         25    2    1    2    0    0  0.44862562016E+02 -0.62119350402E+02 -0.66387516581E+02  0.16101300048E+03  0.12508565386E+03 0.  0.
          5    1    3    3  502    0  0.81513191684E+02 -0.27418107683E+02 -0.12403123294E+02  0.86991165729E+02  0.41800000000E+01 0. -1.
         -5    1    3    3    0  502 -0.36650629668E+02 -0.34701242719E+02 -0.53984393287E+02  0.74021834750E+02  0.41800000000E+01 0. -1.
        -11    1    1    2    0    0  0.94441960482E+01  0.10626695162E+02  0.73728171703E+01  0.16014928101E+02  0.00000000000E+00 0.  1.
         11    1    1    2    0    0 -0.54306758064E+02  0.51492655240E+02 -0.17420717371E+03  0.18960183777E+03  0.00000000000E+00 0. -1.
</event>
<event>
 7    1  0.2394257E-009  0.2387972E+03  0.7561462E-02  0.1120597E+00
          1   -1    0    0  501    0  0.00000000000E+00  0.00000000000E+00  0.18060950160E+04  0.18060950160E+04  0.00000000000E+00 0.  1.
         -1   -1    0    0    0  501 -0.00000000000E+00 -0.00000000000E+00 -0.52994758266E+02  0.52994758266E+02  0.00000000000E+00 0. -1.
         25    2    1    2    0    0  0.13392429437E+03 -0.17883714916E+03  0.14576380845E+04  0.14799572202E+04  0.12508455334E+03 0.  0.
          5    1    3    3  502    0  0.21856608436E+01 -0.10007674624E+03  0.48103991246E+03  0.49136239379E+03  0.41800000000E+01 0. -1.
         -5    1    3    3    0  502  0.13173863353E+03 -0.78760402917E+02  0.97659817207E+03  0.98859482637E+03  0.41800000000E+01 0. -1.
        -11    1    1    2    0    0 -0.84147155893E+02  0.10086684114E+03  0.10787193055E+03  0.16997416535E+03  0.00000000000E+00 0. -1.
         11    1    1    2    0    0 -0.49777138479E+02  0.77970308020E+02  0.18759024266E+03  0.20915838876E+03  0.00000000000E+00 0.  1.
</event>
<event>
 7    1  0.2394257E-009  0.1374294E+03  0.7561462E-02  0.1216830E+00
         -2   -1    0    0    0  501 -0.00000000000E+00  0.00000000000E+00  0.18119791253E+02  0.18119791253E+02  0.00000000000E+00 0.  1.
          2   -1    0    0  501    0  0.00000000000E+00 -0.00000000000E+00 -0.11839606062E+04  0.11839606062E+04  0.00000000000E+00 0. -1.
         25    2    1    2    0    0  0.72600119894E+02  0.51704901319E+02 -0.79864903008E+03  0.81328454111E+03  0.12508915755E+03 0.  0.
          5    1    3    3  502    0  0.24847658460E+02 -0.41309212790E+02 -0.28614489744E+03  0.29020722238E+03  0.41800000000E+01 0.  1.
         -5    1    3    3    0  502  0.47752461434E+02  0.93014114109E+02 -0.51250413264E+03  0.52307731873E+03  0.41800000000E+01 0.  1.
        -11    1    1    2    0    0 -0.41403368460E+02  0.18241706151E+02 -0.19757917092E+03  0.20269318574E+03  0.00000000000E+00 0. -1.
         11    1    1    2    0    0 -0.31196751435E+02 -0.69946607469E+02 -0.16961261397E+03  0.18610267063E+03  0.00000000000E+00 0.  1.
</event>
<event>
 7    1  0.2394257E-009  0.1066380E+03  0.7561462E-02  0.1266925E+00
         -3   -1    0    0    0  501 -0.00000000000E+00  0.00000000000E+00  0.27822962293E+02  0.27822962293E+02  0.00000000000E+00 0.  1.
          3   -1    0    0  501    0  0.00000000000E+00 -0.00000000000E+00 -0.63070427910E+03  0.63070427910E+03  0.00000000000E+00 0. -1.
         25    2    1    2    0    0  0.38513991629E+01 -0.75165406816E+02 -0.32535923614E+03  0.35661110470E+03  0.12509266884E+03 0.  0.
          5    1    3    3  502    0  0.35169607112E+02 -0.94187069045E+02 -0.28347056014E+03  0.30080082464E+03  0.41800000000E+01 0. -1.
         -5    1    3    3    0  502 -0.31318207949E+02  0.19021662230E+02 -0.41888676004E+02  0.55810280061E+02  0.41800000000E+01 0. -1.
        -11    1    1    2    0    0  0.27499162514E+01  0.15636792258E+02  0.20426673403E+01  0.16007616980E+02  0.00000000000E+00 0.  1.
         11    1    1    2    0    0 -0.66013154143E+01  0.59528614558E+02 -0.27956474801E+03  0.28590851971E+03  0.00000000000E+00 0. -1.
</event>
<event>
 7    1  0.2394257E-009  0.1738439E+03  0.7561462E-02  0.1173898E+00
          1   -1    0    0  501    0  0.00000000000E+00  0.00000000000E+00  0.82732771727E+02  0.82732771727E+02  0.00000000000E+00 0. -1.
         -1   -1    0    0    0  501 -0.00000000000E+00 -0.00000000000E+00 -0.49215463767E+03  0.49215463767E+03  0.00000000000E+00 0.  1.
         25    2    1    2    0    0  0.14516196331E+03 -0.55372463674E+02 -0.13053832153E+03  0.23838414202E+03  0.12509452607E+03 0.  0.
          5    1    3    3  502    0  0.43456935141E+02 -0.75900277733E+02 -0.26718110292E+02  0.91546093250E+02  0.41800000000E+01 0.  1.
         -5    1    3    3    0  502  0.10170502817E+03  0.20527814059E+02 -0.10382021124E+03  0.14683804877E+03  0.41800000000E+01 0.  1.
        -11    1    1    2    0    0 -0.59232198970E+02  0.13747940050E+02 -0.21037767847E+03  0.21898910212E+03  0.00000000000E+00 0.  1.
         11    1    1    2    0    0 -0.85929764340E+02  0.41624523623E+02 -0.68505865945E+02  0.11751416525E+03  0.00000000000E+00 0. -1.
</event>
<event>
 7    1  0.2394257E-009  0.9187420E+02  0.7561462E-02  0.1298375E+00
          4   -1    0    0  501    0  0.00000000000E+00  0.00000000000E+00  0.11751359981E+03  0.11751359981E+03  0.00000000000E+00 0. -1.
         -4   -1    0    0    0  501 -0.00000000000E+00 -0.00000000000E+00 -0.13776457963E+03  0.13776457963E+03  0.00000000000E+00 0.  1.
         25    2    1    2    0    0 -0.19839070435E+02 -0.26367146192E+02 -0.69880764099E+02  0.14703185799E+03  0.12508489501E+03 0.  0.
          5    1    3    3  502    0 -0.43668980573E+02  0.39167779382E+02 -0.24383040972E+02  0.63663960709E+02  0.41800000000E+01 0. -1.
         -5    1    3    3    0  502  0.23829910139E+02 -0.65534925575E+02 -0.45497723126E+02  0.83367897280E+02  0.41800000000E+01 0. -1.
        -11    1    1    2    0    0  0.48984623116E+00  0.34201902206E+02 -0.17161267052E+02  0.38269036448E+02  0.00000000000E+00 0.  1.
         11    1    1    2    0    0  0.19349224203E+02 -0.78347560136E+01  0.66791051328E+02  0.69977285004E+02  0.00000000000E+00 0. -1.
</event>
<event>
 7    1  0.2394257E-009  0.9171731E+02  0.7561462E-02  0.1298745E+00
         -2   -1    0    0    0  501 -0.00000000000E+00  0.00000000000E+00  0.81899437333E+02  0.81899437333E+02  0.00000000000E+00 0.  1.
          2   -1    0    0  501    0  0.00000000000E+00 -0.00000000000E+00 -0.26273748860E+03  0.26273748860E+03  0.00000000000E+00 0. -1.
         25    2    1    2    0    0 -0.11885408123E+02  0.36809045383E+02  0.83624426581E+01  0.13121674537E+03  0.12510689458E+03 0.  0.
          5    1    3    3  502    0 -0.27488736280E+02  0.57116414750E+02 -0.40889806538E+02  0.75547098786E+02  0.41800000000E+01 0.  1.
         -5    1    3    3    0  502  0.15603328157E+02 -0.20307369368E+02  0.49252249196E+02  0.55669646587E+02  0.41800000000E+01 0.  1.
        -11    1    1    2    0    0  0.22273173490E+02  0.23725426240E+02 -0.36889149122E+02  0.49191456886E+02  0.00000000000E+00 0. -1.
         11    1    1    2    0    0 -0.10387765367E+02 -0.60534471623E+02 -0.15231134481E+03  0.16422872368E+03  0.00000000000E+00 0.  1.
</event>
<event>
 7    1  0.2394257E-009  0.1040129E+03  0.7561462E-02  0.1272077E+00
         -1   -1    0    0    0  501 -0.00000000000E+00  0.00000000000E+00  0.38132978072E+02  0.38132978072E+02  0.00000000000E+00 0.  1.
          1   -1    0    0  501    0  0.00000000000E+00 -0.00000000000E+00 -0.30456347203E+03  0.30456347203E+03  0.00000000000E+00 0. -1.
         25    2    1    2    0    0 -0.23564149967E+02 -0.11205379752E+02 -0.17852447773E+03  0.21954079887E+03  0.12508534496E+03 0.  0.
          5    1    3    3  502    0 -0.28595860587E+02  0.54452267409E+02 -0.80939919257E+02  0.10174239823E+03  0.41800000000E+01 0.  1.
         -5    1    3    3    0  502  0.50317106200E+01 -0.65657647161E+02 -0.97584558468E+02  0.11779840064E+03  0.41800000000E+01 0.  1.
        -11    1    1    2    0    0  0.80791533866E+01  0.43679243655E+02 -0.25765335327E+02  0.51351743400E+02  0.00000000000E+00 0.  1.
         11    1    1    2    0    0  0.15484996581E+02 -0.32473863903E+02 -0.62140680910E+02  0.71803907831E+02  0.00000000000E+00 0. -1.
</event>
<event>
 7    1  0.2394257E-009  0.8032751E+02  0.7561462E-02  0.1328125E+00
          4   -1    0    0  501    0  0.00000000000E+00  0.00000000000E+00  0.19508436702E+03  0.19508436702E+03  0.00000000000E+00 0. -1.
         -4   -1    0    0    0  501 -0.00000000000E+00 -0.00000000000E+00 -0.63237098269E+02  0.63237098269E+02  0.00000000000E+00 0.  1.
         25    2    1    2    0    0 -0.17153722631E+02  0.17415653478E+02  0.48566821906E+02  0.13639243416E+03  0.12508638903E+03 0.  0.
          5    1    3    3  502    0 -0.57003237895E+02  0.24443422926E+02  0.67291206680E+02  0.91610201131E+02  0.41800000000E+01 0.  1.
         -5    1    3    3    0  502  0.39849515264E+02 -0.70277694476E+01 -0.18724384774E+02  0.44782233032E+02  0.41800000000E+01 0.  1.
        -11    1    1    2    0    0  0.35622213329E+02 -0.60677561393E+01  0.91786624717E+02  0.98643520943E+02  0.00000000000E+00 0. -1.
         11    1    1    2    0    0 -0.18468490699E+02 -0.11347897339E+02 -0.85061778676E+01  0.23285510186E+02  0.00000000000E+00 0.  1.
</event>
<event>
 7    1  0.2394257E-009  0.8018274E+02  0.7561462E-02  0.1328534E+00
          4   -1    0    0  501    0  0.00000000000E+00  0.00000000000E+00  0.20458497838E+03  0.20458497838E+03  0.00000000000E+00 0. -1.
         -4   -1    0    0    0  501 -0.00000000000E+00 -0.00000000000E+00 -0.85661735885E+02  0.85661735885E+02  0.00000000000E+00 0.  1.
         25    2    1    2    0    0  0.35689036281E+01  0.56241395765E+02  0.11981417813E+03  0.18215242227E+03  0.12509290941E+03 0.  0.
          5    1    3    3  502    0  0.41066333557E+02  0.22647939075E+02 -0.51491693541E+01  0.47364113432E+02  0.41800000000E+01 0. -1.
         -5    1    3    3    0  502 -0.37497429929E+02  0.33593456690E+02  0.12496334749E+03  0.13478830884E+03  0.41800000000E+01 0. -1.
        -11    1    1    2    0    0 -0.14392194207E+02 -0.44618928739E+02 -0.42673209778E+02  0.63395480034E+02  0.00000000000E+00 0.  1.
         11    1    1    2    0    0  0.10823290579E+02 -0.11622467026E+02  0.41782274141E+02  0.44698811965E+02  0.00000000000E+00 0. -1.
</event>
<event>
 7    1  0.2394257E-009  0.6874509E+02  0.7561462E-02  0.1364413E+00
          1   -1    0    0  501    0  0.00000000000E+00  0.00000000000E+00  0.25422529457E+03  0.25422529457E+03  0.00000000000E+00 0. -1.
         -1   -1    0    0    0  501 -0.00000000000E+00 -0.00000000000E+00 -0.56385407619E+02  0.56385407619E+02  0.00000000000E+00 0.  1.
         25    2    1    2    0    0 -0.29453331442E+02 -0.41636407899E+02  0.12366228223E+03  0.18314106738E+03  0.12508877375E+03 0.  0.
          5    1    3    3  502    0 -0.32824630741E+01  0.19134915338E+02 -0.17955185818E+02  0.26772759413E+02  0.41800000000E+01 0.  1.
         -5    1    3    3    0  502 -0.26170868368E+02 -0.60771323237E+02  0.14161746805E+03  0.15636830796E+03  0.41800000000E+01 0.  1.
        -11    1    1    2    0    0  0.11004470074E+02  0.10933214507E+02  0.87790512442E+02  0.89150477373E+02  0.00000000000E+00 0. -1.
         11    1    1    2    0    0  0.18448861368E+02  0.30703193392E+02 -0.13612907720E+02  0.38319157439E+02  0.00000000000E+00 0.  1.
</event>
<event>
 7    1  0.2394257E-009  0.1176138E+03  0.7561462E-02  0.1247086E+00
          2   -1    0    0  501    0  0.00000000000E+00  0.00000000000E+00  0.58095342678E+03  0.58095342678E+03  0.00000000000E+00 0. -1.
         -2   -1    0    0    0  501 -0.00000000000E+00 -0.00000000000E+00 -0.30814317525E+02  0.30814317525E+02  0.00000000000E+00 0.  1.
         25    2    1    2    0    0  0.73009918162E+02  0.17664789984E+01  0.38145085792E+03  0.40802691651E+03  0.12509052319E+03 0.  0.
          5    1    3    3  502    0  0.79627141451E+02  0.36024816867E+02  0.14787094037E+03  0.17181838229E+03  0.41800000000E+01 0. -1.
         -5    1    3    3    0  502 -0.66172232892E+01 -0.34258337868E+02  0.23357991755E+03  0.23620853422E+03  0.41800000000E+01 0. -1.
        -11    1    1    2    0    0  0.25059572741E+00  0.31944135563E+02  0.33233484066E+02  0.46097234822E+02  0.00000000000E+00 0. -1.
         11    1    1    2    0    0 -0.73260513889E+02 -0.33710614561E+02  0.13545476727E+03  0.15764359297E+03  0.00000000000E+00 0.  1.
</event>
<event>
 7    1  0.2394257E-009  0.1751186E+03  0.7561462E-02  0.1172613E+00
          2   -1    0    0  501    0  0.00000000000E+00  0.00000000000E+00  0.77787068762E+03  0.77787068762E+03  0.00000000000E+00 0. -1.
         -2   -1    0    0    0  501 -0.00000000000E+00 -0.00000000000E+00 -0.56052463689E+02  0.56052463689E+02  0.00000000000E+00 0.  1.
         25    2    1    2    0    0  0.77516271987E+02  0.13368991658E+03  0.25800484386E+03  0.32572498041E+03  0.12509395347E+03 0.  0.
          5    1    3    3  502    0  0.79687920453E+02  0.13061752146E+03  0.13952891903E+03  0.20711565181E+03  0.41800000000E+01 0. -1.
         -5    1    3    3    0  502 -0.21716484662E+01  0.30723951189E+01  0.11847592482E+03  0.11860932860E+03  0.41800000000E+01 0. -1.
        -11    1    1    2    0    0  0.22826747951E+02 -0.67717901109E+02  0.86309658867E+02  0.11205414658E+03  0.00000000000E+00 0. -1.
         11    1    1    2    0    0 -0.10034301994E+03 -0.65972015467E+02  0.37750372121E+03  0.39614402431E+03  0.00000000000E+00 0.  1.
</event>
<event>
 7    1  0.2394257E-009  0.1526221E+03  0.7561462E-02  0.1197287E+00
          2   -1    0    0  501    0  0.00000000000E+00  0.00000000000E+00  0.61334371609E+02  0.61334371609E+02  0.00000000000E+00 0. -1.
         -2   -1    0    0    0  501 -0.00000000000E+00 -0.00000000000E+00 -0.42511072702E+03  0.42511072702E+03  0.00000000000E+00 0.  1.
         25    2    1    2    0    0  0.89618553631E+02 -0.75410860328E+02 -0.22392971786E+03  0.28197505382E+03  0.12508848638E+03 0.  0.
          5    1    3    3  502    0  0.18744626967E+02 -0.87508623339E+02 -0.76156712421E+02  0.11758587264E+03  0.41800000000E+01 0.  1.
         -5    1    3    3    0  502  0.70873926664E+02  0.12097763012E+02 -0.14777300544E+03  0.16438918117E+03  0.41800000000E+01 0.  1.
        -11    1    1    2    0    0 -0.66973638115E+02  0.22111012713E+01 -0.93118130642E+02  0.11472289844E+03  0.00000000000E+00 0. -1.
         11    1    1    2    0    0 -0.22644915515E+02  0.73199759056E+02 -0.46728506912E+02  0.89747146377E+02  0.00000000000E+00 0.  1.
</event>
<event>
 7    1  0.2394257E-009  0.1286696E+03  0.7561462E-02  0.1229443E+00
         -1   -1    0    0    0  501 -0.00000000000E+00  0.00000000000E+00  0.27863955294E+03  0.27863955294E+03  0.00000000000E+00 0.  1.
          1   -1    0    0  501    0  0.00000000000E+00 -0.00000000000E+00 -0.67219406631E+02  0.67219406631E+02  0.00000000000E+00 0. -1.
         25    2    1    2    0    0 -0.37875566607E+02  0.63492801361E+02  0.16406546266E+03  0.21915982840E+03  0.12509060707E+03 0.  0.
          5    1    3    3  502    0  0.56060537488E+01  0.89069641384E+02  0.13146622167E+03  0.15895178104E+03  0.41800000000E+01 0. -1.
         -5    1    3    3    0  502 -0.43481620355E+02 -0.25576840024E+02  0.32599240989E+02  0.60208047364E+02  0.41800000000E+01 0. -1.
        -11    1    1    2    0    0 -0.17514131837E+02 -0.59295287590E+02  0.28033526643E+02  0.67886335595E+02  0.00000000000E+00 0. -1.
         11    1    1    2    0    0  0.55389698444E+02 -0.41975137703E+01  0.19321157012E+02  0.58812795579E+02  0.00000000000E+00 0.  1.
</event>
<event>
 7    1  0.2394257E-009  0.1939291E+03  0.7561462E-02  0.1154965E+00
         -3   -1    0    0    0  501 -0.00000000000E+00  0.00000000000E+00  0.59574201772E+02  0.59574201772E+02  0.00000000000E+00 0.  1.
          3   -1    0    0  501    0  0.00000000000E+00 -0.00000000000E+00 -0.92434045640E+03  0.92434045640E+03  0.00000000000E+00 0. -1.
         25    2    1    2    0    0  0.17912486586E+03  0.22027775628E+02 -0.23029448721E+03  0.31820603591E+03  0.12509432433E+03 0.  0.
          5    1    3    3  502    0  0.63405679844E+02 -0.17022822229E+02 -0.10349722863E+02  0.66593136857E+02  0.41800000000E+01 0.  1.
         -5    1    3    3    0  502  0.11571918602E+03  0.39050597857E+02 -0.21994476435E+03  0.25161289905E+03  0.41800000000E+01 0.  1.
        -11    1    1    2    0    0 -0.18614036332E+03 -0.10573916910E+02 -0.60917841013E+03  0.63707015151E+03  0.00000000000E+00 0. -1.
         11    1    1    2    0    0  0.70154974578E+01 -0.11453858718E+02 -0.25293357293E+02  0.28638470756E+02  0.00000000000E+00 0.  1.
</event>
<event>
 7    1  0.2394257E-009  0.2818697E+03  0.7561462E-02  0.1094672E+00
         -2   -1    0    0    0  501 -0.00000000000E+00  0.00000000000E+00  0.50631058538E+02  0.50631058538E+02  0.00000000000E+00 0.  1.
          2   -1    0    0  501    0  0.00000000000E+00 -0.00000000000E+00 -0.17514800968E+04  0.17514800968E+04  0.00000000000E+00 0. -1.
         25    2    1    2    0    0 -0.27005930277E+03 -0.10082385171E+02 -0.68368029063E+03  0.74572101833E+03  0.12508963139E+03 0.  0.
          5    1    3    3  502    0  0.67211700368E+01  0.14764663593E+01 -0.15311976014E-01  0.80515038366E+01  0.41800000000E+01 0. -1.
         -5    1    3    3    0  502 -0.27678047281E+03 -0.11558851530E+02 -0.68366497865E+03  0.73766951449E+03  0.41800000000E+01 0. -1.
        -11    1    1    2    0    0  0.19192952897E+03  0.38022086583E+02 -0.60156872815E+03  0.63258798427E+03  0.00000000000E+00 0.  1.
         11    1    1    2    0    0  0.78129773797E+02 -0.27939701412E+02 -0.41560001950E+03  0.42380215276E+03  0.00000000000E+00 0. -1.
</event>
<event>
 7    1  0.2394257E-009  0.1397506E+03  0.7561462E-02  0.1213665E+00
         -1   -1    0    0    0  501 -0.00000000000E+00  0.00000000000E+00  0.42210045200E+03  0.42210045200E+03  0.00000000000E+00 0.  1.
          1   -1    0    0  501    0  0.00000000000E+00 -0.00000000000E+00 -0.82238829392E+02  0.82238829392E+02  0.00000000000E+00 0. -1.
         25    2    1    2    0    0 -0.12860553860E+03  0.40768252899E+02  0.27026773432E+03  0.32694565387E+03  0.12508947745E+03 0.  0.
          5    1    3    3  502    0 -0.24241347794E+02 -0.41273737229E+01 -0.81258865187E+01  0.26233196306E+02  0.41800000000E+01 0.  1.
         -5    1    3    3    0  502 -0.10436419080E+03  0.44895626622E+02  0.27839362083E+03  0.30071245756E+03  0.41800000000E+01 0.  1.
        -11    1    1    2    0    0  0.40911363827E+02 -0.33496926294E+02  0.72043165997E+02  0.89364431001E+02  0.00000000000E+00 0. -1.
         11    1    1    2    0    0  0.87694174769E+02 -0.72713266056E+01 -0.24492777060E+01  0.88029196522E+02  0.00000000000E+00 0.  1.
</event>
<event>
 7    1  0.2394257E-009  0.1415213E+03  0.7561462E-02  0.1211296E+00
          2   -1    0    0  501    0  0.00000000000E+00  0.00000000000E+00  0.11951391410E+04  0.11951391410E+04  0.00000000000E+00 0. -1.
         -2   -1    0    0    0  501 -0.00000000000E+00 -0.00000000000E+00 -0.19274121192E+02  0.19274121192E+02  0.00000000000E+00 0.  1.
         25    2    1    2    0    0  0.99666716801E+02 -0.95055386944E+01  0.77533997132E+03  0.79172426940E+03  0.12510570702E+03 0.  0.
          5    1    3    3  502    0  0.68423114215E+02 -0.59807641039E+02  0.59371252026E+03  0.60064191129E+03  0.41800000000E+01 0.  1.
         -5    1    3    3    0  502  0.31243602586E+02  0.50302102345E+02  0.18162745106E+03  0.19108235811E+03  0.41800000000E+01 0.  1.
        -11    1    1    2    0    0  0.10025243674E+02  0.20143033503E+02  0.42534129096E+02  0.48118597729E+02  0.00000000000E+00 0.  1.
         11    1    1    2    0    0 -0.10969196048E+03 -0.10637494808E+02  0.35799091937E+03  0.37457039504E+03  0.00000000000E+00 0. -1.
</event>
<event>
 7    1  0.2394257E-009  0.1156744E+03  0.7561462E-02  0.1250408E+00
         -2   -1    0    0    0  501 -0.00000000000E+00  0.00000000000E+00  0.18185132654E+02  0.18185132654E+02  0.00000000000E+00 0.  1.
          2   -1    0    0  501    0  0.00000000000E+00 -0.00000000000E+00 -0.12185360545E+04  0.12185360545E+04  0.00000000000E+00 0. -1.
         25    2    1    2    0    0 -0.16504484788E+02  0.74583260952E+02 -0.95391286241E+03  0.96510757478E+03  0.12509125067E+03 0.  0.
          5    1    3    3  502    0 -0.53386371395E+02  0.55607526962E+02 -0.84451466509E+03  0.84803584456E+03  0.41800000000E+01 0.  1.
         -5    1    3    3    0  502  0.36881886607E+02  0.18975733991E+02 -0.10939819733E+03  0.11707173023E+03  0.41800000000E+01 0.  1.
        -11    1    1    2    0    0  0.84930767340E+01  0.17805105615E+02 -0.27484326200E+02  0.33831085188E+02  0.00000000000E+00 0.  1.
         11    1    1    2    0    0  0.80114080539E+01 -0.92388366567E+02 -0.21895373323E+03  0.23778252718E+03  0.00000000000E+00 0. -1.
</event>
<event>
 7    1  0.2394257E-009  0.8129889E+02  0.7561462E-02  0.1325405E+00
         -2   -1    0    0    0  501 -0.00000000000E+00  0.00000000000E+00  0.73213680190E+01  0.73213680190E+01  0.00000000000E+00 0.  1.
          2   -1    0    0  501    0  0.00000000000E+00 -0.00000000000E+00 -0.21707912714E+04  0.21707912714E+04  0.00000000000E+00 0. -1.
         25    2    1    2    0    0 -0.28436423942E+02 -0.11685292049E+02 -0.20998500055E+04  0.21037972310E+04  0.12509023737E+03 0.  0.
          5    1    3    3  502    0 -0.58694333999E+02  0.35194530489E+02 -0.14173634899E+04  0.14190209352E+04  0.41800000000E+01 0.  1.
         -5    1    3    3    0  502  0.30257910057E+02 -0.46879822538E+02 -0.68248651562E+03  0.68477629580E+03  0.41800000000E+01 0.  1.
        -11    1    1    2    0    0  0.19147768268E+01  0.11396945309E+02 -0.15047883539E+02  0.18973548210E+02  0.00000000000E+00 0.  1.
         11    1    1    2    0    0  0.26521647115E+02  0.28834674007E+00 -0.48572014349E+02  0.55341860173E+02  0.00000000000E+00 0. -1.
</event>
<event>
 7    1  0.2394257E-009  0.1028415E+03  0.7561462E-02  0.1274432E+00
         -2   -1    0    0    0  501 -0.00000000000E+00  0.00000000000E+00  0.32131980293E+03  0.32131980293E+03  0.00000000000E+00 0. -1.
          2   -1    0    0  501    0  0.00000000000E+00 -0.00000000000E+00 -0.38559054592E+02  0.38559054592E+02  0.00000000000E+00 0.  1.
         25    2    1    2    0    0 -0.15958733404E+02 -0.11120422119E+02  0.13532376177E+03  0.18530578150E+03  0.12508943679E+03 0.  0.
          5    1    3    3  502    0  0.48148276972E+02 -0.12338878588E+02  0.10055696684E+03  0.11224829834E+03  0.41800000000E+01 0. -1.
         -5    1    3    3    0  502 -0.64107010376E+02  0.12184564692E+01  0.34766794932E+02  0.73057483158E+02  0.41800000000E+01 0. -1.
        -11    1    1    2    0    0  0.18738859595E+02 -0.37989694209E+02  0.86038629513E+02  0.95901029679E+02  0.00000000000E+00 0. -1.
         11    1    1    2    0    0 -0.27801261912E+01  0.49110116327E+02  0.61398357053E+02  0.78672046345E+02  0.00000000000E+00 0.  1.
</event>
<event>
 7    1  0.2394257E-009  0.1261203E+03  0.7561462E-02  0.1233329E+00
         -2   -1    0    0    0  501 -0.00000000000E+00  0.00000000000E+00  0.84431793627E+03  0.84431793627E+03  0.00000000000E+00 0.  1.
          2   -1    0    0  501    0  0.00000000000E+00 -0.00000000000E+00 -0.25291194341E+02  0.25291194341E+02  0.00000000000E+00 0. -1.
         25    2    1    2    0    0  0.19776586381E+02 -0.95386026879E+02  0.43610525305E+03  0.46403175852E+03  0.12509226067E+03 0.  0.
          5    1    3    3  502    0 -0.57946004985E-01 -0.11821490469E+03  0.26468921454E+03  0.28991829839E+03  0.41800000000E+01 0.  1.
         -5    1    3    3    0  502  0.19834532386E+02  0.22828877811E+02  0.17141603852E+03  0.17411346013E+03  0.41800000000E+01 0.  1.
        -11    1    1    2    0    0  0.66123032167E+01  0.53565840777E+02  0.32485472781E+03  0.32930778313E+03  0.00000000000E+00 0.  1.
         11    1    1    2    0    0 -0.26388889597E+02  0.41820186103E+02  0.58066761076E+02  0.76269588970E+02  0.00000000000E+00 0. -1.
</event>
<event>
 7    1  0.2394257E-009  0.1037830E+03  0.7561462E-02  0.1272536E+00
         -2   -1    0    0    0  501 -0.00000000000E+00  0.00000000000E+00  0.34996909218E+02  0.34996909218E+02  0.00000000000E+00 0.  1.
          2   -1    0    0  501    0  0.00000000000E+00 -0.00000000000E+00 -0.67484929428E+03  0.67484929428E+03  0.00000000000E+00 0. -1.
         25    2    1    2    0    0 -0.69959468536E+02 -0.76213387992E+02 -0.22551174230E+03  0.27785973308E+03  0.12509067754E+03 0.  0.
          5    1    3    3  502    0 -0.41120257627E+02 -0.40666355268E+02 -0.22451763520E+03  0.23188417142E+03  0.41800000000E+01 0.  1.
         -5    1    3    3    0  502 -0.28839210909E+02 -0.35547032724E+02 -0.99410709572E+00  0.45975561663E+02  0.41800000000E+01 0.  1.
        -11    1    1    2    0    0  0.29697752939E+02  0.28150456787E+02 -0.63187604182E+02  0.75279997803E+02  0.00000000000E+00 0.  1.
         11    1    1    2    0    0  0.40261715597E+02  0.48062931205E+02 -0.35115303858E+03  0.35670647261E+03  0.00000000000E+00 0. -1.
</event>
<event>
 7    1  0.2394257E-009  0.1153936E+03  0.7561462E-02  0.1250896E+00
          2   -1    0    0  501    0  0.00000000000E+00  0.00000000000E+00  0.22721134858E+03  0.22721134858E+03  0.00000000000E+00 0. -1.
         -2   -1    0    0    0  501 -0.00000000000E+00 -0.00000000000E+00 -0.63833473807E+02  0.63833473807E+02  0.00000000000E+00 0.  1.
         25    2    1    2    0    0  0.55347238921E+01 -0.50918027052E+02  0.95712382433E+02  0.16562394019E+03  0.12508857168E+03 0.  0.
          5    1    3    3  502    0 -0.49517323448E+02 -0.57810860262E+02  0.72932686506E+02  0.10550218029E+03  0.41800000000E+01 0. -1.
         -5    1    3    3    0  502  0.55052047340E+02  0.68928332103E+01  0.22779695928E+02  0.60121759893E+02  0.41800000000E+01 0. -1.
        -11    1    1    2    0    0 -0.44966812729E+02  0.22303890866E+02  0.12315881628E+02  0.51683253913E+02  0.00000000000E+00 0.  1.
         11    1    1    2    0    0  0.39432088837E+02  0.28614136186E+02  0.55349610712E+02  0.73737628289E+02  0.00000000000E+00 0. -1.
</event>
<event>
 7    1  0.2394257E-009  0.2183586E+03  0.7561462E-02  0.1135113E+00
          1   -1    0    0  501    0  0.00000000000E+00  0.00000000000E+00  0.47020336678E+03  0.47020336678E+03  0.00000000000E+00 0. -1.
         -1   -1    0    0    0  501 -0.00000000000E+00 -0.00000000000E+00 -0.11180039326E+03  0.11180039326E+03  0.00000000000E+00 0.  1.
         25    2    1    2    0    0 -0.19829491808E+03  0.35380214300E+02  0.17684655079E+03  0.29579385067E+03  0.12508663186E+03 0.  0.
          5    1    3    3  502    0 -0.20285905626E+03  0.52698641608E+02  0.18097544773E+03  0.27694499204E+03  0.41800000000E+01 0.  1.
         -5    1    3    3    0  502  0.45641381761E+01 -0.17318427309E+02 -0.41288969498E+01  0.18848858633E+02  0.41800000000E+01 0.  1.
        -11    1    1    2    0    0  0.20742014419E+02  0.13233766531E+02 -0.38878845926E+01  0.24909423626E+02  0.00000000000E+00 0.  1.
         11    1    1    2    0    0  0.17755290366E+03 -0.48613980831E+02  0.18544430733E+03  0.26130048575E+03  0.00000000000E+00 0. -1.
</event>
<event>
 7    1  0.2394257E-009  0.7471178E+02  0.7561462E-02  0.1344766E+00
          2   -1    0    0  501    0  0.00000000000E+00  0.00000000000E+00  0.11537542583E+03  0.11537542583E+03  0.00000000000E+00 0. -1.
         -2   -1    0    0    0  501 -0.00000000000E+00 -0.00000000000E+00 -0.11013842690E+03  0.11013842690E+03  0.00000000000E+00 0.  1.
         25    2    1    2    0    0 -0.25192464388E+02 -0.16231701198E+01  0.21135962171E+02  0.12935357159E+03  0.12509325579E+03 0.  0.
          5    1    3    3  502    0  0.13466390562E+02  0.14863043864E+02 -0.45819063591E+02  0.50190763454E+02  0.41800000000E+01 0. -1.
         -5    1    3    3    0  502 -0.38658854950E+02 -0.16486213983E+02  0.66955025762E+02  0.79162808139E+02  0.41800000000E+01 0. -1.
        -11    1    1    2    0    0  0.29202906679E+02  0.39216341585E+02  0.10550234615E+02  0.50020382408E+02  0.00000000000E+00 0. -1.
         11    1    1    2    0    0 -0.40104422905E+01 -0.37593171465E+02 -0.26449197856E+02  0.46139898736E+02  0.00000000000E+00 0.  1.
</event>
<event>
 7    1  0.2394257E-009  0.1179667E+03  0.7561462E-02  0.1246490E+00
          1   -1    0    0  501    0  0.00000000000E+00  0.00000000000E+00  0.10048774365E+03  0.10048774365E+03  0.00000000000E+00 0. -1.
         -1   -1    0    0    0  501 -0.00000000000E+00 -0.00000000000E+00 -0.16518532248E+03  0.16518532248E+03  0.00000000000E+00 0.  1.
         25    2    1    2    0    0 -0.63950799136E+02  0.23988903664E+02 -0.21885207522E+02  0.14419184429E+03  0.12508858239E+03 0.  0.
          5    1    3    3  502    0 -0.12652091280E+02 -0.41822008428E+02 -0.39222925523E+02  0.58864811979E+02  0.41800000000E+01 0. -1.
         -5    1    3    3    0  502 -0.51298707856E+02  0.65810912092E+02  0.17337718002E+02  0.85327032314E+02  0.41800000000E+01 0. -1.
        -11    1    1    2    0    0  0.21715675974E+02 -0.52984992660E+02 -0.43654274866E+01  0.57428538091E+02  0.00000000000E+00 0. -1.
         11    1    1    2    0    0  0.42235123161E+02  0.28996088996E+02 -0.38446943819E+02  0.64052683741E+02  0.00000000000E+00 0.  1.
</event>
<event>
 7    1  0.2394257E-009  0.8639177E+02  0.7561462E-02  0.1311833E+00
         -2   -1    0    0    0  501 -0.00000000000E+00  0.00000000000E+00  0.20794721626E+02  0.20794721626E+02  0.00000000000E+00 0.  1.
          2   -1    0    0  501    0  0.00000000000E+00 -0.00000000000E+00 -0.61969808958E+03  0.61969808958E+03  0.00000000000E+00 0. -1.
         25    2    1    2    0    0  0.22481861338E+02 -0.25792127227E+02 -0.39357184050E+03  0.41438731748E+03  0.12508951730E+03 0.  0.
          5    1    3    3  502    0  0.68970625145E+01  0.30158220375E+02 -0.21784252412E+02  0.38067227121E+02  0.41800000000E+01 0.  1.
         -5    1    3    3    0  502  0.15584798823E+02 -0.55950347603E+02 -0.37178758808E+03  0.37632009036E+03  0.41800000000E+01 0.  1.
        -11    1    1    2    0    0 -0.61321655261E+01 -0.27197589226E+02 -0.12766113370E+03  0.13067010894E+03  0.00000000000E+00 0.  1.
         11    1    1    2    0    0 -0.16349695812E+02  0.52989716453E+02 -0.77670393764E+02  0.95435384792E+02  0.00000000000E+00 0. -1.
</event>
<event>
 7    1  0.2394257E-009  0.1893663E+03  0.7561462E-02  0.1159034E+00
          1   -1    0    0  501    0  0.00000000000E+00  0.00000000000E+00  0.15444846837E+04  0.15444846837E+04  0.00000000000E+00 0. -1.
         -1   -1    0    0    0  501 -0.00000000000E+00 -0.00000000000E+00 -0.31596836061E+02  0.31596836061E+02  0.00000000000E+00 0.  1.
         25    2    1    2    0    0  0.12332219866E+03 -0.10854965328E+03  0.11584521667E+04  0.11767115894E+04  0.12508936892E+03 0.  0.
          5    1    3    3  502    0 -0.20380232478E+02 -0.20675984341E+01  0.24595932960E+03  0.24684629439E+03  0.41800000000E+01 0.  1.
         -5    1    3    3    0  502  0.14370243114E+03 -0.10648205485E+03  0.91249283710E+03  0.92986529502E+03  0.41800000000E+01 0.  1.
        -11    1    1    2    0    0 -0.92473399437E+02  0.34491690088E+02  0.24104519109E+03  0.26046840583E+03  0.00000000000E+00 0. -1.
         11    1    1    2    0    0 -0.30848799226E+02  0.74057963195E+02  0.11339048987E+03  0.13890152454E+03  0.00000000000E+00 0.  1.
</event>
<event>
 7    1  0.2394257E-009  0.8964631E+02  0.7561462E-02  0.1303710E+00
         -2   -1    0    0    0  501 -0.00000000000E+00  0.00000000000E+00  0.13146705894E+02  0.13146705894E+02  0.00000000000E+00 0.  1.
          2   -1    0    0  501    0  0.00000000000E+00 -0.00000000000E+00 -0.27645571185E+04  0.27645571185E+04  0.00000000000E+00 0. -1.
         25    2    1    2    0    0  0.47863489114E+02  0.15925938078E+02 -0.25157601234E+04  0.25193731792E+04  0.12509064075E+03 0.  0.
          5    1    3    3  502    0  0.37444881805E+02  0.42908754642E+02 -0.47731767533E+03  0.48072124561E+03  0.41800000000E+01 0. -1.
         -5    1    3    3    0  502  0.10418607309E+02 -0.26982816564E+02 -0.20384424481E+04  0.20386519336E+04  0.41800000000E+01 0. -1.
        -11    1    1    2    0    0  0.21266675092E+02  0.25213124777E+01 -0.14419743723E+02  0.25817774790E+02  0.00000000000E+00 0.  1.
         11    1    1    2    0    0 -0.69130164206E+02 -0.18447250556E+02 -0.22123054546E+03  0.23251287040E+03  0.00000000000E+00 0. -1.
</event>
<event>
 7    1  0.2394257E-009  0.1050057E+03  0.7561462E-02  0.1270108E+00
          2   -1    0    0  501    0  0.00000000000E+00  0.00000000000E+00  0.43900508480E+03  0.43900508480E+03  0.00000000000E+00 0. -1.
         -2   -1    0    0    0  501 -0.00000000000E+00 -0.00000000000E+00 -0.30291650239E+02  0.30291650239E+02  0.00000000000E+00 0.  1.
         25    2    1    2    0    0 -0.11644778271E+02  0.35397848400E+02  0.25967679706E+03  0.29063387505E+03  0.12508957536E+03 0.  0.
          5    1    3    3  502    0  0.42058046985E+02 -0.78930155061E+01  0.34605028909E+02  0.55192023298E+02  0.41800000000E+01 0. -1.
         -5    1    3    3    0  502 -0.53702825256E+02  0.43290863906E+02  0.22507176815E+03  0.23544185175E+03  0.41800000000E+01 0. -1.
        -11    1    1    2    0    0  0.49928907615E+02 -0.73858349886E+01  0.86812834867E+02  0.10041869682E+03  0.00000000000E+00 0. -1.
         11    1    1    2    0    0 -0.38284129344E+02 -0.28012013411E+02  0.62223802639E+02  0.78244163168E+02  0.00000000000E+00 0.  1.
</event>
<event>
 7    1  0.2394257E-009  0.1170734E+03  0.7561462E-02  0.1248005E+00
          2   -1    0    0  501    0  0.00000000000E+00  0.00000000000E+00  0.11415754862E+03  0.11415754862E+03  0.00000000000E+00 0. -1.
         -2   -1    0    0    0  501 -0.00000000000E+00 -0.00000000000E+00 -0.15292998955E+03  0.15292998955E+03  0.00000000000E+00 0.  1.
         25    2    1    2    0    0 -0.55691685592E+02  0.27607275187E+02 -0.67369389603E+02  0.15507721145E+03  0.12508629568E+03 0.  0.
          5    1    3    3  502    0 -0.77959658433E+02 -0.15350641069E+02 -0.10443518165E+02  0.80248925201E+02  0.41800000000E+01 0.  1.
         -5    1    3    3    0  502  0.22267972841E+02  0.42957916256E+02 -0.56925871438E+02  0.74828286246E+02  0.41800000000E+01 0.  1.
        -11    1    1    2    0    0 -0.43788181174E+01  0.25475945641E+02 -0.26211056590E+01  0.25982071690E+02  0.00000000000E+00 0.  1.
         11    1    1    2    0    0  0.60070503709E+02 -0.53083220829E+02  0.31218054332E+02  0.86028255043E+02  0.00000000000E+00 0. -1.
</event>
<event>
 7    1  0.2394257E-009  0.2183517E+03  0.7561462E-02  0.1135118E+00
          2   -1    0    0  501    0  0.00000000000E+00  0.00000000000E+00  0.58845203243E+02  0.58845203243E+02  0.00000000000E+00 0. -1.
         -2   -1    0    0    0  501 -0.00000000000E+00 -0.00000000000E+00 -0.12485048003E+04  0.12485048003E+04  0.00000000000E+00 0.  1.
         25    2    1    2    0    0  0.13756738420E+03 -0.15877406798E+03 -0.29091710758E+03  0.38001944341E+03  0.12509206220E+03 0.  0.
          5    1    3    3  502    0  0.47815591687E+02 -0.53148802080E+02 -0.17920638457E+02  0.73822406176E+02  0.41800000000E+01 0. -1.
         -5    1    3    3    0  502  0.89751792518E+02 -0.10562526590E+03 -0.27299646912E+03  0.30619703723E+03  0.41800000000E+01 0. -1.
        -11    1    1    2    0    0 -0.38842244637E+02  0.10928792256E+03 -0.52234276803E+03  0.53506498418E+03  0.00000000000E+00 0.  1.
         11    1    1    2    0    0 -0.98725139567E+02  0.49486145424E+02 -0.37639972147E+03  0.39226557598E+03  0.00000000000E+00 0. -1.
</event>
<event>
 7    1  0.2394257E-009  0.7662919E+02  0.7561462E-02  0.1338899E+00
          4   -1    0    0  501    0  0.00000000000E+00  0.00000000000E+00  0.15178321381E+03  0.15178321381E+03  0.00000000000E+00 0. -1.
         -4   -1    0    0    0  501 -0.00000000000E+00 -0.00000000000E+00 -0.87040746765E+02  0.87040746765E+02  0.00000000000E+00 0.  1.
         25    2    1    2    0    0  0.13042108559E+02  0.23361596413E+02  0.62765744324E+02  0.14249500132E+03  0.12509766568E+03 0.  0.
          5    1    3    3  502    0  0.15824131034E+02 -0.21408231688E+02  0.87183115454E+02  0.91252854899E+02  0.41800000000E+01 0.  1.
         -5    1    3    3    0  502 -0.27820224749E+01  0.44769828100E+02 -0.24417371130E+02  0.51242146424E+02  0.41800000000E+01 0.  1.
        -11    1    1    2    0    0  0.32119806234E+02 -0.49935308155E+01  0.26329072390E+02  0.41831057307E+02  0.00000000000E+00 0. -1.
         11    1    1    2    0    0 -0.45161914793E+02 -0.18368065597E+02 -0.24352349672E+02  0.54497901942E+02  0.00000000000E+00 0.  1.
</event>
<event>
 7    1  0.2394257E-009  0.1117769E+03  0.7561462E-02  0.1257314E+00
         -1   -1    0    0    0  501 -0.00000000000E+00  0.00000000000E+00  0.25971671967E+02  0.25971671967E+02  0.00000000000E+00 0.  1.
          1   -1    0    0  501    0  0.00000000000E+00 -0.00000000000E+00 -0.11341807309E+04  0.11341807309E+04  0.00000000000E+00 0. -1.
         25    2    1    2    0    0  0.30427277537E+02 -0.41487439986E+02 -0.10015323254E+04  0.10106243993E+04  0.12509057036E+03 0.  0.
          5    1    3    3  502    0  0.52561721109E+02  0.17683611111E+02 -0.71600655769E+03  0.71816314838E+03  0.41800000000E+01 0. -1.
         -5    1    3    3    0  502 -0.22134443572E+02 -0.59171051097E+02 -0.28552576767E+03  0.29246125091E+03  0.41800000000E+01 0. -1.
        -11    1    1    2    0    0 -0.40766218730E+02  0.66252289981E+02 -0.82768982544E+02  0.11358677295E+03  0.00000000000E+00 0.  1.
         11    1    1    2    0    0  0.10338941193E+02 -0.24764849995E+02 -0.23907751027E+02  0.35941230633E+02  0.00000000000E+00 0. -1.
</event>
<event>
 7    1  0.2394257E-009  0.8813991E+02  0.7561462E-02  0.1307420E+00
          1   -1    0    0  501    0  0.00000000000E+00  0.00000000000E+00  0.22195505002E+03  0.22195505002E+03  0.00000000000E+00 0. -1.
         -1   -1    0    0    0  501 -0.00000000000E+00 -0.00000000000E+00 -0.62742434640E+02  0.62742434640E+02  0.00000000000E+00 0.  1.
         25    2    1    2    0    0 -0.42840518362E+01  0.17896372624E+02  0.37214398215E+02  0.13179916237E+03  0.12508986575E+03 0.  0.
          5    1    3    3  502    0  0.42856211800E+02  0.49489105350E+02  0.36121937617E+02  0.74887203282E+02  0.41800000000E+01 0.  1.
         -5    1    3    3    0  502 -0.47140263637E+02 -0.31592732726E+02  0.10924605988E+01  0.56911959086E+02  0.41800000000E+01 0.  1.
        -11    1    1    2    0    0  0.24777761299E+02  0.24521638116E+01  0.12148858228E+03  0.12401381450E+03  0.00000000000E+00 0. -1.
         11    1    1    2    0    0 -0.20493709462E+02 -0.20348536436E+02  0.50963488248E+00  0.28884507791E+02  0.00000000000E+00 0.  1.
</event>
<event>
 7    1  0.2394257E-009  0.1039918E+03  0.7561462E-02  0.1272119E+00
         -3   -1    0    0    0  501 -0.00000000000E+00  0.00000000000E+00  0.54093318338E+03  0.54093318338E+03  0.00000000000E+00 0.  1.
          3   -1    0    0  501    0  0.00000000000E+00 -0.00000000000E+00 -0.31120069379E+02  0.31120069379E+02  0.00000000000E+00 0. -1.
         25    2    1    2    0    0  0.31892255551E+02 -0.32579500121E+02  0.42320848998E+03  0.44365746114E+03  0.12509187441E+03 0.  0.
          5    1    3    3  502    0 -0.31025543374E+02 -0.39035532477E+02  0.30911473953E+03  0.31313855037E+03  0.41800000000E+01 0.  1.
         -5    1    3    3    0  502  0.62917798925E+02  0.64560323562E+01  0.11409375046E+03  0.13051891077E+03  0.41800000000E+01 0.  1.
        -11    1    1    2    0    0 -0.39747307485E+02  0.56670571110E+02  0.59332562995E+02  0.91168827533E+02  0.00000000000E+00 0. -1.
         11    1    1    2    0    0  0.78550519339E+01 -0.24091070989E+02  0.27272061024E+02  0.37226964082E+02  0.00000000000E+00 0.  1.
</event>
<event>
 7    1  0.2394257E-009  0.9795704E+02  0.7561462E-02  0.1284652E+00
         -3   -1    0    0    0  501 -0.00000000000E+00  0.00000000000E+00  0.14189120707E+03  0.14189120707E+03  0.00000000000E+00 0.  1.
          3   -1    0    0  501    0  0.00000000000E+00 -0.00000000000E+00 -0.20751307986E+03  0.20751307986E+03  0.00000000000E+00 0. -1.
         25    2    1    2    0    0 -0.39627090846E+02  0.84334497769E+02  0.63709551215E+02  0.16848890213E+03  0.12508792660E+03 0.  0.
          5    1    3    3  502    0 -0.34509975278E+02  0.52467325308E+02 -0.29684103344E+02  0.69587189985E+02  0.41800000000E+01 0. -1.
         -5    1    3    3    0  502 -0.51171155683E+01  0.31867172460E+02  0.93393654560E+02  0.98901712141E+02  0.41800000000E+01 0. -1.
        -11    1    1    2    0    0  0.15068764212E+02 -0.70808192125E+02 -0.13417874088E+03  0.15246246172E+03  0.00000000000E+00 0. -1.
         11    1    1    2    0    0  0.24558326634E+02 -0.13526305643E+02  0.48473168799E+01  0.28452923089E+02  0.00000000000E+00 0.  1.
</event>
<event>
 7    1  0.2394257E-009  0.9412611E+02  0.7561462E-02  0.1293157E+00
          2   -1    0    0  501    0  0.00000000000E+00  0.00000000000E+00  0.12166708295E+04  0.12166708295E+04  0.00000000000E+00 0.  1.
         -2   -1    0    0    0  501 -0.00000000000E+00 -0.00000000000E+00 -0.12784825209E+02  0.12784825209E+02  0.00000000000E+00 0. -1.
         25    2    1    2    0    0  0.13418075534E+02 -0.58112930442E+02  0.74866265773E+03  0.76138048524E+03  0.12508921131E+03 0.  0.
          5    1    3    3  502    0 -0.19719369779E+02 -0.35782641931E+02  0.67351078562E+02  0.78885304028E+02  0.41800000000E+01 0. -1.
         -5    1    3    3    0  502  0.33137445313E+02 -0.22330288511E+02  0.68131157917E+03  0.68249518121E+03  0.41800000000E+01 0. -1.
        -11    1    1    2    0    0  0.36406806771E+02  0.10030192352E+02  0.20494740397E+03  0.20839745376E+03  0.00000000000E+00 0.  1.
         11    1    1    2    0    0 -0.49824882306E+02  0.48082738090E+02  0.25027594258E+03  0.25967771571E+03  0.00000000000E+00 0. -1.
</event>
<event>
 7    1  0.2394257E-009  0.6950557E+02  0.7561462E-02  0.1361783E+00
         -2   -1    0    0    0  501 -0.00000000000E+00  0.00000000000E+00  0.25394527751E+03  0.25394527751E+03  0.00000000000E+00 0.  1.
          2   -1    0    0  501    0  0.00000000000E+00 -0.00000000000E+00 -0.70025997305E+02  0.70025997305E+02  0.00000000000E+00 0. -1.
         25    2    1    2    0    0 -0.29339891202E+02  0.25552744925E+02  0.18185719146E+03  0.22413158390E+03  0.12509658999E+03 0.  0.
          5    1    3    3  502    0 -0.13788944546E+02  0.11325886016E+02  0.19699606072E+03  0.19784673620E+03  0.41800000000E+01 0.  1.
         -5    1    3    3    0  502 -0.15550946656E+02  0.14226858909E+02 -0.15138869258E+02  0.26284847702E+02  0.41800000000E+01 0.  1.
        -11    1    1    2    0    0  0.16051613891E+02 -0.60086975761E+02 -0.40934103975E+01  0.62328604776E+02  0.00000000000E+00 0. -1.
         11    1    1    2    0    0  0.13288277310E+02  0.34534230837E+02  0.61554991368E+01  0.37511086134E+02  0.00000000000E+00 0.  1.
</event>
<event>
 7    1  0.2394257E-009  0.1485500E+03  0.7561462E-02  0.1202266E+00
         -1   -1    0    0    0  501 -0.00000000000E+00  0.00000000000E+00  0.17652235171E+03  0.17652235171E+03  0.00000000000E+00 0.  1.
          1   -1    0    0  501    0  0.00000000000E+00 -0.00000000000E+00 -0.22126876845E+03  0.22126876845E+03  0.00000000000E+00 0. -1.
         25    2    1    2    0    0 -0.87627252899E+02  0.76715581372E+02  0.93890488160E+02  0.19500560461E+03  0.12509175108E+03 0.  0.
          5    1    3    3  502    0  0.31713914140E+02  0.76996094561E+01  0.15634053300E+02  0.36427357280E+02  0.41800000000E+01 0.  1.
         -5    1    3    3    0  502 -0.11934116704E+03  0.69015971916E+02  0.78256434860E+02  0.15857824733E+03  0.41800000000E+01 0.  1.
        -11    1    1    2    0    0  0.51895808030E+02 -0.13441448925E+02 -0.11413851984E+03  0.12610094826E+03  0.00000000000E+00 0. -1.
         11    1    1    2    0    0  0.35731444868E+02 -0.63274132448E+02 -0.24498385067E+02  0.76684567289E+02  0.00000000000E+00 0.  1.
</event>
<event>
 7    1  0.2394257E-009  0.1150921E+03  0.7561462E-02  0.1251420E+00
         -2   -1    0    0    0  501 -0.00000000000E+00  0.00000000000E+00  0.30245303715E+03  0.30245303715E+03  0.00000000000E+00 0.  1.
          2   -1    0    0  501    0  0.00000000000E+00 -0.00000000000E+00 -0.97329689918E+02  0.97329689918E+02  0.00000000000E+00 0. -1.
         25    2    1    2    0    0  0.49693157832E+02 -0.68692600958E+02 -0.76993586717E+01  0.15131193049E+03  0.12509171364E+03 0.  0.
          5    1    3    3  502    0 -0.13964425457E+02 -0.33882637397E+02 -0.53814255102E+02  0.65241740838E+02  0.41800000000E+01 0. -1.
         -5    1    3    3    0  502  0.63657583289E+02 -0.34809963560E+02  0.46114896431E+02  0.86070189648E+02  0.41800000000E+01 0. -1.
        -11    1    1    2    0    0 -0.41959236052E+02  0.89271662536E+02  0.13244869985E+03  0.16514437718E+03  0.00000000000E+00 0.  1.
         11    1    1    2    0    0 -0.77339217801E+01 -0.20579061579E+02  0.80374006049E+02  0.83326419399E+02  0.00000000000E+00 0. -1.
</event>
<event>
 7    1  0.2469969E-009  0.9070632E+02  0.7561462E-02  0.1301150E+00
         -2   -1    0    0    0  501 -0.00000000000E+00  0.00000000000E+00  0.41014809295E+02  0.41014809295E+02  0.00000000000E+00 0.  1.
          2   -1    0    0  501    0  0.00000000000E+00 -0.00000000000E+00 -0.56169240324E+03  0.56169240324E+03  0.00000000000E+00 0. -1.
         25    2    1    2    0    0  0.56398865267E+02 -0.11760078420E+02 -0.45808094771E+03  0.47833680386E+03  0.12509521105E+03 0.  0.
          5    1    3    3  502    0  0.39937851970E+02 -0.36813228906E+02 -0.43941020770E+03  0.44277426401E+03  0.41800000000E+01 0.  1.
         -5    1    3    3    0  502  0.16461013298E+02  0.25053150485E+02 -0.18670740012E+02  0.35562539851E+02  0.41800000000E+01 0.  1.
        -11    1    1    2    0    0 -0.35271326815E+02 -0.32286508355E+02 -0.38587260915E+01  0.47972647249E+02  0.00000000000E+00 0.  1.
         11    1    1    2    0    0 -0.21127538452E+02  0.44046586775E+02 -0.58737920144E+02  0.76397761423E+02  0.00000000000E+00 0. -1.
</event>
<event>
 7    1  0.2394257E-009  0.1105365E+03  0.7561462E-02  0.1259580E+00
         -1   -1    0    0    0  501 -0.00000000000E+00  0.00000000000E+00  0.25691859424E+02  0.25691859424E+02  0.00000000000E+00 0.  1.
          1   -1    0    0  501    0  0.00000000000E+00 -0.00000000000E+00 -0.14323846472E+04  0.14323846472E+04  0.00000000000E+00 0. -1.
         25    2    1    2    0    0  0.35487391795E+02 -0.71764178862E+02 -0.12528087318E+04  0.12615809933E+04  0.12508969557E+03 0.  0.
          5    1    3    3  502    0  0.16897221087E+02  0.65494723207E+01 -0.87833241159E+03  0.87852928768E+03  0.41800000000E+01 0. -1.
         -5    1    3    3    0  502  0.18590170708E+02 -0.78313651183E+02 -0.37447632022E+03  0.38305170567E+03  0.41800000000E+01 0. -1.
        -11    1    1    2    0    0  0.31497617864E+02  0.24246984216E+02 -0.56911695602E+02  0.69418709805E+02  0.00000000000E+00 0.  1.
         11    1    1    2    0    0 -0.66985009659E+02  0.47517194646E+02 -0.96972360378E+02  0.12707680348E+03  0.00000000000E+00 0. -1.
</event>
<event>
 7    1  0.2394257E-009  0.9598975E+02  0.7561462E-02  0.1288962E+00
          1   -1    0    0  501    0  0.00000000000E+00  0.00000000000E+00  0.11627524152E+02  0.11627524152E+02  0.00000000000E+00 0. -1.
         -1   -1    0    0    0  501 -0.00000000000E+00 -0.00000000000E+00 -0.14844149961E+04  0.14844149961E+04  0.00000000000E+00 0.  1.
         25    2    1    2    0    0 -0.14086491794E+02  0.32069840884E+02 -0.11682568998E+04  0.11754565531E+04  0.12508805118E+03 0.  0.
          5    1    3    3  502    0  0.31194789100E+02  0.38869867944E+02 -0.99331138538E+03  0.99456973724E+03  0.41800000000E+01 0. -1.
         -5    1    3    3    0  502 -0.45281280894E+02 -0.68000270598E+01 -0.17494551438E+03  0.18088681590E+03  0.41800000000E+01 0. -1.
        -11    1    1    2    0    0 -0.33919791393E+02  0.63366477570E+01 -0.15720121547E+03  0.16094386443E+03  0.00000000000E+00 0.  1.
         11    1    1    2    0    0  0.48006283187E+02 -0.38406488641E+02 -0.14732935668E+03  0.15964210264E+03  0.00000000000E+00 0. -1.
</event>
<event>
 7    1  0.2394257E-009  0.7421065E+02  0.7561462E-02  0.1346333E+00
          2   -1    0    0  501    0  0.00000000000E+00  0.00000000000E+00  0.12882921339E+03  0.12882921339E+03  0.00000000000E+00 0. -1.
         -2   -1    0    0    0  501 -0.00000000000E+00 -0.00000000000E+00 -0.11860135719E+03  0.11860135719E+03  0.00000000000E+00 0.  1.
         25    2    1    2    0    0  0.55184214376E+02 -0.15300775748E+02 -0.16889772286E+02  0.13861732898E+03  0.12510031268E+03 0.  0.
          5    1    3    3  502    0  0.25765255968E+02 -0.65018145704E+01 -0.71186468542E+02  0.76099327929E+02  0.41800000000E+01 0. -1.
         -5    1    3    3    0  502  0.29418958407E+02 -0.87989611773E+01  0.54296696256E+02  0.62518001055E+02  0.41800000000E+01 0. -1.
        -11    1    1    2    0    0 -0.62847897116E+02  0.33187592686E+02 -0.50134716159E+01  0.71248925450E+02  0.00000000000E+00 0.  1.
         11    1    1    2    0    0  0.76636827403E+01 -0.17886816938E+02  0.32131100103E+02  0.37564316141E+02  0.00000000000E+00 0. -1.
</event>
<event>
 7    1  0.2394257E-009  0.1144815E+03  0.7561462E-02  0.1252489E+00
          2   -1    0    0  501    0  0.00000000000E+00  0.00000000000E+00  0.10065910178E+03  0.10065910178E+03  0.00000000000E+00 0. -1.
         -2   -1    0    0    0  501 -0.00000000000E+00 -0.00000000000E+00 -0.19534844233E+03  0.19534844233E+03  0.00000000000E+00 0.  1.
         25    2    1    2    0    0 -0.79534721653E+02 -0.23768936080E+02 -0.18342829657E+02  0.15123982053E+03  0.12508512958E+03 0.  0.
          5    1    3    3  502    0 -0.29745655141E+02  0.48685818187E+02  0.11412884631E+02  0.58333860047E+02  0.41800000000E+01 0. -1.
         -5    1    3    3    0  502 -0.49789066512E+02 -0.72454754266E+02 -0.29755714289E+02  0.92905960480E+02  0.41800000000E+01 0. -1.
        -11    1    1    2    0    0  0.39683415842E+02  0.60908744382E+01 -0.90439296825E+02  0.98950182690E+02  0.00000000000E+00 0.  1.
         11    1    1    2    0    0  0.39851305811E+02  0.17678061641E+02  0.14092785935E+02  0.45817540895E+02  0.00000000000E+00 0. -1.
</event>
<event>
 7    1  0.2394257E-009  0.1114857E+03  0.7561462E-02  0.1257843E+00
         -2   -1    0    0    0  501 -0.00000000000E+00  0.00000000000E+00  0.19154706771E+02  0.19154706771E+02  0.00000000000E+00 0.  1.
          2   -1    0    0  501    0  0.00000000000E+00 -0.00000000000E+00 -0.70672868621E+03  0.70672868621E+03  0.00000000000E+00 0. -1.
         25    2    1    2    0    0  0.17193930917E+02 -0.32765264644E+02 -0.33336895779E+03  0.35797827942E+03  0.12507754672E+03 0.  0.
          5    1    3    3  502    0 -0.13043910414E+02  0.41317366352E+02 -0.67671882374E+02  0.80462565365E+02  0.41800000000E+01 0.  1.
         -5    1    3    3    0  502  0.30237841330E+02 -0.74082630996E+02 -0.26569707542E+03  0.27751571406E+03  0.41800000000E+01 0.  1.
        -11    1    1    2    0    0  0.17107526037E+02  0.55559099673E+02 -0.21704835207E+03  0.22469861624E+03  0.00000000000E+00 0. -1.
         11    1    1    2    0    0 -0.34301456954E+02 -0.22793835029E+02 -0.13715666958E+03  0.14320649732E+03  0.00000000000E+00 0.  1.
</event>
<event>
 7    1  0.2394257E-009  0.9371299E+02  0.7561462E-02  0.1294101E+00
          2   -1    0    0  501    0  0.00000000000E+00  0.00000000000E+00  0.62088828264E+03  0.62088828264E+03  0.00000000000E+00 0. -1.
         -2   -1    0    0    0  501 -0.00000000000E+00 -0.00000000000E+00 -0.24649309754E+02  0.24649309754E+02  0.00000000000E+00 0.  1.
         25    2    1    2    0    0 -0.26978638828E+02  0.51562543748E+02  0.25805028879E+03  0.29261206990E+03  0.12508128971E+03 0.  0.
          5    1    3    3  502    0  0.98933585748E+01 -0.10342235492E+02 -0.80172922815E+01  0.16928962000E+02  0.41800000000E+01 0. -1.
         -5    1    3    3    0  502 -0.36871997403E+02  0.61904779241E+02  0.26606758107E+03  0.27568310790E+03  0.41800000000E+01 0. -1.
        -11    1    1    2    0    0  0.56146234618E+02 -0.27451214857E+02  0.19186261303E+03  0.20178511129E+03  0.00000000000E+00 0.  1.
         11    1    1    2    0    0 -0.29167595790E+02 -0.24111328892E+02  0.14632607107E+03  0.15114041120E+03  0.00000000000E+00 0. -1.
</event>
<event>
 7    1  0.2394257E-009  0.1309780E+03  0.7561462E-02  0.1226012E+00
         -3   -1    0    0    0  501 -0.00000000000E+00  0.00000000000E+00  0.64665564963E+02  0.64665564963E+02  0.00000000000E+00 0.  1.
          3   -1    0    0  501    0  0.00000000000E+00 -0.00000000000E+00 -0.27962275205E+03  0.27962275205E+03  0.00000000000E+00 0. -1.
         25    2    1    2    0    0 -0.48494235594E+02 -0.58232744655E+02 -0.93469539256E+02  0.17357066391E+03  0.12508987635E+03 0.  0.
          5    1    3    3  502    0  0.42349347602E+01 -0.83341450576E+02 -0.74719526614E+02  0.11209019633E+03  0.41800000000E+01 0. -1.
         -5    1    3    3    0  502 -0.52729170354E+02  0.25108705921E+02 -0.18750012642E+02  0.61480467576E+02  0.41800000000E+01 0. -1.
        -11    1    1    2    0    0 -0.18528505595E+02  0.48760485130E+02 -0.56121510898E+02  0.76619282268E+02  0.00000000000E+00 0.  1.
         11    1    1    2    0    0  0.67022741189E+02  0.94722595250E+01 -0.65366136934E+02  0.94098370840E+02  0.00000000000E+00 0. -1.
</event>
<event>
 7    1  0.2394257E-009  0.9935075E+02  0.7561462E-02  0.1281667E+00
          2   -1    0    0  501    0  0.00000000000E+00  0.00000000000E+00  0.46305544819E+03  0.46305544819E+03  0.00000000000E+00 0. -1.
         -2   -1    0    0    0  501 -0.00000000000E+00 -0.00000000000E+00 -0.33178694159E+02  0.33178694159E+02  0.00000000000E+00 0.  1.
         25    2    1    2    0    0  0.81397153836E+01  0.30247380560E+02  0.13926796781E+03  0.18980153117E+03  0.12509154800E+03 0.  0.
          5    1    3    3  502    0  0.46227248132E+02  0.41402097994E+02  0.22072950827E+02  0.65998331391E+02  0.41800000000E+01 0. -1.
         -5    1    3    3    0  502 -0.38087532748E+02 -0.11154717433E+02  0.11719501698E+03  0.12380319978E+03  0.41800000000E+01 0. -1.
        -11    1    1    2    0    0 -0.24172892235E+02  0.27529794980E+02  0.94132742990E+02  0.10101084909E+03  0.00000000000E+00 0.  1.
         11    1    1    2    0    0  0.16033176852E+02 -0.57777175540E+02  0.19647604324E+03  0.20542176209E+03  0.00000000000E+00 0. -1.
</event>
<event>
 7    1  0.2394257E-009  0.1397869E+03  0.7561462E-02  0.1213616E+00
         -1   -1    0    0    0  501 -0.00000000000E+00  0.00000000000E+00  0.28503469446E+03  0.28503469446E+03  0.00000000000E+00 0.  1.
          1   -1    0    0  501    0  0.00000000000E+00 -0.00000000000E+00 -0.87088229225E+02  0.87088229225E+02  0.00000000000E+00 0. -1.
         25    2    1    2    0    0  0.10123199153E+02 -0.10895999085E+03  0.71193108293E+02  0.18080730868E+03  0.12509222772E+03 0.  0.
          5    1    3    3  502    0  0.59837204854E+02 -0.24308592067E+02  0.45899671318E+02  0.79345138227E+02  0.41800000000E+01 0.  1.
         -5    1    3    3    0  502 -0.49714005701E+02 -0.84651398783E+02  0.25293436975E+02  0.10146217045E+03  0.41800000000E+01 0.  1.
        -11    1    1    2    0    0  0.11598477716E+02  0.10114122667E+02  0.77036973700E+02  0.78558993626E+02  0.00000000000E+00 0.  1.
         11    1    1    2    0    0 -0.21721676870E+02  0.98845868183E+02  0.49716383246E+02  0.11275662138E+03  0.00000000000E+00 0. -1.
</event>
<event>
 7    1  0.2394257E-009  0.1737474E+03  0.7561462E-02  0.1173995E+00
          1   -1    0    0  501    0  0.00000000000E+00  0.00000000000E+00  0.20585074229E+03  0.20585074229E+03  0.00000000000E+00 0. -1.
         -1   -1    0    0    0  501 -0.00000000000E+00 -0.00000000000E+00 -0.19063122968E+03  0.19063122968E+03  0.00000000000E+00 0.  1.
         25    2    1    2    0    0 -0.13794173794E+03  0.54042149070E+02 -0.62458675811E+02  0.20370634866E+03  0.12508682327E+03 0.  0.
          5    1    3    3  502    0 -0.10958860662E+03 -0.12730811616E+02 -0.69885115671E+02  0.13066421874E+03  0.41800000000E+01 0. -1.
         -5    1    3    3    0  502 -0.28353131318E+02  0.66772960685E+02  0.74264398604E+01  0.73042129920E+02  0.41800000000E+01 0. -1.
        -11    1    1    2    0    0  0.11713804575E+03 -0.12293300498E+02  0.85415598528E+02  0.14549320077E+03  0.00000000000E+00 0. -1.
         11    1    1    2    0    0  0.20803692190E+02 -0.41748848571E+02 -0.77374101064E+01  0.47282422537E+02  0.00000000000E+00 0.  1.
</event>
<event>
 7    1  0.2409869E-009  0.1450126E+03  0.7561462E-02  0.1206739E+00
         -1   -1    0    0    0  501 -0.00000000000E+00  0.00000000000E+00  0.99769225362E+02  0.99769225362E+02  0.00000000000E+00 0.  1.
          1   -1    0    0  501    0  0.00000000000E+00 -0.00000000000E+00 -0.32877176991E+03  0.32877176991E+03  0.00000000000E+00 0. -1.
         25    2    1    2    0    0 -0.31739013141E+02  0.13523885331E+03 -0.16839313000E+03  0.25159622649E+03  0.12508997784E+03 0.  0.
          5    1    3    3  502    0 -0.15337418085E+02  0.40248920908E+02 -0.14636390355E+03  0.15262724754E+03  0.41800000000E+01 0.  1.
         -5    1    3    3    0  502 -0.16401595056E+02  0.94989932401E+02 -0.22029226446E+02  0.98968978957E+02  0.41800000000E+01 0.  1.
        -11    1    1    2    0    0 -0.14622950727E+02 -0.61081212777E+02  0.11182602980E+02  0.63794951616E+02  0.00000000000E+00 0.  1.
         11    1    1    2    0    0  0.46361963868E+02 -0.74157640532E+02 -0.71792017531E+02  0.11314981716E+03  0.00000000000E+00 0. -1.
</event>
<event>
 7    1  0.2394257E-009  0.9715422E+02  0.7561462E-02  0.1286397E+00
          1   -1    0    0  501    0  0.00000000000E+00  0.00000000000E+00  0.63856525302E+02  0.63856525302E+02  0.00000000000E+00 0. -1.
         -1   -1    0    0    0  501 -0.00000000000E+00 -0.00000000000E+00 -0.24781410776E+03  0.24781410776E+03  0.00000000000E+00 0.  1.
         25    2    1    2    0    0 -0.10092599932E+02  0.58424162340E+02 -0.14480936012E+03  0.20033127980E+03  0.12509047754E+03 0.  0.
          5    1    3    3  502    0  0.97447179502E+01  0.86924095858E+02 -0.13985396325E+03  0.16500715562E+03  0.41800000000E+01 0. -1.
         -5    1    3    3    0  502 -0.19837317882E+02 -0.28499933518E+02 -0.49553968692E+01  0.35324124184E+02  0.41800000000E+01 0. -1.
        -11    1    1    2    0    0  0.25141897062E+02 -0.26825346866E+02  0.20563918215E+02  0.42125870373E+02  0.00000000000E+00 0. -1.
         11    1    1    2    0    0 -0.15049297130E+02 -0.31598815474E+02 -0.59712140557E+02  0.69213482887E+02  0.00000000000E+00 0.  1.
</event>
<event>
 7    1  0.2394257E-009  0.2014310E+03  0.7561462E-02  0.1148537E+00
         -2   -1    0    0    0  501 -0.00000000000E+00  0.00000000000E+00  0.24260372804E+03  0.24260372804E+03  0.00000000000E+00 0.  1.
          2   -1    0    0  501    0  0.00000000000E+00 -0.00000000000E+00 -0.20118906916E+03  0.20118906916E+03  0.00000000000E+00 0. -1.
         25    2    1    2    0    0 -0.41636405089E+02 -0.18603516081E+03  0.36902408177E+02  0.23097973613E+03  0.12508868648E+03 0.  0.
          5    1    3    3  502    0 -0.16551055186E+02 -0.26578936561E+01 -0.29593707585E+02  0.34267502901E+02  0.41800000000E+01 0. -1.
         -5    1    3    3    0  502 -0.25085349903E+02 -0.18337726715E+03  0.66496115762E+02  0.19671223323E+03  0.41800000000E+01 0. -1.
        -11    1    1    2    0    0 -0.93132401430E+01  0.10022887514E+03  0.37935854453E+02  0.10757180350E+03  0.00000000000E+00 0.  1.
         11    1    1    2    0    0  0.50949645232E+02  0.85806285667E+02 -0.33423603744E+02  0.10524125758E+03  0.00000000000E+00 0. -1.
</event>
<event>
 7    1  0.2394257E-009  0.1031782E+03  0.7561462E-02  0.1273751E+00
         -2   -1    0    0    0  501 -0.00000000000E+00  0.00000000000E+00  0.74062676418E+02  0.74062676418E+02  0.00000000000E+00 0.  1.
          2   -1    0    0  501    0  0.00000000000E+00 -0.00000000000E+00 -0.17454595636E+03  0.17454595636E+03  0.00000000000E+00 0. -1.
         25    2    1    2    0    0 -0.89806047182E+01  0.27024605502E+02 -0.80127933237E+02  0.15125026931E+03  0.12508068484E+03 0.  0.
          5    1    3    3  502    0  0.50393302937E+02  0.69254503289E+01 -0.21088244273E+01  0.51081957516E+02  0.41800000000E+01 0.  1.
         -5    1    3    3    0  502 -0.59373907655E+02  0.20099155173E+02 -0.78019108809E+02  0.10016831180E+03  0.41800000000E+01 0.  1.
        -11    1    1    2    0    0  0.47743780339E+02 -0.52415701723E+01 -0.22075121820E+02  0.52860700169E+02  0.00000000000E+00 0.  1.
         11    1    1    2    0    0 -0.38763175621E+02 -0.21783035330E+02  0.17197751141E+01  0.44497663297E+02  0.00000000000E+00 0. -1.
</event>
<event>
 7    1  0.2394257E-009  0.1040121E+03  0.7561462E-02  0.1272078E+00
         -1   -1    0    0    0  501 -0.00000000000E+00  0.00000000000E+00  0.71577669874E+02  0.71577669874E+02  0.00000000000E+00 0.  1.
          1   -1    0    0  501    0  0.00000000000E+00 -0.00000000000E+00 -0.20849318450E+03  0.20849318450E+03  0.00000000000E+00 0. -1.
         25    2    1    2    0    0  0.41407424360E+02  0.87570420526E+01 -0.34434732610E+02  0.13648900330E+03  0.12510889910E+03 0.  0.
          5    1    3    3  502    0 -0.44753956300E+01 -0.53297959321E+02 -0.53724662026E+01  0.53916949347E+02  0.41800000000E+01 0. -1.
         -5    1    3    3    0  502  0.45882819990E+02  0.62055001373E+02 -0.29062266407E+02  0.82572053955E+02  0.41800000000E+01 0. -1.
        -11    1    1    2    0    0 -0.32524316075E+02  0.25731869657E+02 -0.99554403621E+02  0.10784729729E+03  0.00000000000E+00 0. -1.
         11    1    1    2    0    0 -0.88831082847E+01 -0.34488911709E+02 -0.29263783983E+01  0.35734553785E+02  0.00000000000E+00 0.  1.
</event>
<event>
 7    1  0.2394257E-009  0.1136764E+03  0.7561462E-02  0.1253909E+00
         -2   -1    0    0    0  501 -0.00000000000E+00  0.00000000000E+00  0.37200868698E+02  0.37200868698E+02  0.00000000000E+00 0.  1.
          2   -1    0    0  501    0  0.00000000000E+00 -0.00000000000E+00 -0.60078031106E+03  0.60078031106E+03  0.00000000000E+00 0. -1.
         25    2    1    2    0    0 -0.19046067923E+02 -0.93697669784E+02 -0.38372075656E+03  0.41476931729E+03  0.12509980624E+03 0.  0.
          5    1    3    3  502    0  0.19816262995E+02 -0.14407627056E+02 -0.43461436161E+01  0.25231435964E+02  0.41800000000E+01 0.  1.
         -5    1    3    3    0  502 -0.38862330918E+02 -0.79290042728E+02 -0.37937461294E+03  0.38953788132E+03  0.41800000000E+01 0.  1.
        -11    1    1    2    0    0 -0.16144348658E+02  0.24879273448E+01  0.22811633894E+01  0.16493437558E+02  0.00000000000E+00 0.  1.
         11    1    1    2    0    0  0.35190416581E+02  0.91209742439E+02 -0.18213984919E+03  0.20671842492E+03  0.00000000000E+00 0. -1.
</event>
<event>
 7    1  0.2394257E-009  0.9513930E+02  0.7561462E-02  0.1290863E+00
         -2   -1    0    0    0  501 -0.00000000000E+00  0.00000000000E+00  0.71689536140E+02  0.71689536140E+02  0.00000000000E+00 0.  1.
          2   -1    0    0  501    0  0.00000000000E+00 -0.00000000000E+00 -0.22393368883E+03  0.22393368883E+03  0.00000000000E+00 0. -1.
         25    2    1    2    0    0 -0.12956282606E+02  0.28037956196E+02 -0.27989088036E+02  0.13185475000E+03  0.12509314051E+03 0.  0.
          5    1    3    3  502    0  0.22611699898E+02 -0.15123233424E+02  0.36934593499E+02  0.46061239219E+02  0.41800000000E+01 0.  1.
         -5    1    3    3    0  502 -0.35567982504E+02  0.43161189619E+02 -0.64923681535E+02  0.85793510785E+02  0.41800000000E+01 0.  1.
        -11    1    1    2    0    0 -0.19940624022E+02 -0.58519888743E+02 -0.73043939172E+02  0.95695469666E+02  0.00000000000E+00 0.  1.
         11    1    1    2    0    0  0.32896906628E+02  0.30481932547E+02 -0.51211125483E+02  0.68073005301E+02  0.00000000000E+00 0. -1.
</event>
<event>
 7    1  0.2394257E-009  0.1017306E+03  0.7561462E-02  0.1276698E+00
          2   -1    0    0  501    0  0.00000000000E+00  0.00000000000E+00  0.42738065736E+03  0.42738065736E+03  0.00000000000E+00 0. -1.
         -2   -1    0    0    0  501 -0.00000000000E+00 -0.00000000000E+00 -0.36947811913E+02  0.36947811913E+02  0.00000000000E+00 0.  1.
         25    2    1    2    0    0  0.11674847816E+02  0.38862660892E+02  0.28670331790E+03  0.31542470136E+03  0.12508933308E+03 0.  0.
          5    1    3    3  502    0 -0.38039487729E+02  0.64334537360E+02  0.17910291752E+03  0.19411662162E+03  0.41800000000E+01 0.  1.
         -5    1    3    3    0  502  0.49714335545E+02 -0.25471876468E+02  0.10760040038E+03  0.12130807974E+03  0.41800000000E+01 0.  1.
        -11    1    1    2    0    0  0.24071660528E+02 -0.23632767708E+02 -0.43865178576E+01  0.34017555600E+02  0.00000000000E+00 0.  1.
         11    1    1    2    0    0 -0.35746508343E+02 -0.15229893184E+02  0.10811604541E+03  0.11488621232E+03  0.00000000000E+00 0. -1.
</event>
<event>
 7    1  0.2394257E-009  0.1362911E+03  0.7561462E-02  0.1218409E+00
         -1   -1    0    0    0  501 -0.00000000000E+00  0.00000000000E+00  0.59067408019E+03  0.59067408019E+03  0.00000000000E+00 0.  1.
          1   -1    0    0  501    0  0.00000000000E+00 -0.00000000000E+00 -0.54790086205E+02  0.54790086205E+02  0.00000000000E+00 0. -1.
         25    2    1    2    0    0  0.11535916679E+03  0.10370127013E+02  0.43337324075E+03  0.46569960687E+03  0.12509388930E+03 0.  0.
          5    1    3    3  502    0  0.27108242967E+02  0.25256199699E+02  0.31522187781E+03  0.31741933953E+03  0.41800000000E+01 0.  1.
         -5    1    3    3    0  502  0.88250923825E+02 -0.14886072685E+02  0.11815136294E+03  0.14828026733E+03  0.41800000000E+01 0. -1.
        -11    1    1    2    0    0 -0.10177940813E+03 -0.42899827380E+02  0.64415835241E+02  0.12786259398E+03  0.00000000000E+00 0.  1.
         11    1    1    2    0    0 -0.13579758663E+02  0.32529700367E+02  0.38094917997E+02  0.51901965555E+02  0.00000000000E+00 0. -1.
</event>
<event>
 7    1  0.2394257E-009  0.1650867E+03  0.7561462E-02  0.1183071E+00
          2   -1    0    0  501    0  0.00000000000E+00  0.00000000000E+00  0.10574959408E+03  0.10574959408E+03  0.00000000000E+00 0. -1.
         -2   -1    0    0    0  501 -0.00000000000E+00 -0.00000000000E+00 -0.33235466375E+03  0.33235466375E+03  0.00000000000E+00 0.  1.
         25    2    1    2    0    0  0.12928486094E+03 -0.19017125262E+01 -0.21233839097E+03  0.27830151632E+03  0.12508377165E+03 0.  0.
          5    1    3    3  502    0  0.54709146395E+02  0.55160863081E+02 -0.55921815770E+02  0.95815100032E+02  0.41800000000E+01 0. -1.
         -5    1    3    3    0  502  0.74575714541E+02 -0.57062575607E+02 -0.15641657520E+03  0.18248641629E+03  0.41800000000E+01 0. -1.
        -11    1    1    2    0    0 -0.61002271400E+01 -0.30415972797E+02 -0.91650153239E+01  0.32347205107E+02  0.00000000000E+00 0.  1.
         11    1    1    2    0    0 -0.12318463380E+03  0.32317685323E+02 -0.51016633777E+01  0.12745553639E+03  0.00000000000E+00 0. -1.
</event>
<event>
 7    1  0.2394257E-009  0.1063043E+03  0.7561462E-02  0.1267571E+00
          3   -1    0    0  501    0  0.00000000000E+00  0.00000000000E+00  0.16626546006E+03  0.16626546006E+03  0.00000000000E+00 0.  1.
         -3   -1    0    0    0  501 -0.00000000000E+00 -0.00000000000E+00 -0.83048796166E+02  0.83048796166E+02  0.00000000000E+00 0. -1.
         25    2    1    2    0    0 -0.29584087921E+00 -0.59373473882E+01  0.34244176155E+01  0.12528302429E+03  0.12509504356E+03 0.  0.
          5    1    3    3  502    0  0.41154992715E+02 -0.49718636153E+02 -0.10093481711E+01  0.64685140412E+02  0.41800000000E+01 0.  1.
         -5    1    3    3    0  502 -0.41450833594E+02  0.43781288765E+02  0.44337657866E+01  0.60597883879E+02  0.41800000000E+01 0.  1.
        -11    1    1    2    0    0 -0.40676149948E+02  0.18437089513E+02  0.64694790024E+02  0.78612284667E+02  0.00000000000E+00 0.  1.
         11    1    1    2    0    0  0.40971990828E+02 -0.12499742125E+02  0.15097456255E+02  0.45418947268E+02  0.00000000000E+00 0. -1.
</event>
<event>
 7    1  0.2394257E-009  0.1491070E+03  0.7561462E-02  0.1201575E+00
         -2   -1    0    0    0  501 -0.00000000000E+00  0.00000000000E+00  0.61950480548E+02  0.61950480548E+02  0.00000000000E+00 0. -1.
          2   -1    0    0  501    0  0.00000000000E+00 -0.00000000000E+00 -0.51719753260E+03  0.51719753260E+03  0.00000000000E+00 0.  1.
         25    2    1    2    0    0 -0.80575360932E+02 -0.96120560391E+02 -0.34473494987E+03  0.38758416609E+03  0.12509096380E+03 0.  0.
          5    1    3    3  502    0 -0.10039657233E+03 -0.43980040951E+02 -0.15576967296E+03  0.19051346186E+03  0.41800000000E+01 0.  1.
         -5    1    3    3    0  502  0.19821211393E+02 -0.52140519440E+02 -0.18896527691E+03  0.19707070423E+03  0.41800000000E+01 0.  1.
        -11    1    1    2    0    0  0.17750139108E+02  0.54276515370E+02 -0.10026527212E+03  0.11538688120E+03  0.00000000000E+00 0.  1.
         11    1    1    2    0    0  0.62825221824E+02  0.41844045020E+02 -0.10246830062E+02  0.76176965857E+02  0.00000000000E+00 0. -1.
</event>
<event>
 7    1  0.2394257E-009  0.1186688E+03  0.7561462E-02  0.1245309E+00
         -2   -1    0    0    0  501 -0.00000000000E+00  0.00000000000E+00  0.28499078364E+02  0.28499078364E+02  0.00000000000E+00 0.  1.
          2   -1    0    0  501    0  0.00000000000E+00 -0.00000000000E+00 -0.70546085572E+03  0.70546085572E+03  0.00000000000E+00 0. -1.
         25    2    1    2    0    0 -0.49341270228E+02 -0.58043336271E+02 -0.50434187917E+03  0.52517728329E+03  0.12508740130E+03 0.  0.
          5    1    3    3  502    0  0.11706913069E+02  0.25165145541E+02 -0.23567836922E+03  0.23734384863E+03  0.41800000000E+01 0. -1.
         -5    1    3    3    0  502 -0.61048183297E+02 -0.83208481811E+02 -0.26866350995E+03  0.28783343466E+03  0.41800000000E+01 0. -1.
        -11    1    1    2    0    0  0.40318748771E+02 -0.64768170724E+01 -0.26185522618E+02  0.48510125300E+02  0.00000000000E+00 0.  1.
         11    1    1    2    0    0  0.90225214571E+01  0.64520153343E+02 -0.14643437556E+03  0.16027252549E+03  0.00000000000E+00 0. -1.
</event>
<event>
 7    1  0.2394257E-009  0.1009378E+03  0.7561462E-02  0.1278336E+00
          2   -1    0    0  501    0  0.00000000000E+00  0.00000000000E+00  0.36073742739E+03  0.36073742739E+03  0.00000000000E+00 0. -1.
         -2   -1    0    0    0  501 -0.00000000000E+00 -0.00000000000E+00 -0.66502638862E+02  0.66502638862E+02  0.00000000000E+00 0.  1.
         25    2    1    2    0    0 -0.32371651909E+02 -0.72138245602E+02  0.53675804485E+02  0.15742877562E+03  0.12510346549E+03 0.  0.
          5    1    3    3  502    0 -0.23244188173E+02 -0.32781178897E+02 -0.39054693988E+02  0.56192877629E+02  0.41800000000E+01 0.  1.
         -5    1    3    3    0  502 -0.91274637352E+01 -0.39357066705E+02  0.92730498474E+02  0.10123589799E+03  0.41800000000E+01 0.  1.
        -11    1    1    2    0    0  0.69013962214E+01 -0.22143590276E+02  0.63513750852E+02  0.67616302823E+02  0.00000000000E+00 0.  1.
         11    1    1    2    0    0  0.25470255687E+02  0.94281835878E+02  0.17704523319E+03  0.20219498781E+03  0.00000000000E+00 0. -1.
</event>
<event>
 7    1  0.2394257E-009  0.1016059E+03  0.7561462E-02  0.1276955E+00
         -1   -1    0    0    0  501 -0.00000000000E+00  0.00000000000E+00  0.18011310453E+02  0.18011310453E+02  0.00000000000E+00 0.  1.
          1   -1    0    0  501    0  0.00000000000E+00 -0.00000000000E+00 -0.71107301490E+03  0.71107301490E+03  0.00000000000E+00 0. -1.
         25    2    1    2    0    0  0.32092917746E+02  0.11168324574E+02 -0.41642927068E+03  0.43613664273E+03  0.12508855586E+03 0.  0.
          5    1    3    3  502    0 -0.33163611497E+02  0.27756590777E+02 -0.64296938221E+02  0.77600400281E+02  0.41800000000E+01 0. -1.
         -5    1    3    3    0  502  0.65256529244E+02 -0.16588266204E+02 -0.35213233246E+03  0.35853624245E+03  0.41800000000E+01 0. -1.
        -11    1    1    2    0    0 -0.36054065310E+02 -0.45325463485E+02 -0.12967254006E+03  0.14201852312E+03  0.00000000000E+00 0.  1.
         11    1    1    2    0    0  0.39611475640E+01  0.34157138911E+02 -0.14695989371E+03  0.15092915950E+03  0.00000000000E+00 0. -1.
</event>
<event>
 7    1  0.3689332E-009  0.1171809E+03  0.7561462E-02  0.1247821E+00
         -1   -1    0    0    0  501 -0.00000000000E+00  0.00000000000E+00  0.83541422871E+02  0.83541422871E+02  0.00000000000E+00 0.  1.
          1   -1    0    0  501    0  0.00000000000E+00 -0.00000000000E+00 -0.26520745546E+03  0.26520745546E+03  0.00000000000E+00 0. -1.
         25    2    1    2    0    0  0.95934397620E+02  0.32905476981E+02 -0.10287038833E+03  0.19108828096E+03  0.12508491222E+03 0.  0.
          5    1    3    3  502    0  0.13716031943E+02  0.46159677608E+02  0.11368534075E+02  0.49654419100E+02  0.41800000000E+01 0. -1.
         -5    1    3    3    0  502  0.82218365676E+02 -0.13254200627E+02 -0.11423892241E+03  0.14143386186E+03  0.41800000000E+01 0. -1.
        -11    1    1    2    0    0 -0.84846706827E+02 -0.34197080526E+02 -0.14763371477E+02  0.92662619828E+02  0.00000000000E+00 0.  1.
         11    1    1    2    0    0 -0.11087690792E+02  0.12916035444E+01 -0.64032272778E+02  0.64997977537E+02  0.00000000000E+00 0. -1.
</event>
<event>
 7    1  0.2394257E-009  0.8419650E+02  0.7561462E-02  0.1317547E+00
          3   -1    0    0  501    0  0.00000000000E+00  0.00000000000E+00  0.35623294097E+02  0.35623294097E+02  0.00000000000E+00 0. -1.
         -3   -1    0    0    0  501 -0.00000000000E+00 -0.00000000000E+00 -0.30144927308E+03  0.30144927308E+03  0.00000000000E+00 0.  1.
         25    2    1    2    0    0 -0.15635263202E+02  0.21013777050E+02 -0.21364748192E+03  0.24895628106E+03  0.12509173861E+03 0.  0.
          5    1    3    3  502    0  0.49724783660E+02  0.22878386832E+02 -0.14002492441E+03  0.15040088614E+03  0.41800000000E+01 0. -1.
         -5    1    3    3    0  502 -0.65360046862E+02 -0.18646097816E+01 -0.73622557507E+02  0.98555394927E+02  0.41800000000E+01 0. -1.
        -11    1    1    2    0    0 -0.71070969709E+01  0.82674340159E+01  0.10600754115E+02  0.15206488101E+02  0.00000000000E+00 0. -1.
         11    1    1    2    0    0  0.22742360173E+02 -0.29281211066E+02 -0.62779251181E+02  0.72909798015E+02  0.00000000000E+00 0.  1.
</event>
<event>
 7    1  0.2394257E-009  0.3583505E+03  0.7561462E-02  0.1059239E+00
         -2   -1    0    0    0  501 -0.00000000000E+00  0.00000000000E+00  0.28187035742E+03  0.28187035742E+03  0.00000000000E+00 0. -1.
          2   -1    0    0  501    0  0.00000000000E+00 -0.00000000000E+00 -0.87901948833E+03  0.87901948833E+03  0.00000000000E+00 0.  1.
         25    2    1    2    0    0 -0.34107430521E+03 -0.81080691887E+02  0.90544136304E+02  0.38308021416E+03  0.12508576894E+03 0.  0.
          5    1    3    3  502    0 -0.17925932255E+03 -0.66338532177E+02 -0.10875232265E+02  0.19149529667E+03  0.41800000000E+01 0. -1.
         -5    1    3    3    0  502 -0.16181498267E+03 -0.14742159710E+02  0.10141936857E+03  0.19158491749E+03  0.41800000000E+01 0. -1.
        -11    1    1    2    0    0  0.22256526132E+03  0.59231988023E+01 -0.44011282744E+03  0.49322376332E+03  0.00000000000E+00 0.  1.
         11    1    1    2    0    0  0.11850904389E+03  0.75157493085E+02 -0.24758043978E+03  0.28458586826E+03  0.00000000000E+00 0. -1.
</event>
<event>
 7    1  0.2394257E-009  0.1905879E+03  0.7561462E-02  0.1157932E+00
         -1   -1    0    0    0  501 -0.00000000000E+00  0.00000000000E+00  0.61756016000E+03  0.61756016000E+03  0.00000000000E+00 0.  1.
          1   -1    0    0  501    0  0.00000000000E+00 -0.00000000000E+00 -0.81243160508E+02  0.81243160508E+02  0.00000000000E+00 0. -1.
         25    2    1    2    0    0  0.10237580851E+03 -0.13450068401E+03  0.12268874622E+03  0.24345587572E+03  0.12508794828E+03 0.  0.
          5    1    3    3  502    0  0.11069639658E+03 -0.46504779608E+02  0.85566035796E+02  0.14749713768E+03  0.41800000000E+01 0. -1.
         -5    1    3    3    0  502 -0.83205880653E+01 -0.87995904399E+02  0.37122710424E+02  0.95958738038E+02  0.41800000000E+01 0. -1.
        -11    1    1    2    0    0 -0.84421543878E+02  0.84604990676E+02  0.36246317512E+03  0.38166026101E+03  0.00000000000E+00 0.  1.
         11    1    1    2    0    0 -0.17954264632E+02  0.49895693331E+02  0.51165078160E+02  0.73687183788E+02  0.00000000000E+00 0. -1.
</event>
<event>
 7    1  0.2394257E-009  0.1113208E+03  0.7561462E-02  0.1258143E+00
         -2   -1    0    0    0  501 -0.00000000000E+00  0.00000000000E+00  0.80711289971E+02  0.80711289971E+02  0.00000000000E+00 0.  1.
          2   -1    0    0  501    0  0.00000000000E+00 -0.00000000000E+00 -0.22635514844E+03  0.22635514844E+03  0.00000000000E+00 0. -1.
         25    2    1    2    0    0 -0.16118369335E+02  0.45638393744E+02 -0.15533378068E+03  0.20522943363E+03  0.12509145531E+03 0.  0.
          5    1    3    3  502    0 -0.58605403154E+02 -0.14363421044E+02 -0.69222869768E+02  0.91924856496E+02  0.41800000000E+01 0.  1.
         -5    1    3    3    0  502  0.42487033819E+02  0.60001814788E+02 -0.86110910915E+02  0.11330457713E+03  0.41800000000E+01 0.  1.
        -11    1    1    2    0    0 -0.25611135912E+01 -0.62978121291E+02 -0.16642428674E+02  0.65190286825E+02  0.00000000000E+00 0. -1.
         11    1    1    2    0    0  0.18679482927E+02  0.17339727547E+02  0.26332350888E+02  0.36646717958E+02  0.00000000000E+00 0.  1.
</event>
<event>
 7    1  0.2394257E-009  0.1593480E+03  0.7561462E-02  0.1189435E+00
          3   -1    0    0  501    0  0.00000000000E+00  0.00000000000E+00  0.85470206066E+02  0.85470206066E+02  0.00000000000E+00 0. -1.
         -3   -1    0    0    0  501 -0.00000000000E+00 -0.00000000000E+00 -0.35015656416E+03  0.35015656416E+03  0.00000000000E+00 0.  1.
         25    2    1    2    0    0  0.90009390642E+02  0.94626288619E+02 -0.10480196310E+03  0.20901365119E+03  0.12508968788E+03 0.  0.
          5    1    3    3  502    0  0.72988986144E+01 -0.17592621786E+02  0.15436289533E+02  0.24870176856E+02  0.41800000000E+01 0.  1.
         -5    1    3    3    0  502  0.82710492028E+02  0.11221891040E+03 -0.12023825263E+03  0.18414347433E+03  0.41800000000E+01 0.  1.
        -11    1    1    2    0    0  0.71257021402E+01 -0.53951029535E+02 -0.65898907885E+02  0.85464350927E+02  0.00000000000E+00 0.  1.
         11    1    1    2    0    0 -0.97135092782E+02 -0.40675259083E+02 -0.93985487111E+02  0.14114876811E+03  0.00000000000E+00 0. -1.
</event>
<event>
 7    1  0.2612492E-009  0.1703438E+03  0.7561462E-02  0.1177490E+00
         -2   -1    0    0    0  501 -0.00000000000E+00  0.00000000000E+00  0.55546532423E+02  0.55546532423E+02  0.00000000000E+00 0.  1.
          2   -1    0    0  501    0  0.00000000000E+00 -0.00000000000E+00 -0.69277935501E+03  0.69277935501E+03  0.00000000000E+00 0. -1.
         25    2    1    2    0    0  0.14708009240E+03 -0.73057421273E+01 -0.20121947759E+03  0.27897002378E+03  0.12509623720E+03 0.  0.
          5    1    3    3  502    0  0.43746130281E+02 -0.45559136787E+02 -0.13809980049E+03  0.15191572056E+03  0.41800000000E+01 0.  1.
         -5    1    3    3    0  502  0.10333396212E+03  0.38253394660E+02 -0.63119677103E+02  0.12705430322E+03  0.41800000000E+01 0.  1.
        -11    1    1    2    0    0 -0.10072831632E+03 -0.32689258528E+02 -0.20990886585E+03  0.23510957720E+03  0.00000000000E+00 0. -1.
         11    1    1    2    0    0 -0.46351776081E+02  0.39995000656E+02 -0.22610447915E+03  0.23424628645E+03  0.00000000000E+00 0.  1.
</event>
<event>
 7    1  0.2394257E-009  0.1389769E+03  0.7561462E-02  0.1214712E+00
         -2   -1    0    0    0  501 -0.00000000000E+00  0.00000000000E+00  0.31181881562E+02  0.31181881562E+02  0.00000000000E+00 0.  1.
          2   -1    0    0  501    0  0.00000000000E+00 -0.00000000000E+00 -0.16668757998E+04  0.16668757998E+04  0.00000000000E+00 0. -1.
         25    2    1    2    0    0 -0.33999854610E+01  0.11016642629E+03 -0.14684946070E+04  0.14779286208E+04  0.12509354829E+03 0.  0.
          5    1    3    3  502    0  0.19030191055E+02  0.12141405268E+03 -0.84345563495E+03  0.85237221969E+03  0.41800000000E+01 0. -1.
         -5    1    3    3    0  502 -0.22430176516E+02 -0.11247626391E+02 -0.62503897208E+03  0.62555640108E+03  0.41800000000E+01 0. -1.
        -11    1    1    2    0    0  0.20256563321E+02 -0.11084243374E+03 -0.16904682249E+03  0.20315807065E+03  0.00000000000E+00 0.  1.
         11    1    1    2    0    0 -0.16856577860E+02  0.67600745576E+00  0.18475112433E+01  0.16970989984E+02  0.00000000000E+00 0. -1.
</event>
<event>
 7    1  0.2394257E-009  0.1112995E+03  0.7561462E-02  0.1258182E+00
          2   -1    0    0  501    0  0.00000000000E+00  0.00000000000E+00  0.49967202006E+02  0.49967202006E+02  0.00000000000E+00 0. -1.
         -2   -1    0    0    0  501 -0.00000000000E+00 -0.00000000000E+00 -0.34967660478E+03  0.34967660478E+03  0.00000000000E+00 0.  1.
         25    2    1    2    0    0  0.57382967479E+02 -0.46255851891E+02 -0.18926004129E+03  0.23853532804E+03  0.12508929092E+03 0.  0.
          5    1    3    3  502    0  0.12634149950E+02 -0.84137057964E+02 -0.96478453080E+02  0.12870210013E+03  0.41800000000E+01 0.  1.
         -5    1    3    3    0  502  0.44748817529E+02  0.37881206074E+02 -0.92781588210E+02  0.10983322792E+03  0.41800000000E+01 0.  1.
        -11    1    1    2    0    0 -0.19161231001E+02  0.33042341701E+02 -0.11427223967E+03  0.12048690334E+03  0.00000000000E+00 0.  1.
         11    1    1    2    0    0 -0.38221736478E+02  0.13213510190E+02  0.38228781785E+01  0.40621575407E+02  0.00000000000E+00 0. -1.
</event>
<event>
 7    1  0.2394257E-009  0.1143859E+03  0.7561462E-02  0.1252657E+00
          2   -1    0    0  501    0  0.00000000000E+00  0.00000000000E+00  0.20528010981E+03  0.20528010981E+03  0.00000000000E+00 0. -1.
         -2   -1    0    0    0  501 -0.00000000000E+00 -0.00000000000E+00 -0.71916442964E+02  0.71916442964E+02  0.00000000000E+00 0.  1.
         25    2    1    2    0    0  0.11120024031E+02 -0.12848169362E+02  0.59267193736E+02  0.13946433379E+03  0.12509584228E+03 0.  0.
          5    1    3    3  502    0  0.55309948387E+02 -0.41180506148E+02  0.15051101229E+02  0.70703836709E+02  0.41800000000E+01 0.  1.
         -5    1    3    3    0  502 -0.44189924356E+02  0.28332336786E+02  0.44216092507E+02  0.68760497082E+02  0.41800000000E+01 0.  1.
        -11    1    1    2    0    0 -0.12361323214E+02 -0.46273008394E+02  0.71793676657E+01  0.48430743722E+02  0.00000000000E+00 0.  1.
         11    1    1    2    0    0  0.12412991829E+01  0.59121177756E+02  0.66917105444E+02  0.89301475261E+02  0.00000000000E+00 0. -1.
</event>
<event>
 7    1  0.2394257E-009  0.9816311E+02  0.7561462E-02  0.1284207E+00
         -3   -1    0    0    0  501 -0.00000000000E+00  0.00000000000E+00  0.93178942584E+02  0.93178942584E+02  0.00000000000E+00 0.  1.
          3   -1    0    0  501    0  0.00000000000E+00 -0.00000000000E+00 -0.15856561899E+03  0.15856561899E+03  0.00000000000E+00 0. -1.
         25    2    1    2    0    0  0.36562744155E+01 -0.32233223731E+02 -0.83561470067E+02  0.15388871753E+03  0.12508744561E+03 0.  0.
          5    1    3    3  502    0  0.26586947446E+02 -0.63147685610E+02 -0.91480157120E+02  0.11437039617E+03  0.41800000000E+01 0.  1.
         -5    1    3    3    0  502 -0.22930673031E+02  0.30914461879E+02  0.79186870530E+01  0.39518321365E+02  0.41800000000E+01 0.  1.
        -11    1    1    2    0    0 -0.12291892287E+02  0.59296930968E+02 -0.55944207698E+01  0.60815410728E+02  0.00000000000E+00 0. -1.
         11    1    1    2    0    0  0.86356178716E+01 -0.27063707237E+02  0.23769214432E+02  0.37040433315E+02  0.00000000000E+00 0.  1.
</event>
<event>
 7    1  0.2394257E-009  0.8908466E+02  0.7561462E-02  0.1305084E+00
         -1   -1    0    0    0  501 -0.00000000000E+00  0.00000000000E+00  0.74780422347E+02  0.74780422347E+02  0.00000000000E+00 0.  1.
          1   -1    0    0  501    0  0.00000000000E+00 -0.00000000000E+00 -0.20760849964E+03  0.20760849964E+03  0.00000000000E+00 0. -1.
         25    2    1    2    0    0  0.61375282704E+02  0.93116313694E+01 -0.89368329343E+02  0.16579286823E+03  0.12508774945E+03 0.  0.
          5    1    3    3  502    0  0.21831968671E+02  0.30686296012E+02 -0.10986326313E+03  0.11621399487E+03  0.41800000000E+01 0.  1.
         -5    1    3    3    0  502  0.39543314033E+02 -0.21374664642E+02  0.20494933783E+02  0.49578873364E+02  0.41800000000E+01 0.  1.
        -11    1    1    2    0    0 -0.22470873009E+02  0.31536446166E+02 -0.45999620293E+02  0.60128634091E+02  0.00000000000E+00 0. -1.
         11    1    1    2    0    0 -0.38904409695E+02 -0.40848077535E+02  0.25398723401E+01  0.56467419664E+02  0.00000000000E+00 0.  1.
</event>
<event>
 7    1  0.2394257E-009  0.1299032E+03  0.7561462E-02  0.1227599E+00
          2   -1    0    0  501    0  0.00000000000E+00  0.00000000000E+00  0.12705018532E+03  0.12705018532E+03  0.00000000000E+00 0. -1.
         -2   -1    0    0    0  501 -0.00000000000E+00 -0.00000000000E+00 -0.21258564282E+03  0.21258564282E+03  0.00000000000E+00 0.  1.
         25    2    1    2    0    0 -0.55325033650E+01 -0.95685463936E+02  0.34766035905E+02  0.16136352796E+03  0.12507275603E+03 0.  0.
          5    1    3    3  502    0  0.29775169562E+02 -0.11319430647E+03  0.33056044786E+02  0.12169505428E+03  0.41800000000E+01 0.  1.
         -5    1    3    3    0  502 -0.35307672927E+02  0.17508842532E+02  0.17099911193E+01  0.39668473678E+02  0.41800000000E+01 0.  1.
        -11    1    1    2    0    0  0.19104803375E+02  0.27207317217E+02 -0.10028097520E+03  0.10564802701E+03  0.00000000000E+00 0.  1.
         11    1    1    2    0    0 -0.13572300010E+02  0.68478146719E+02 -0.20020518195E+02  0.72624273176E+02  0.00000000000E+00 0. -1.
</event>
<event>
 7    1  0.2394257E-009  0.9212162E+02  0.7561462E-02  0.1297794E+00
         -2   -1    0    0    0  501 -0.00000000000E+00  0.00000000000E+00  0.41580995536E+02  0.41580995536E+02  0.00000000000E+00 0.  1.
          2   -1    0    0  501    0  0.00000000000E+00 -0.00000000000E+00 -0.30588584963E+03  0.30588584963E+03  0.00000000000E+00 0. -1.
         25    2    1    2    0    0 -0.28431148747E+02  0.35768418222E+02 -0.16168877697E+03  0.20947033687E+03  0.12508737534E+03 0.  0.
          5    1    3    3  502    0 -0.34046887819E+02  0.79098897169E+02 -0.12712067048E+03  0.15360001096E+03  0.41800000000E+01 0. -1.
         -5    1    3    3    0  502  0.56157390720E+01 -0.43330478947E+02 -0.34568106493E+02  0.55870325913E+02  0.41800000000E+01 0. -1.
        -11    1    1    2    0    0  0.11381469002E+02 -0.35287805523E+02 -0.32977370037E+01  0.37224214224E+02  0.00000000000E+00 0.  1.
         11    1    1    2    0    0  0.17049679745E+02 -0.48061269926E+00 -0.99318340124E+02  0.10077229407E+03  0.00000000000E+00 0. -1.
</event>
<event>
 7    1  0.2394257E-009  0.5621093E+02  0.7561462E-02  0.1414458E+00
          1   -1    0    0  501    0  0.00000000000E+00  0.00000000000E+00  0.70750527343E+03  0.70750527343E+03  0.00000000000E+00 0. -1.
         -1   -1    0    0    0  501 -0.00000000000E+00 -0.00000000000E+00 -0.33893797998E+02  0.33893797998E+02  0.00000000000E+00 0.  1.
         25    2    1    2    0    0  0.38598024621E+02 -0.23150494669E+02  0.60344645137E+03  0.61791612735E+03  0.12508784057E+03 0.  0.
          5    1    3    3  502    0  0.22789261669E+02  0.56506310011E+01  0.57117920756E+03  0.57167686645E+03  0.41800000000E+01 0.  1.
         -5    1    3    3    0  502  0.15808762952E+02 -0.28801125670E+02  0.32267243813E+02  0.46239260907E+02  0.41800000000E+01 0.  1.
        -11    1    1    2    0    0 -0.21496924561E+02 -0.54080373765E+01  0.84412753231E+02  0.87274724531E+02  0.00000000000E+00 0. -1.
         11    1    1    2    0    0 -0.17101100059E+02  0.28558532046E+02 -0.14247729176E+02  0.36208219544E+02  0.00000000000E+00 0.  1.
</event>
<event>
 7    1  0.2394257E-009  0.1139637E+03  0.7561462E-02  0.1253401E+00
          2   -1    0    0  501    0  0.00000000000E+00  0.00000000000E+00  0.18276064087E+04  0.18276064087E+04  0.00000000000E+00 0. -1.
         -2   -1    0    0    0  501 -0.00000000000E+00 -0.00000000000E+00 -0.12057095359E+02  0.12057095359E+02  0.00000000000E+00 0.  1.
         25    2    1    2    0    0  0.65258375248E+02 -0.31052426694E+01  0.14652545761E+04  0.14720349527E+04  0.12509049116E+03 0.  0.
          5    1    3    3  502    0  0.74907508668E+02 -0.35221604514E+02  0.13315093478E+04  0.13340863210E+04  0.41800000000E+01 0. -1.
         -5    1    3    3    0  502 -0.96491334200E+01  0.32116361845E+02  0.13374522832E+03  0.13794863164E+03  0.41800000000E+01 0. -1.
        -11    1    1    2    0    0 -0.27044711648E+02 -0.43353448272E+02  0.17442040037E+03  0.18175096690E+03  0.00000000000E+00 0.  1.
         11    1    1    2    0    0 -0.38213663600E+02  0.46458690942E+02  0.17587433685E+03  0.18587758448E+03  0.00000000000E+00 0. -1.
</event>
<event>
 7    1  0.2394257E-009  0.8272957E+02  0.7561462E-02  0.1321479E+00
         -2   -1    0    0    0  501 -0.00000000000E+00  0.00000000000E+00  0.18281127823E+03  0.18281127823E+03  0.00000000000E+00 0.  1.
          2   -1    0    0  501    0  0.00000000000E+00 -0.00000000000E+00 -0.70001158860E+02  0.70001158860E+02  0.00000000000E+00 0. -1.
         25    2    1    2    0    0  0.17301917623E+02  0.24331008813E+02  0.70329772281E+02  0.14657778481E+03  0.12508963102E+03 0.  0.
          5    1    3    3  502    0  0.53903170396E+01  0.50497790750E+02 -0.17648918691E+02  0.53926237764E+02  0.41800000000E+01 0. -1.
         -5    1    3    3    0  502  0.11911600583E+02 -0.26166781937E+02  0.87978690973E+02  0.92651547049E+02  0.41800000000E+01 0. -1.
        -11    1    1    2    0    0  0.30055345705E+02 -0.23388486895E+02  0.44814440868E+02  0.58810536768E+02  0.00000000000E+00 0.  1.
         11    1    1    2    0    0 -0.47357263327E+02 -0.94252191837E+00 -0.23340937840E+01  0.47424115503E+02  0.00000000000E+00 0. -1.
</event>
<event>
 7    1  0.2394257E-009  0.9796118E+02  0.7561462E-02  0.1284643E+00
         -1   -1    0    0    0  501 -0.00000000000E+00  0.00000000000E+00  0.51713740856E+02  0.51713740856E+02  0.00000000000E+00 0.  1.
          1   -1    0    0  501    0  0.00000000000E+00 -0.00000000000E+00 -0.24045258363E+03  0.24045258363E+03  0.00000000000E+00 0. -1.
         25    2    1    2    0    0 -0.22250987258E+02  0.10622006929E+02 -0.11673524257E+03  0.17287245439E+03  0.12509930121E+03 0.  0.
          5    1    3    3  502    0  0.38794814096E+02 -0.21470071348E+02 -0.98708688091E+01  0.45616970696E+02  0.41800000000E+01 0.  1.
         -5    1    3    3    0  502 -0.61045801355E+02  0.32092078277E+02 -0.10686437376E+03  0.12725548369E+03  0.41800000000E+01 0.  1.
        -11    1    1    2    0    0  0.31822460703E+01  0.33800515636E+02 -0.60852183383E+02  0.69682062037E+02  0.00000000000E+00 0. -1.
         11    1    1    2    0    0  0.19068741188E+02 -0.44422522565E+02 -0.11151416820E+02  0.49611808056E+02  0.00000000000E+00 0.  1.
</event>
<event>
 7    1  0.2394257E-009  0.1294310E+03  0.7561462E-02  0.1228303E+00
          1   -1    0    0  501    0  0.00000000000E+00  0.00000000000E+00  0.91834616923E+03  0.91834616923E+03  0.00000000000E+00 0. -1.
         -1   -1    0    0    0  501 -0.00000000000E+00 -0.00000000000E+00 -0.24180928141E+02  0.24180928141E+02  0.00000000000E+00 0.  1.
         25    2    1    2    0    0 -0.31623431919E+02 -0.87301544685E+02  0.36281760100E+03  0.39484881349E+03  0.12508945904E+03 0.  0.
          5    1    3    3  502    0 -0.60381148586E+02 -0.35528410837E+02  0.82504545228E+02  0.10831723531E+03  0.41800000000E+01 0. -1.
         -5    1    3    3    0  502  0.28757716667E+02 -0.51773133848E+02  0.28031305577E+03  0.28653157818E+03  0.41800000000E+01 0. -1.
        -11    1    1    2    0    0  0.48052100931E+02  0.84826160968E+01  0.26395348114E+03  0.26842578003E+03  0.00000000000E+00 0.  1.
         11    1    1    2    0    0 -0.16428669012E+02  0.78818928588E+02  0.26739415895E+03  0.27925250386E+03  0.00000000000E+00 0. -1.
</event>
<event>
 7    1  0.2394257E-009  0.1189833E+03  0.7561462E-02  0.1244784E+00
          1   -1    0    0  501    0  0.00000000000E+00  0.00000000000E+00  0.62576993609E+02  0.62576993609E+02  0.00000000000E+00 0. -1.
         -1   -1    0    0    0  501 -0.00000000000E+00 -0.00000000000E+00 -0.26854703259E+03  0.26854703259E+03  0.00000000000E+00 0.  1.
         25    2    1    2    0    0 -0.86372880990E+02  0.26062656693E+02 -0.11406038692E+03  0.19182455324E+03  0.12508937093E+03 0.  0.
          5    1    3    3  502    0  0.21029101893E+02  0.27319459543E+02  0.49919057790E+00  0.34731795050E+02  0.41800000000E+01 0.  1.
         -5    1    3    3    0  502 -0.10740198288E+03 -0.12568028495E+01 -0.11455957750E+03  0.15709275819E+03  0.41800000000E+01 0.  1.
        -11    1    1    2    0    0  0.15643743167E+02 -0.19082062052E+02 -0.52552673127E+02  0.58057172212E+02  0.00000000000E+00 0.  1.
         11    1    1    2    0    0  0.70729137823E+02 -0.69805946414E+01 -0.39356978929E+02  0.81242300738E+02  0.00000000000E+00 0. -1.
</event>
<event>
 7    1  0.2394257E-009  0.2671757E+03  0.7561462E-02  0.1102907E+00
         -1   -1    0    0    0  501 -0.00000000000E+00  0.00000000000E+00  0.56563292306E+02  0.56563292306E+02  0.00000000000E+00 0.  1.
          1   -1    0    0  501    0  0.00000000000E+00 -0.00000000000E+00 -0.15093321545E+04  0.15093321545E+04  0.00000000000E+00 0. -1.
         25    2    1    2    0    0 -0.21578815623E+03  0.13623863490E+03 -0.98121381662E+03  0.10215450527E+04  0.12509295234E+03 0.  0.
          5    1    3    3  502    0 -0.19687623966E+03  0.69338176420E+02 -0.81530538673E+03  0.84161058839E+03  0.41800000000E+01 0.  1.
         -5    1    3    3    0  502 -0.18911916566E+02  0.66900458478E+02 -0.16590842989E+03  0.17993446429E+03  0.41800000000E+01 0.  1.
        -11    1    1    2    0    0  0.89702263243E+02 -0.68013858029E+02 -0.30207551721E+03  0.32236935185E+03  0.00000000000E+00 0.  1.
         11    1    1    2    0    0  0.12608589299E+03 -0.68224776869E+02 -0.16947952832E+03  0.22198104223E+03  0.00000000000E+00 0. -1.
</event>
<event>
 7    1  0.2394257E-009  0.1327358E+03  0.7561462E-02  0.1223452E+00
         -1   -1    0    0    0  501 -0.00000000000E+00  0.00000000000E+00  0.13270521522E+03  0.13270521522E+03  0.00000000000E+00 0.  1.
          1   -1    0    0  501    0  0.00000000000E+00 -0.00000000000E+00 -0.18924325694E+03  0.18924325694E+03  0.00000000000E+00 0. -1.
         25    2    1    2    0    0  0.35764945942E+02  0.69444260037E+02 -0.11552034127E+03  0.18733452546E+03  0.12509052152E+03 0.  0.
          5    1    3    3  502    0 -0.28969586143E+02  0.76487114426E+02 -0.70483865717E+02  0.10805074419E+03  0.41800000000E+01 0. -1.
         -5    1    3    3    0  502  0.64734532085E+02 -0.70428543893E+01 -0.45036475550E+02  0.79283781268E+02  0.41800000000E+01 0. -1.
        -11    1    1    2    0    0 -0.64950993269E+02 -0.37267388868E+02  0.50586038773E+02  0.90368341351E+02  0.00000000000E+00 0.  1.
         11    1    1    2    0    0  0.29186047328E+02 -0.32176871169E+02  0.83962607749E+01  0.44245605339E+02  0.00000000000E+00 0. -1.
</event>
<event>
 7    1  0.2394257E-009  0.1081340E+03  0.7561462E-02  0.1264065E+00
          1   -1    0    0  501    0  0.00000000000E+00  0.00000000000E+00  0.41745472971E+03  0.41745472971E+03  0.00000000000E+00 0. -1.
         -1   -1    0    0    0  501 -0.00000000000E+00 -0.00000000000E+00 -0.49325816538E+02  0.49325816538E+02  0.00000000000E+00 0.  1.
         25    2    1    2    0    0  0.14619387587E+02  0.91811236280E+02  0.23529464499E+03  0.28223069380E+03  0.12509022726E+03 0.  0.
          5    1    3    3  502    0  0.42440014835E+02  0.63164527495E+02  0.46641423279E+02  0.89352152511E+02  0.41800000000E+01 0. -1.
         -5    1    3    3    0  502 -0.27820627248E+02  0.28646708785E+02  0.18865322172E+03  0.19287854129E+03  0.41800000000E+01 0. -1.
        -11    1    1    2    0    0  0.21039453900E+01 -0.78504998445E+02  0.37826757874E+02  0.87168371433E+02  0.00000000000E+00 0.  1.
         11    1    1    2    0    0 -0.16723332977E+02 -0.13306237835E+02  0.95007510305E+02  0.97381481019E+02  0.00000000000E+00 0. -1.
</event>
<event>
 7    1  0.2394257E-009  0.7696375E+02  0.7561462E-02  0.1337896E+00
          1   -1    0    0  501    0  0.00000000000E+00  0.00000000000E+00  0.13739711953E+02  0.13739711953E+02  0.00000000000E+00 0. -1.
         -1   -1    0    0    0  501 -0.00000000000E+00 -0.00000000000E+00 -0.11419243635E+04  0.11419243635E+04  0.00000000000E+00 0.  1.
         25    2    1    2    0    0 -0.48984473028E+01  0.13111079682E+02 -0.90147652423E+03  0.91022068077E+03  0.12508344722E+03 0.  0.
          5    1    3    3  502    0  0.27473935974E+02  0.27651305315E+02 -0.92618064973E+02  0.10057330761E+03  0.41800000000E+01 0. -1.
         -5    1    3    3    0  502 -0.32372383277E+02 -0.14540225633E+02 -0.80885845926E+03  0.80964737316E+03  0.41800000000E+01 0. -1.
        -11    1    1    2    0    0  0.22558093084E+02  0.26988908483E+02 -0.38275394221E+02  0.51983406463E+02  0.00000000000E+00 0. -1.
         11    1    1    2    0    0 -0.17659645781E+02 -0.40099988166E+02 -0.18843273312E+03  0.19345998824E+03  0.00000000000E+00 0.  1.
</event>
<event>
 7    1  0.2394257E-009  0.1098056E+03  0.7561462E-02  0.1260930E+00
          2   -1    0    0  501    0  0.00000000000E+00  0.00000000000E+00  0.22795558280E+03  0.22795558280E+03  0.00000000000E+00 0. -1.
         -2   -1    0    0    0  501 -0.00000000000E+00 -0.00000000000E+00 -0.63608013010E+02  0.63608013010E+02  0.00000000000E+00 0.  1.
         25    2    1    2    0    0  0.54287230771E+01 -0.22836996757E+02  0.36061768317E+02  0.13226802090E+03  0.12507349345E+03 0.  0.
          5    1    3    3  502    0  0.63409100737E+02 -0.13889357135E+01  0.29133406953E+02  0.69920461950E+02  0.41800000000E+01 0. -1.
         -5    1    3    3    0  502 -0.57980377660E+02 -0.21448061044E+02  0.69283613646E+01  0.62347558952E+02  0.41800000000E+01 0. -1.
        -11    1    1    2    0    0 -0.34091428297E+02 -0.22215199347E+02  0.48790409033E+02  0.63531445591E+02  0.00000000000E+00 0. -1.
         11    1    1    2    0    0  0.28662705220E+02  0.45052196104E+02  0.79495392440E+02  0.95764129315E+02  0.00000000000E+00 0.  1.
</event>
<event>
 7    1  0.2394257E-009  0.1119396E+03  0.7561462E-02  0.1257020E+00
          1   -1    0    0  501    0  0.00000000000E+00  0.00000000000E+00  0.40821053915E+03  0.40821053915E+03  0.00000000000E+00 0. -1.
         -1   -1    0    0    0  501 -0.00000000000E+00 -0.00000000000E+00 -0.56166342012E+02  0.56166342012E+02  0.00000000000E+00 0.  1.
         25    2    1    2    0    0 -0.43102130666E+02  0.96249480979E+02  0.16677236745E+03  0.23362624865E+03  0.12508575162E+03 0.  0.
          5    1    3    3  502    0 -0.10310319465E+02  0.80726158241E+02  0.17771021095E+03  0.19550295851E+03  0.41800000000E+01 0. -1.
         -5    1    3    3    0  502 -0.32791811201E+02  0.15523322738E+02 -0.10937843502E+02  0.38123290140E+02  0.41800000000E+01 0. -1.
        -11    1    1    2    0    0  0.22847029741E+02 -0.62041216300E+02  0.34004711213E+02  0.74346618435E+02  0.00000000000E+00 0.  1.
         11    1    1    2    0    0  0.20255100924E+02 -0.34208264679E+02  0.15126711848E+03  0.15640401408E+03  0.00000000000E+00 0. -1.
</event>
<event>
 7    1  0.2394257E-009  0.1076350E+03  0.7561462E-02  0.1265013E+00
          1   -1    0    0  501    0  0.00000000000E+00  0.00000000000E+00  0.41298284428E+03  0.41298284428E+03  0.00000000000E+00 0. -1.
         -1   -1    0    0    0  501 -0.00000000000E+00 -0.00000000000E+00 -0.39232076715E+02  0.39232076715E+02  0.00000000000E+00 0.  1.
         25    2    1    2    0    0 -0.39040854407E+02  0.22857096142E+02  0.14038077350E+03  0.19339328672E+03  0.12509023392E+03 0.  0.
          5    1    3    3  502    0  0.23170035744E+02 -0.22462694238E+02 -0.78910389937E+00  0.32550242300E+02  0.41800000000E+01 0.  1.
         -5    1    3    3    0  502 -0.62210890150E+02  0.45319790380E+02  0.14116987739E+03  0.16084304442E+03  0.41800000000E+01 0.  1.
        -11    1    1    2    0    0  0.14912343153E+02 -0.59740338878E+02  0.91703022571E+02  0.11045691656E+03  0.00000000000E+00 0. -1.
         11    1    1    2    0    0  0.24128511254E+02  0.36883242736E+02  0.14166697150E+03  0.14836471772E+03  0.00000000000E+00 0.  1.
</event>
<event>
 7    1  0.2394257E-009  0.2014169E+03  0.7561462E-02  0.1148549E+00
         -1   -1    0    0    0  501 -0.00000000000E+00  0.00000000000E+00  0.20105628000E+03  0.20105628000E+03  0.00000000000E+00 0.  1.
          1   -1    0    0  501    0  0.00000000000E+00 -0.00000000000E+00 -0.26005980503E+03  0.26005980503E+03  0.00000000000E+00 0. -1.
         25    2    1    2    0    0 -0.16192868311E+03 -0.88144264661E+02 -0.11048587228E+03  0.24868149244E+03  0.12508016190E+03 0.  0.
          5    1    3    3  502    0 -0.12549468755E+03 -0.10137081445E+03 -0.12796705643E+03  0.20595630254E+03  0.41800000000E+01 0. -1.
         -5    1    3    3    0  502 -0.36433995564E+02  0.13226549790E+02  0.17481184157E+02  0.42725189896E+02  0.41800000000E+01 0. -1.
        -11    1    1    2    0    0  0.15308562442E+03  0.46635224831E+02  0.23869113978E+02  0.16180169097E+03  0.00000000000E+00 0.  1.
         11    1    1    2    0    0  0.88430586960E+01  0.41509039830E+02  0.27613233274E+02  0.50632901621E+02  0.00000000000E+00 0. -1.
</event>
<event>
 7    1  0.2394257E-009  0.1454424E+03  0.7561462E-02  0.1206188E+00
         -1   -1    0    0    0  501 -0.00000000000E+00  0.00000000000E+00  0.58502531161E+02  0.58502531161E+02  0.00000000000E+00 0.  1.
          1   -1    0    0  501    0  0.00000000000E+00 -0.00000000000E+00 -0.44261812960E+03  0.44261812960E+03  0.00000000000E+00 0. -1.
         25    2    1    2    0    0  0.11279877834E+03 -0.35580358752E+02 -0.23256454627E+03  0.28934887954E+03  0.12508788746E+03 0.  0.
          5    1    3    3  502    0  0.57671746732E-01  0.25123658974E+02 -0.10690136376E+03  0.10989347360E+03  0.41800000000E+01 0.  1.
         -5    1    3    3    0  502  0.11274110659E+03 -0.60704017726E+02 -0.12566318251E+03  0.17945540594E+03  0.41800000000E+01 0.  1.
        -11    1    1    2    0    0 -0.10185439216E+03  0.18822943120E+01 -0.14256069051E+03  0.17521818032E+03  0.00000000000E+00 0. -1.
         11    1    1    2    0    0 -0.10944386185E+02  0.33698064440E+02 -0.89903616563E+01  0.36553600899E+02  0.00000000000E+00 0.  1.
</event>
<event>
 7    1  0.2394257E-009  0.1018013E+03  0.7561462E-02  0.1276553E+00
          1   -1    0    0  501    0  0.00000000000E+00  0.00000000000E+00  0.10420015705E+03  0.10420015705E+03  0.00000000000E+00 0. -1.
         -1   -1    0    0    0  501 -0.00000000000E+00 -0.00000000000E+00 -0.19894522522E+03  0.19894522522E+03  0.00000000000E+00 0.  1.
         25    2    1    2    0    0 -0.70308010948E+02 -0.24186738673E+02 -0.11178753339E+03  0.18350033943E+03  0.12509079590E+03 0.  0.
          5    1    3    3  502    0 -0.85015234231E+02 -0.47978409643E+02 -0.11933155187E+03  0.15423037805E+03  0.41800000000E+01 0.  1.
         -5    1    3    3    0  502  0.14707223283E+02  0.23791670970E+02  0.75440184789E+01  0.29269961378E+02  0.41800000000E+01 0.  1.
        -11    1    1    2    0    0  0.28465412802E+02  0.21521543595E+02  0.53348200161E+02  0.64183230093E+02  0.00000000000E+00 0. -1.
         11    1    1    2    0    0  0.41842598146E+02  0.26651950782E+01 -0.36305734941E+02  0.55461812754E+02  0.00000000000E+00 0.  1.
</event>
<event>
 7    1  0.2394257E-009  0.1256487E+03  0.7561462E-02  0.1234059E+00
          1   -1    0    0  501    0  0.00000000000E+00  0.00000000000E+00  0.32535559005E+03  0.32535559005E+03  0.00000000000E+00 0. -1.
         -1   -1    0    0    0  501 -0.00000000000E+00 -0.00000000000E+00 -0.74122047449E+02  0.74122047449E+02  0.00000000000E+00 0.  1.
         25    2    1    2    0    0  0.10402185434E+03  0.21677722632E+01  0.14964851244E+03  0.22106225302E+03  0.12509435246E+03 0.  0.
          5    1    3    3  502    0  0.10638045210E+03  0.29866466674E+00  0.16971594673E+03  0.20034436544E+03  0.41800000000E+01 0.  1.
         -5    1    3    3    0  502 -0.23585977689E+01  0.18691075965E+01 -0.20067434290E+02  0.20717887576E+02  0.41800000000E+01 0.  1.
        -11    1    1    2    0    0 -0.12179318207E+03 -0.10496877911E+00  0.10426252073E+03  0.16032549219E+03  0.00000000000E+00 0. -1.
         11    1    1    2    0    0  0.17771327731E+02 -0.20628034841E+01 -0.26774905642E+01  0.18089892295E+02  0.00000000000E+00 0.  1.
</event>
<event>
 7    1  0.2394257E-009  0.1221509E+03  0.7561462E-02  0.1239590E+00
          1   -1    0    0  501    0  0.00000000000E+00  0.00000000000E+00  0.37793563544E+03  0.37793563544E+03  0.00000000000E+00 0. -1.
         -1   -1    0    0    0  501 -0.00000000000E+00 -0.00000000000E+00 -0.51910888584E+02  0.51910888584E+02  0.00000000000E+00 0.  1.
         25    2    1    2    0    0 -0.56174549602E+02  0.55120968389E+02  0.23942338294E+03  0.28136752309E+03  0.12510086159E+03 0.  0.
          5    1    3    3  502    0 -0.69220462241E+02  0.73415559842E+02  0.10756594029E+03  0.14754396203E+03  0.41800000000E+01 0.  1.
         -5    1    3    3    0  502  0.13045912639E+02 -0.18294591453E+02  0.13185744265E+03  0.13382356106E+03  0.41800000000E+01 0.  1.
        -11    1    1    2    0    0  0.33035918340E+02 -0.79957036251E+02  0.58816393799E+02  0.10461294244E+03  0.00000000000E+00 0. -1.
         11    1    1    2    0    0  0.23138631262E+02  0.24836067862E+02  0.27784970118E+02  0.43866058497E+02  0.00000000000E+00 0.  1.
</event>
<event>
 7    1  0.2394257E-009  0.1125398E+03  0.7561462E-02  0.1255938E+00
          1   -1    0    0  501    0  0.00000000000E+00  0.00000000000E+00  0.10272953247E+03  0.10272953247E+03  0.00000000000E+00 0. -1.
         -1   -1    0    0    0  501 -0.00000000000E+00 -0.00000000000E+00 -0.18254833027E+03  0.18254833027E+03  0.00000000000E+00 0.  1.
         25    2    1    2    0    0  0.61696900923E+02  0.46351163989E+02 -0.11568043248E+02  0.14743108249E+03  0.12508863447E+03 0.  0.
          5    1    3    3  502    0 -0.21236484774E+02  0.57118558792E+02  0.75377962307E+01  0.61545177033E+02  0.41800000000E+01 0.  1.
         -5    1    3    3    0  502  0.82933385697E+02 -0.10767394803E+02 -0.19105839478E+02  0.85885905457E+02  0.41800000000E+01 0.  1.
        -11    1    1    2    0    0 -0.56096653995E+02 -0.31374273682E+02 -0.90158987500E+02  0.11072408349E+03  0.00000000000E+00 0.  1.
         11    1    1    2    0    0 -0.56002469274E+01 -0.14976890307E+02  0.21908232945E+02  0.27122696763E+02  0.00000000000E+00 0. -1.
</event>
<event>
 7    1  0.2394257E-009  0.1201521E+03  0.7561462E-02  0.1242846E+00
         -1   -1    0    0    0  501 -0.00000000000E+00  0.00000000000E+00  0.42481171770E+02  0.42481171770E+02  0.00000000000E+00 0.  1.
          1   -1    0    0  501    0  0.00000000000E+00 -0.00000000000E+00 -0.36119493340E+03  0.36119493340E+03  0.00000000000E+00 0. -1.
         25    2    1    2    0    0  0.42594162092E+02 -0.42807472807E+02 -0.14601620004E+03  0.20153471511E+03  0.12509503727E+03 0.  0.
          5    1    3    3  502    0  0.86370856611E+02 -0.21525911979E+02 -0.10523936134E+03  0.13789882281E+03  0.41800000000E+01 0. -1.
         -5    1    3    3    0  502 -0.43776694519E+02 -0.21281560828E+02 -0.40776838697E+02  0.63635892297E+02  0.41800000000E+01 0. -1.
        -11    1    1    2    0    0 -0.65531046188E+02  0.44698466883E+02 -0.11215370481E+03  0.13737075547E+03  0.00000000000E+00 0. -1.
         11    1    1    2    0    0  0.22936884096E+02 -0.18909940764E+01 -0.60543856790E+02  0.64770634593E+02  0.00000000000E+00 0.  1.
</event>
<event>
 7    1  0.2394257E-009  0.1060191E+03  0.7561462E-02  0.1268125E+00
         -2   -1    0    0    0  501 -0.00000000000E+00  0.00000000000E+00  0.25818899296E+02  0.25818899296E+02  0.00000000000E+00 0. -1.
          2   -1    0    0  501    0  0.00000000000E+00 -0.00000000000E+00 -0.66416909863E+03  0.66416909863E+03  0.00000000000E+00 0.  1.
         25    2    1    2    0    0 -0.45823869117E+02 -0.21276674011E+02 -0.49451714588E+03  0.51258758072E+03  0.12508515699E+03 0.  0.
          5    1    3    3  502    0 -0.48181784185E+02 -0.62040152308E+02 -0.42192245747E+03  0.42919284401E+03  0.41800000000E+01 0. -1.
         -5    1    3    3    0  502  0.23579150681E+01  0.40763478297E+02 -0.72594688409E+02  0.83394736714E+02  0.41800000000E+01 0. -1.
        -11    1    1    2    0    0 -0.11322376195E+01 -0.25808042314E+02 -0.84225507135E+02  0.88098087733E+02  0.00000000000E+00 0.  1.
         11    1    1    2    0    0  0.46956106737E+02  0.47084716325E+02 -0.59607546316E+02  0.89302329472E+02  0.00000000000E+00 0. -1.
</event>
<event>
 7    1  0.2394257E-009  0.1469655E+03  0.7561462E-02  0.1204252E+00
         -2   -1    0    0    0  501 -0.00000000000E+00  0.00000000000E+00  0.26782329268E+03  0.26782329268E+03  0.00000000000E+00 0. -1.
          2   -1    0    0  501    0  0.00000000000E+00 -0.00000000000E+00 -0.95374189651E+02  0.95374189651E+02  0.00000000000E+00 0.  1.
         25    2    1    2    0    0 -0.10815039413E+03  0.43025013216E+02  0.10082197003E+03  0.19839582648E+03  0.12509266489E+03 0.  0.
          5    1    3    3  502    0  0.21970715693E+01  0.49644230904E+02  0.17595999792E+01  0.49899352477E+02  0.41800000000E+01 0. -1.
         -5    1    3    3    0  502 -0.11034746570E+03 -0.66192176887E+01  0.99062370050E+02  0.14849647400E+03  0.41800000000E+01 0. -1.
        -11    1    1    2    0    0  0.54397030591E+02 -0.56073443987E+02  0.76413174494E+02  0.10928056229E+03  0.00000000000E+00 0.  1.
         11    1    1    2    0    0  0.53753363543E+02  0.13048430771E+02 -0.47860414939E+01  0.55521093568E+02  0.00000000000E+00 0. -1.
</event>
<event>
 7    1  0.2394257E-009  0.1552977E+03  0.7561462E-02  0.1194110E+00
         -1   -1    0    0    0  501 -0.00000000000E+00  0.00000000000E+00  0.17237058573E+03  0.17237058573E+03  0.00000000000E+00 0.  1.
          1   -1    0    0  501    0  0.00000000000E+00 -0.00000000000E+00 -0.21301498081E+03  0.21301498081E+03  0.00000000000E+00 0. -1.
         25    2    1    2    0    0  0.11660168776E+03  0.73906691396E+02  0.58501247447E+02  0.19526387393E+03  0.12508969537E+03 0.  0.
          5    1    3    3  502    0  0.20992674512E+02 -0.25338672455E+02  0.46161213486E+02  0.56842508173E+02  0.41800000000E+01 0.  1.
         -5    1    3    3    0  502  0.95609013245E+02  0.99245363851E+02  0.12340033962E+02  0.13842136576E+03  0.41800000000E+01 0.  1.
        -11    1    1    2    0    0 -0.93052954406E+02 -0.68075334358E+02 -0.33389683853E+02  0.12003322232E+03  0.00000000000E+00 0.  1.
         11    1    1    2    0    0 -0.23548733350E+02 -0.58313570385E+01 -0.65755958670E+02  0.70088470292E+02  0.00000000000E+00 0. -1.
</event>
<event>
 7    1  0.2394257E-009  0.9672138E+02  0.7561462E-02  0.1287345E+00
         -2   -1    0    0    0  501 -0.00000000000E+00  0.00000000000E+00  0.41519961212E+02  0.41519961212E+02  0.00000000000E+00 0. -1.
          2   -1    0    0  501    0  0.00000000000E+00 -0.00000000000E+00 -0.36861561596E+03  0.36861561596E+03  0.00000000000E+00 0.  1.
         25    2    1    2    0    0  0.23551366974E+02 -0.16417499725E+02 -0.26528985775E+03  0.29470408936E+03  0.12509032928E+03 0.  0.
          5    1    3    3  502    0  0.92049990372E+01  0.41372879235E+02 -0.30343972474E+02  0.52294131688E+02  0.41800000000E+01 0.  1.
         -5    1    3    3    0  502  0.14346367936E+02 -0.57790378960E+02 -0.23494588527E+03  0.24240995767E+03  0.41800000000E+01 0.  1.
        -11    1    1    2    0    0 -0.43703497053E+02 -0.21133377258E+02 -0.53079064866E+02  0.71930538828E+02  0.00000000000E+00 0.  1.
         11    1    1    2    0    0  0.20152130080E+02  0.37550876983E+02 -0.87267321405E+01  0.43500948987E+02  0.00000000000E+00 0. -1.
</event>
<event>
 7    1  0.2394257E-009  0.9801967E+02  0.7561462E-02  0.1284516E+00
         -2   -1    0    0    0  501 -0.00000000000E+00  0.00000000000E+00  0.43935913508E+02  0.43935913508E+02  0.00000000000E+00 0.  1.
          2   -1    0    0  501    0  0.00000000000E+00 -0.00000000000E+00 -0.26928182349E+03  0.26928182349E+03  0.00000000000E+00 0. -1.
         25    2    1    2    0    0  0.33916126853E+01 -0.43235379441E+01 -0.11369962461E+03  0.16913110601E+03  0.12509008901E+03 0.  0.
          5    1    3    3  502    0 -0.45022895351E+02 -0.32877083976E+02 -0.19220717073E+02  0.59117443461E+02  0.41800000000E+01 0.  1.
         -5    1    3    3    0  502  0.48414508036E+02  0.28553546032E+02 -0.94478907535E+02  0.11001366255E+03  0.41800000000E+01 0.  1.
        -11    1    1    2    0    0  0.88557536746E+01 -0.38358095378E+02 -0.24745742461E+02  0.46498598088E+02  0.00000000000E+00 0.  1.
         11    1    1    2    0    0 -0.12247366360E+02  0.42681633322E+02 -0.86900542908E+02  0.97588032891E+02  0.00000000000E+00 0. -1.
</event>
<event>
 7    1  0.2394257E-009  0.1276277E+03  0.7561462E-02  0.1231019E+00
         -1   -1    0    0    0  501 -0.00000000000E+00  0.00000000000E+00  0.43569703806E+02  0.43569703806E+02  0.00000000000E+00 0.  1.
          1   -1    0    0  501    0  0.00000000000E+00 -0.00000000000E+00 -0.45097244946E+03  0.45097244946E+03  0.00000000000E+00 0. -1.
         25    2    1    2    0    0 -0.84685078290E+00  0.85180782997E+02 -0.21990311620E+03  0.26694693836E+03  0.12508718733E+03 0.  0.
          5    1    3    3  502    0 -0.44754608833E+02  0.95793533173E+02 -0.14823371792E+03  0.18212655912E+03  0.41800000000E+01 0. -1.
         -5    1    3    3    0  502  0.43907758050E+02 -0.10612750176E+02 -0.71669398280E+02  0.84820379232E+02  0.41800000000E+01 0. -1.
        -11    1    1    2    0    0  0.17743661044E+02 -0.52695421570E+00  0.34100528318E+01  0.18076051790E+02  0.00000000000E+00 0.  1.
         11    1    1    2    0    0 -0.16896810261E+02 -0.84653828781E+02 -0.19090968228E+03  0.20951916312E+03  0.00000000000E+00 0. -1.
</event>
<event>
 7    1  0.2394257E-009  0.2919485E+03  0.7561462E-02  0.1089336E+00
          1   -1    0    0  501    0  0.00000000000E+00  0.00000000000E+00  0.21342391815E+04  0.21342391815E+04  0.00000000000E+00 0. -1.
         -1   -1    0    0    0  501 -0.00000000000E+00 -0.00000000000E+00 -0.43449275754E+02  0.43449275754E+02  0.00000000000E+00 0.  1.
         25    2    1    2    0    0  0.25781160125E+03 -0.11917428244E+03  0.11339506461E+04  0.11756531331E+04  0.12508752986E+03 0.  0.
          5    1    3    3  502    0  0.12445247027E+03 -0.87743516690E+02  0.80497329370E+03  0.81925992094E+03  0.41800000000E+01 0. -1.
         -5    1    3    3    0  502  0.13335913099E+03 -0.31430765745E+02  0.32897735244E+03  0.35639321215E+03  0.41800000000E+01 0. -1.
        -11    1    1    2    0    0 -0.11460159134E+03  0.95830849277E+02  0.41362272526E+03  0.43977361820E+03  0.00000000000E+00 0.  1.
         11    1    1    2    0    0 -0.14321000992E+03  0.23343433158E+02  0.54321653435E+03  0.56226170597E+03  0.00000000000E+00 0. -1.
</event>
<event>
 7    1  0.2394257E-009  0.1642099E+03  0.7561462E-02  0.1184024E+00
         -1   -1    0    0    0  501 -0.00000000000E+00  0.00000000000E+00  0.18267635246E+03  0.18267635246E+03  0.00000000000E+00 0.  1.
          1   -1    0    0  501    0  0.00000000000E+00 -0.00000000000E+00 -0.36503451355E+03  0.36503451355E+03  0.00000000000E+00 0. -1.
         25    2    1    2    0    0 -0.14834683775E+03 -0.24241832738E+02 -0.28396133202E+03  0.34478460495E+03  0.12509170637E+03 0.  0.
          5    1    3    3  502    0 -0.11130541530E+03  0.69649715460E+01 -0.27302696139E+03  0.29495525144E+03  0.41800000000E+01 0.  1.
         -5    1    3    3    0  502 -0.37041422444E+02 -0.31206804284E+02 -0.10934370631E+02  0.49829353511E+02  0.41800000000E+01 0.  1.
        -11    1    1    2    0    0  0.21810864269E+02 -0.24321140889E+02  0.46020492609E+02  0.56436844652E+02  0.00000000000E+00 0.  1.
         11    1    1    2    0    0  0.12653597348E+03  0.48562973627E+02  0.55582678316E+02  0.14648941641E+03  0.00000000000E+00 0. -1.
</event>
<event>
 7    1  0.2471671E-009  0.1544411E+03  0.7561462E-02  0.1195120E+00
          1   -1    0    0  501    0  0.00000000000E+00  0.00000000000E+00  0.49737863910E+03  0.49737863910E+03  0.00000000000E+00 0. -1.
         -1   -1    0    0    0  501 -0.00000000000E+00 -0.00000000000E+00 -0.56407672140E+02  0.56407672140E+02  0.00000000000E+00 0.  1.
         25    2    1    2    0    0  0.88180363413E+02  0.88933024125E+02  0.27269683173E+03  0.32510875257E+03  0.12508908701E+03 0.  0.
          5    1    3    3  502    0  0.80639976269E+02  0.11374937473E+03  0.26184377391E+03  0.29668394018E+03  0.41800000000E+01 0. -1.
         -5    1    3    3    0  502  0.75403871440E+01 -0.24816350600E+02  0.10853057818E+02  0.28424812390E+02  0.41800000000E+01 0. -1.
        -11    1    1    2    0    0 -0.82282871569E+02 -0.35931596329E+02  0.60017106116E+02  0.10799816478E+03  0.00000000000E+00 0. -1.
         11    1    1    2    0    0 -0.58974918435E+01 -0.53001427796E+02  0.10825702912E+03  0.12067939390E+03  0.00000000000E+00 0.  1.
</event>
<event>
 7    1  0.2394257E-009  0.2208725E+03  0.7561462E-02  0.1133234E+00
          1   -1    0    0  501    0  0.00000000000E+00  0.00000000000E+00  0.86880185749E+03  0.86880185749E+03  0.00000000000E+00 0. -1.
         -1   -1    0    0    0  501 -0.00000000000E+00 -0.00000000000E+00 -0.62497619340E+02  0.62497619340E+02  0.00000000000E+00 0.  1.
         25    2    1    2    0    0 -0.14590637290E+03  0.13983250009E+03  0.34287742329E+03  0.41719915037E+03  0.12509358868E+03 0.  0.
          5    1    3    3  502    0 -0.26556465417E+02 -0.15662853889E+02  0.10186205714E+03  0.10650784916E+03  0.41800000000E+01 0. -1.
         -5    1    3    3    0  502 -0.11934990749E+03  0.15549535398E+03  0.24101536615E+03  0.31069130121E+03  0.41800000000E+01 0. -1.
        -11    1    1    2    0    0  0.87266979121E+02 -0.34156248799E+02  0.27223964758E+03  0.28791769778E+03  0.00000000000E+00 0.  1.
         11    1    1    2    0    0  0.58639393782E+02 -0.10567625129E+03  0.19118716727E+03  0.22618262868E+03  0.00000000000E+00 0. -1.
</event>
<event>
 7    1  0.2394257E-009  0.1008069E+03  0.7561462E-02  0.1278608E+00
         -1   -1    0    0    0  501 -0.00000000000E+00  0.00000000000E+00  0.25712214443E+03  0.25712214443E+03  0.00000000000E+00 0.  1.
          1   -1    0    0  501    0  0.00000000000E+00 -0.00000000000E+00 -0.11280984808E+03  0.11280984808E+03  0.00000000000E+00 0. -1.
         25    2    1    2    0    0  0.13032243699E+02  0.60609789133E+02  0.20152810558E+03  0.24516218875E+03  0.12509010967E+03 0.  0.
          5    1    3    3  502    0 -0.54519664140E+02  0.19326216330E+02  0.63585983011E+02  0.86061292409E+02  0.41800000000E+01 0. -1.
         -5    1    3    3    0  502  0.67551907839E+02  0.41283572802E+02  0.13794212257E+03  0.15910089634E+03  0.41800000000E+01 0. -1.
        -11    1    1    2    0    0  0.42789712341E+01 -0.11709700603E+02 -0.70197724882E+02  0.71296193879E+02  0.00000000000E+00 0. -1.
         11    1    1    2    0    0 -0.17311214933E+02 -0.48900088530E+02  0.12981915656E+02  0.53473609891E+02  0.00000000000E+00 0.  1.
</event>
<event>
 7    1  0.2394257E-009  0.1104717E+03  0.7561462E-02  0.1259699E+00
         -3   -1    0    0    0  501 -0.00000000000E+00  0.00000000000E+00  0.59311648494E+03  0.59311648494E+03  0.00000000000E+00 0.  1.
          3   -1    0    0  501    0  0.00000000000E+00 -0.00000000000E+00 -0.31648150025E+02  0.31648150025E+02  0.00000000000E+00 0. -1.
         25    2    1    2    0    0 -0.74188552257E+02  0.29842173447E+02  0.36791707266E+03  0.39674298368E+03  0.12509007213E+03 0.  0.
          5    1    3    3  502    0 -0.36225080818E+02 -0.16915539371E+02  0.31159407510E+03  0.31417627535E+03  0.41800000000E+01 0.  1.
         -5    1    3    3    0  502 -0.37963471439E+02  0.46757712818E+02  0.56322997555E+02  0.82566708335E+02  0.41800000000E+01 0.  1.
        -11    1    1    2    0    0  0.94292361997E+02 -0.33246685082E+02  0.15595540929E+03  0.18525247984E+03  0.00000000000E+00 0. -1.
         11    1    1    2    0    0 -0.20103809740E+02  0.34045116347E+01  0.37595852974E+02  0.42769171448E+02  0.00000000000E+00 0.  1.
</event>
<event>
 7    1  0.2394257E-009  0.1879428E+03  0.7561462E-02  0.1160330E+00
          2   -1    0    0  501    0  0.00000000000E+00  0.00000000000E+00  0.12210646807E+04  0.12210646807E+04  0.00000000000E+00 0. -1.
         -2   -1    0    0    0  501 -0.00000000000E+00 -0.00000000000E+00 -0.30386666409E+02  0.30386666409E+02  0.00000000000E+00 0.  1.
         25    2    1    2    0    0 -0.62738755241E+02  0.12153881989E+03  0.46672213985E+03  0.50218047137E+03  0.12509130202E+03 0.  0.
          5    1    3    3  502    0  0.20105766154E+02  0.95993728122E+02  0.23133890224E+03  0.25130498952E+03  0.41800000000E+01 0.  1.
         -5    1    3    3    0  502 -0.82844521395E+02  0.25545091769E+02  0.23538323762E+03  0.25087548184E+03  0.41800000000E+01 0.  1.
        -11    1    1    2    0    0  0.81541612372E+02 -0.15211295064E+02  0.37141893393E+03  0.38056857796E+03  0.00000000000E+00 0. -1.
         11    1    1    2    0    0 -0.18802857131E+02 -0.10632752483E+03  0.35253694052E+03  0.36870229780E+03  0.00000000000E+00 0.  1.
</event>
<event>
 7    1  0.2394257E-009  0.1622978E+03  0.7561462E-02  0.1186127E+00
          3   -1    0    0  501    0  0.00000000000E+00  0.00000000000E+00  0.26732181257E+03  0.26732181257E+03  0.00000000000E+00 0. -1.
         -3   -1    0    0    0  501 -0.00000000000E+00 -0.00000000000E+00 -0.10649298865E+03  0.10649298865E+03  0.00000000000E+00 0.  1.
         25    2    1    2    0    0  0.35051941397E+02 -0.12347874262E+03  0.89264214156E+02  0.20022751768E+03  0.12508924987E+03 0.  0.
          5    1    3    3  502    0  0.73031447101E+02 -0.88243663887E+02  0.24541941966E+02  0.11721909314E+03  0.41800000000E+01 0.  1.
         -5    1    3    3    0  502 -0.37979505705E+02 -0.35235078736E+02  0.64722272190E+02  0.83008424540E+02  0.41800000000E+01 0.  1.
        -11    1    1    2    0    0  0.11269741023E+02  0.10883659403E+03  0.53017485850E+02  0.12158645101E+03  0.00000000000E+00 0. -1.
         11    1    1    2    0    0 -0.46321682420E+02  0.14642148591E+02  0.18547123918E+02  0.52000832524E+02  0.00000000000E+00 0.  1.
</event>
<event>
 7    1  0.2394257E-009  0.8834763E+02  0.7561462E-02  0.1306903E+00
          1   -1    0    0  501    0  0.00000000000E+00  0.00000000000E+00  0.43715533346E+02  0.43715533346E+02  0.00000000000E+00 0. -1.
         -1   -1    0    0    0  501 -0.00000000000E+00 -0.00000000000E+00 -0.33900444029E+03  0.33900444029E+03  0.00000000000E+00 0.  1.
         25    2    1    2    0    0  0.23441311776E+02  0.91731216348E+01 -0.25140767325E+03  0.28193415236E+03  0.12508959524E+03 0.  0.
          5    1    3    3  502    0 -0.94529103258E+01  0.39703334674E+02 -0.19029574775E+02  0.45225097170E+02  0.41800000000E+01 0. -1.
         -5    1    3    3    0  502  0.32894222102E+02 -0.30530213039E+02 -0.23237809848E+03  0.23670905519E+03  0.41800000000E+01 0. -1.
        -11    1    1    2    0    0  0.32965119769E+02  0.22578183597E+01 -0.18679801506E+02  0.37956973660E+02  0.00000000000E+00 0.  1.
         11    1    1    2    0    0 -0.56406431545E+02 -0.11430939994E+02 -0.25201432184E+02  0.62828847618E+02  0.00000000000E+00 0. -1.
</event>
<event>
 7    1  0.2394257E-009  0.2494888E+03  0.7561462E-02  0.1113628E+00
         -2   -1    0    0    0  501 -0.00000000000E+00  0.00000000000E+00  0.25433911309E+03  0.25433911309E+03  0.00000000000E+00 0.  1.
          2   -1    0    0  501    0  0.00000000000E+00 -0.00000000000E+00 -0.29180993134E+03  0.29180993134E+03  0.00000000000E+00 0. -1.
         25    2    1    2    0    0  0.20808890119E+03 -0.11928857553E+03  0.49404899258E+02  0.27498832552E+03  0.12508788930E+03 0.  0.
          5    1    3    3  502    0  0.95572759435E+02 -0.36529340644E+02 -0.39065110893E+02  0.10959972793E+03  0.41800000000E+01 0. -1.
         -5    1    3    3    0  502  0.11251614175E+03 -0.82759234891E+02  0.88470010151E+02  0.16538859758E+03  0.41800000000E+01 0. -1.
        -11    1    1    2    0    0 -0.16266527122E+03  0.43333856734E+02 -0.55041789432E+02  0.17710847575E+03  0.00000000000E+00 0.  1.
         11    1    1    2    0    0 -0.45423629969E+02  0.75954718801E+02 -0.31833928078E+02  0.94052243166E+02  0.00000000000E+00 0. -1.
</event>
<event>
 7    1  0.2394257E-009  0.1096042E+03  0.7561462E-02  0.1261305E+00
         -2   -1    0    0    0  501 -0.00000000000E+00  0.00000000000E+00  0.10311694480E+03  0.10311694480E+03  0.00000000000E+00 0.  1.
          2   -1    0    0  501    0  0.00000000000E+00 -0.00000000000E+00 -0.32343733857E+03  0.32343733857E+03  0.00000000000E+00 0. -1.
         25    2    1    2    0    0  0.46575979295E+02  0.56553245811E+02  0.33414601887E+02  0.14876729724E+03  0.12509029398E+03 0.  0.
          5    1    3    3  502    0 -0.31436682636E+02 -0.18353020855E+02  0.10764750452E+02  0.38189666691E+02  0.41800000000E+01 0.  1.
         -5    1    3    3    0  502  0.78012661931E+02  0.74906266666E+02  0.22649851435E+02  0.11057763055E+03  0.41800000000E+01 0.  1.
        -11    1    1    2    0    0 -0.19853205695E+02 -0.14803941793E+02 -0.64615977469E+01  0.25594114840E+02  0.00000000000E+00 0.  1.
         11    1    1    2    0    0 -0.26722773600E+02 -0.41749304018E+02 -0.24727339792E+03  0.25219287129E+03  0.00000000000E+00 0. -1.
</event>
<event>
 7    1  0.2394257E-009  0.1755769E+03  0.7561462E-02  0.1172154E+00
          1   -1    0    0  501    0  0.00000000000E+00  0.00000000000E+00  0.12666636551E+03  0.12666636551E+03  0.00000000000E+00 0. -1.
         -1   -1    0    0    0  501 -0.00000000000E+00 -0.00000000000E+00 -0.30847459959E+03  0.30847459959E+03  0.00000000000E+00 0.  1.
         25    2    1    2    0    0 -0.11845532604E+03 -0.76065500172E+02  0.13882538755E+01  0.18832798272E+03  0.12509147551E+03 0.  0.
          5    1    3    3  502    0 -0.13503814510E+03 -0.28928612861E+02  0.20455295552E+01  0.13818039609E+03  0.41800000000E+01 0.  1.
         -5    1    3    3    0  502  0.16582819061E+02 -0.47136887310E+02 -0.65727567969E+00  0.50147586628E+02  0.41800000000E+01 0.  1.
        -11    1    1    2    0    0 -0.79096642039E+01 -0.78589583080E+01 -0.35821517031E+01  0.11711439891E+02  0.00000000000E+00 0. -1.
         11    1    1    2    0    0  0.12636499024E+03  0.83924458480E+02 -0.17961433625E+03  0.23510154248E+03  0.00000000000E+00 0.  1.
</event>
<event>
 7    1  0.2394257E-009  0.2064491E+03  0.7561462E-02  0.1144409E+00
          2   -1    0    0  501    0  0.00000000000E+00  0.00000000000E+00  0.74808143403E+03  0.74808143403E+03  0.00000000000E+00 0. -1.
         -2   -1    0    0    0  501 -0.00000000000E+00 -0.00000000000E+00 -0.67455117195E+02  0.67455117195E+02  0.00000000000E+00 0.  1.
         25    2    1    2    0    0  0.29606668629E+02 -0.18271209626E+03  0.24338474787E+03  0.33036945400E+03  0.12509027019E+03 0.  0.
          5    1    3    3  502    0  0.40914922799E+02 -0.19607419119E+03  0.19856808698E+03  0.28207424009E+03  0.41800000000E+01 0. -1.
         -5    1    3    3    0  502 -0.11308254170E+02  0.13362094930E+02  0.44816660888E+02  0.48295213908E+02  0.41800000000E+01 0. -1.
        -11    1    1    2    0    0 -0.44705905704E+02  0.88553719507E+02  0.31426135808E+03  0.32954602171E+03  0.00000000000E+00 0. -1.
         11    1    1    2    0    0  0.15099237075E+02  0.94158376752E+02  0.12298021089E+03  0.15562107551E+03  0.00000000000E+00 0.  1.
</event>
<event>
 7    1  0.2394257E-009  0.6647713E+02  0.7561462E-02  0.1372500E+00
          2   -1    0    0  501    0  0.00000000000E+00  0.00000000000E+00  0.78821641657E+03  0.78821641657E+03  0.00000000000E+00 0. -1.
         -2   -1    0    0    0  501 -0.00000000000E+00 -0.00000000000E+00 -0.22377200830E+02  0.22377200830E+02  0.00000000000E+00 0.  1.
         25    2    1    2    0    0 -0.29263229764E+02 -0.12219133168E+02  0.21337429402E+03  0.24936242717E+03  0.12508951557E+03 0.  0.
          5    1    3    3  502    0 -0.22424893062E+02 -0.12717277989E+02 -0.84065581407E+01  0.27436246246E+02  0.41800000000E+01 0. -1.
         -5    1    3    3    0  502 -0.68383367022E+01  0.49814482156E+00  0.22178085216E+03  0.22192618093E+03  0.41800000000E+01 0. -1.
        -11    1    1    2    0    0  0.54499552553E+02  0.35032603244E+02  0.36277427925E+03  0.36851412755E+03  0.00000000000E+00 0.  1.
         11    1    1    2    0    0 -0.25236322789E+02 -0.22813470077E+02  0.18969064247E+03  0.19271706267E+03  0.00000000000E+00 0. -1.
</event>
<event>
 7    1  0.2394257E-009  0.1093528E+03  0.7561462E-02  0.1261773E+00
          1   -1    0    0  501    0  0.00000000000E+00  0.00000000000E+00  0.25067267637E+02  0.25067267637E+02  0.00000000000E+00 0. -1.
         -1   -1    0    0    0  501 -0.00000000000E+00 -0.00000000000E+00 -0.10181607190E+04  0.10181607190E+04  0.00000000000E+00 0.  1.
         25    2    1    2    0    0  0.14033812403E+01 -0.53021407325E+02 -0.87243624799E+03  0.88295313887E+03  0.12509196428E+03 0.  0.
          5    1    3    3  502    0  0.57720674434E+02 -0.44629572373E+02 -0.61102868224E+03  0.61538361849E+03  0.41800000000E+01 0.  1.
         -5    1    3    3    0  502 -0.56317293193E+02 -0.83918349523E+01 -0.26140756575E+03  0.26756952038E+03  0.41800000000E+01 0.  1.
        -11    1    1    2    0    0 -0.35610599430E+02  0.19330583694E+02 -0.10020606681E+03  0.10808812184E+03  0.00000000000E+00 0.  1.
         11    1    1    2    0    0  0.34207218189E+02  0.33690823631E+02 -0.20451136524E+02  0.52186725882E+02  0.00000000000E+00 0. -1.
</event>
<event>
 7    1  0.2394257E-009  0.1042544E+03  0.7561462E-02  0.1271596E+00
         -2   -1    0    0    0  501 -0.00000000000E+00  0.00000000000E+00  0.53097121422E+02  0.53097121422E+02  0.00000000000E+00 0.  1.
          2   -1    0    0  501    0  0.00000000000E+00 -0.00000000000E+00 -0.56540641789E+03  0.56540641789E+03  0.00000000000E+00 0. -1.
         25    2    1    2    0    0  0.43447470849E+02  0.25529185373E+00 -0.50093112703E+03  0.51813801721E+03  0.12508902011E+03 0.  0.
          5    1    3    3  502    0 -0.29837234752E+02 -0.36620594098E+02 -0.13459052084E+03  0.14270041763E+03  0.41800000000E+01 0. -1.
         -5    1    3    3    0  502  0.73284705600E+02  0.36875885952E+02 -0.36634060619E+03  0.37543759959E+03  0.41800000000E+01 0. -1.
        -11    1    1    2    0    0 -0.61192526760E+02 -0.50664837880E+00 -0.35248891437E+02  0.70620580367E+02  0.00000000000E+00 0. -1.
         11    1    1    2    0    0  0.17745055911E+02  0.25135652507E+00  0.23870722006E+02  0.29744941729E+02  0.00000000000E+00 0.  1.
</event>
<event>
 7    1  0.2394257E-009  0.9880166E+02  0.7561462E-02  0.1282836E+00
         -1   -1    0    0    0  501 -0.00000000000E+00  0.00000000000E+00  0.16563469015E+03  0.16563469015E+03  0.00000000000E+00 0.  1.
          1   -1    0    0  501    0  0.00000000000E+00 -0.00000000000E+00 -0.66509263933E+02  0.66509263933E+02  0.00000000000E+00 0. -1.
         25    2    1    2    0    0 -0.36924660837E+01  0.79076987777E+01  0.36662022468E+02  0.13064437336E+03  0.12509069667E+03 0.  0.
          5    1    3    3  502    0 -0.41784788957E+02 -0.38831044854E+02 -0.47282068778E+01  0.57390303823E+02  0.41800000000E+01 0. -1.
         -5    1    3    3    0  502  0.38092322874E+02  0.46738743632E+02  0.41390229346E+02  0.73254069535E+02  0.41800000000E+01 0. -1.
        -11    1    1    2    0    0  0.41632183808E+02 -0.45457822243E+01  0.34211416797E+02  0.54077018260E+02  0.00000000000E+00 0. -1.
         11    1    1    2    0    0 -0.37939717724E+02 -0.33619165534E+01  0.28251986951E+02  0.47422562464E+02  0.00000000000E+00 0.  1.
</event>
<event>
 7    1  0.2394257E-009  0.8287440E+02  0.7561462E-02  0.1321087E+00
         -1   -1    0    0    0  501 -0.00000000000E+00  0.00000000000E+00  0.36357583378E+02  0.36357583378E+02  0.00000000000E+00 0.  1.
          1   -1    0    0  501    0  0.00000000000E+00 -0.00000000000E+00 -0.39704152123E+03  0.39704152123E+03  0.00000000000E+00 0. -1.
         25    2    1    2    0    0 -0.43689403967E+01  0.27679836550E+02 -0.28852943477E+03  0.31572528780E+03  0.12509181284E+03 0.  0.
          5    1    3    3  502    0 -0.51482395796E+02  0.11462139719E+02 -0.52785096339E+02  0.74736580865E+02  0.41800000000E+01 0. -1.
         -5    1    3    3    0  502  0.47113455399E+02  0.16217696831E+02 -0.23574433843E+03  0.24098870694E+03  0.41800000000E+01 0. -1.
        -11    1    1    2    0    0  0.11746690710E+02 -0.43673437815E+02 -0.19219896280E+01  0.45266410917E+02  0.00000000000E+00 0.  1.
         11    1    1    2    0    0 -0.73777503128E+01  0.15993601264E+02 -0.70232513452E+02  0.72407405884E+02  0.00000000000E+00 0. -1.
</event>
<event>
 7    1  0.2394257E-009  0.1448105E+03  0.7561462E-02  0.1206999E+00
         -1   -1    0    0    0  501 -0.00000000000E+00  0.00000000000E+00  0.88552151455E+02  0.88552151455E+02  0.00000000000E+00 0.  1.
          1   -1    0    0  501    0  0.00000000000E+00 -0.00000000000E+00 -0.27869320527E+03  0.27869320527E+03  0.00000000000E+00 0. -1.
         25    2    1    2    0    0 -0.71420970615E+01 -0.10784465654E+03 -0.13186937033E+03  0.21146857979E+03  0.12509176597E+03 0.  0.
          5    1    3    3  502    0  0.37281871343E+02 -0.10669180926E+03 -0.12080554956E+03  0.16548272810E+03  0.41800000000E+01 0. -1.
         -5    1    3    3    0  502 -0.44423968404E+02 -0.11528472741E+01 -0.11063820764E+02  0.45985851688E+02  0.41800000000E+01 0. -1.
        -11    1    1    2    0    0 -0.32997544799E+02  0.66664194359E+02 -0.67574279212E+00  0.74386889978E+02  0.00000000000E+00 0. -1.
         11    1    1    2    0    0  0.40139641861E+02  0.41180462179E+02 -0.57595940695E+02  0.81389886955E+02  0.00000000000E+00 0.  1.
</event>
<event>
 7    1  0.2394257E-009  0.1271757E+03  0.7561462E-02  0.1231708E+00
         -4   -1    0    0    0  501 -0.00000000000E+00  0.00000000000E+00  0.16941036670E+03  0.16941036670E+03  0.00000000000E+00 0. -1.
          4   -1    0    0  501    0  0.00000000000E+00 -0.00000000000E+00 -0.36514359388E+03  0.36514359388E+03  0.00000000000E+00 0.  1.
         25    2    1    2    0    0  0.51227268638E+02 -0.74484006583E+02  0.11897622975E+03  0.19486882446E+03  0.12508563152E+03 0.  0.
          5    1    3    3  502    0  0.87314949008E+02 -0.29905186646E+02  0.95140935696E+02  0.13261783648E+03  0.41800000000E+01 0.  1.
         -5    1    3    3    0  502 -0.36087680370E+02 -0.44578819937E+02  0.23835294049E+02  0.62250987975E+02  0.41800000000E+01 0.  1.
        -11    1    1    2    0    0 -0.13783939072E+02  0.64147367360E+02 -0.28002728597E+03  0.28761113087E+03  0.00000000000E+00 0.  1.
         11    1    1    2    0    0 -0.37443329566E+02  0.10336639223E+02 -0.34682170962E+02  0.52074005243E+02  0.00000000000E+00 0. -1.
</event>
<event>
 7    1  0.2394257E-009  0.1355819E+03  0.7561462E-02  0.1219401E+00
          2   -1    0    0  501    0  0.00000000000E+00  0.00000000000E+00  0.78612317937E+03  0.78612317937E+03  0.00000000000E+00 0. -1.
         -2   -1    0    0    0  501 -0.00000000000E+00 -0.00000000000E+00 -0.30190987253E+02  0.30190987253E+02  0.00000000000E+00 0.  1.
         25    2    1    2    0    0 -0.62741621096E+02 -0.35932874016E+02  0.57523731489E+03  0.59310434950E+03  0.12508844273E+03 0.  0.
          5    1    3    3  502    0 -0.72513578409E+02  0.26667245548E+02  0.38013376105E+03  0.38792848533E+03  0.41800000000E+01 0.  1.
         -5    1    3    3    0  502  0.97719573136E+01 -0.62600119565E+02  0.19510355384E+03  0.20517586418E+03  0.41800000000E+01 0.  1.
        -11    1    1    2    0    0  0.65539541384E+02 -0.24371267270E+02  0.10877928692E+03  0.12931482287E+03  0.00000000000E+00 0.  1.
         11    1    1    2    0    0 -0.27979202885E+01  0.60304141286E+02  0.71915590311E+02  0.93894994243E+02  0.00000000000E+00 0. -1.
</event>
<event>
 7    1  0.2394257E-009  0.1236097E+03  0.7561462E-02  0.1237258E+00
         -1   -1    0    0    0  501 -0.00000000000E+00  0.00000000000E+00  0.12119971508E+03  0.12119971508E+03  0.00000000000E+00 0.  1.
          1   -1    0    0  501    0  0.00000000000E+00 -0.00000000000E+00 -0.16155501155E+03  0.16155501155E+03  0.00000000000E+00 0. -1.
         25    2    1    2    0    0  0.79580768842E+02  0.37985228397E+02 -0.23851217381E+02  0.15489468128E+03  0.12508998910E+03 0.  0.
          5    1    3    3  502    0  0.10058334299E+03  0.40165297848E+02 -0.51380825725E+02  0.11994882946E+03  0.41800000000E+01 0. -1.
         -5    1    3    3    0  502 -0.21002574144E+02 -0.21800694509E+01  0.27529608344E+02  0.34945851815E+02  0.41800000000E+01 0. -1.
        -11    1    1    2    0    0 -0.94301820511E+02 -0.40027339538E+02 -0.31067169225E+02  0.10705227819E+03  0.00000000000E+00 0. -1.
         11    1    1    2    0    0  0.14721051669E+02  0.20421111406E+01  0.14563090133E+02  0.20807767164E+02  0.00000000000E+00 0.  1.
</event>
<event>
 7    1  0.2394257E-009  0.1893528E+03  0.7561462E-02  0.1159046E+00
         -1   -1    0    0    0  501 -0.00000000000E+00  0.00000000000E+00  0.47627456500E+02  0.47627456500E+02  0.00000000000E+00 0.  1.
          1   -1    0    0  501    0  0.00000000000E+00 -0.00000000000E+00 -0.92665359265E+03  0.92665359265E+03  0.00000000000E+00 0. -1.
         25    2    1    2    0    0 -0.91813307175E+02 -0.14601252094E+03 -0.34117737780E+03  0.40224361716E+03  0.12509430351E+03 0.  0.
          5    1    3    3  502    0 -0.42270669734E+02 -0.14979938487E+03 -0.20644243741E+03  0.25857806866E+03  0.41800000000E+01 0.  1.
         -5    1    3    3    0  502 -0.49542637441E+02  0.37868639247E+01 -0.13473494039E+03  0.14366554850E+03  0.41800000000E+01 0.  1.
        -11    1    1    2    0    0  0.22434512128E+02  0.24547532790E+02 -0.28394277612E+02  0.43727836691E+02  0.00000000000E+00 0.  1.
         11    1    1    2    0    0  0.69378795047E+02  0.12146498815E+03 -0.50945448073E+03  0.52830959530E+03  0.00000000000E+00 0. -1.
</event>
<event>
 7    1  0.2394257E-009  0.1154129E+03  0.7561462E-02  0.1250862E+00
          1   -1    0    0  501    0  0.00000000000E+00  0.00000000000E+00  0.93493240052E+03  0.93493240052E+03  0.00000000000E+00 0. -1.
         -1   -1    0    0    0  501 -0.00000000000E+00 -0.00000000000E+00 -0.16547572718E+02  0.16547572718E+02  0.00000000000E+00 0.  1.
         25    2    1    2    0    0 -0.15714289280E+02  0.58880051612E+02  0.45481408582E+03  0.47562358027E+03  0.12509251809E+03 0.  0.
          5    1    3    3  502    0 -0.55444234765E+02 -0.21464583303E+00  0.30076379502E+03  0.30586016745E+03  0.41800000000E+01 0. -1.
         -5    1    3    3    0  502  0.39729945486E+02  0.59094697445E+02  0.15405029080E+03  0.16976341282E+03  0.41800000000E+01 0. -1.
        -11    1    1    2    0    0 -0.30074069211E+02 -0.48300591703E+02  0.19214489901E+03  0.20039226286E+03  0.00000000000E+00 0.  1.
         11    1    1    2    0    0  0.45788358491E+02 -0.10579459908E+02  0.27142584296E+03  0.27546413010E+03  0.00000000000E+00 0. -1.
</event>
<event>
 7    1  0.2394257E-009  0.7207433E+02  0.7561462E-02  0.1353178E+00
         -1   -1    0    0    0  501 -0.00000000000E+00  0.00000000000E+00  0.14944955681E+02  0.14944955681E+02  0.00000000000E+00 0. -1.
          1   -1    0    0  501    0  0.00000000000E+00 -0.00000000000E+00 -0.99861674856E+03  0.99861674856E+03  0.00000000000E+00 0.  1.
         25    2    1    2    0    0  0.50131443011E+02  0.20166616133E+00 -0.65989078119E+03  0.67351039747E+03  0.12508880908E+03 0.  0.
          5    1    3    3  502    0  0.47333581748E+02  0.53131510098E+01 -0.77414489059E+02  0.90989961265E+02  0.41800000000E+01 0.  1.
         -5    1    3    3    0  502  0.27978612626E+01 -0.51114848485E+01 -0.58247629213E+03  0.58252043621E+03  0.41800000000E+01 0.  1.
        -11    1    1    2    0    0 -0.29356593817E+02  0.36590363289E+02 -0.80855919176E+02  0.93479109709E+02  0.00000000000E+00 0. -1.
         11    1    1    2    0    0 -0.20774849194E+02 -0.36792029451E+02 -0.24292509252E+03  0.24657219706E+03  0.00000000000E+00 0.  1.
</event>
<event>
 7    1  0.2394257E-009  0.2452529E+03  0.7561462E-02  0.1116342E+00
         -2   -1    0    0    0  501 -0.00000000000E+00  0.00000000000E+00  0.15218857698E+03  0.15218857698E+03  0.00000000000E+00 0.  1.
          2   -1    0    0  501    0  0.00000000000E+00 -0.00000000000E+00 -0.49801616106E+03  0.49801616106E+03  0.00000000000E+00 0. -1.
         25    2    1    2    0    0  0.92893480098E+02  0.21582017053E+03 -0.67307476130E+02  0.27456356416E+03  0.12508920724E+03 0.  0.
          5    1    3    3  502    0  0.11462409358E+03  0.18004573103E+03 -0.25056831941E+02  0.21494293503E+03  0.41800000000E+01 0. -1.
         -5    1    3    3    0  502 -0.21730613479E+02  0.35774439496E+02 -0.42250644189E+02  0.59620629129E+02  0.41800000000E+01 0. -1.
        -11    1    1    2    0    0 -0.55024791461E+01 -0.12899630903E+02  0.61326433955E+01  0.15306438815E+02  0.00000000000E+00 0.  1.
         11    1    1    2    0    0 -0.87391000952E+02 -0.20292053963E+03 -0.28465275134E+03  0.36033473507E+03  0.00000000000E+00 0. -1.
</event>
<event>
 7    1  0.2394257E-009  0.9562337E+02  0.7561462E-02  0.1289778E+00
          1   -1    0    0  501    0  0.00000000000E+00  0.00000000000E+00  0.50007229066E+03  0.50007229066E+03  0.00000000000E+00 0. -1.
         -1   -1    0    0    0  501 -0.00000000000E+00 -0.00000000000E+00 -0.34092574104E+02  0.34092574104E+02  0.00000000000E+00 0.  1.
         25    2    1    2    0    0 -0.72913885214E+01 -0.46752002121E+01  0.40170133150E+03  0.42081673045E+03  0.12509092316E+03 0.  0.
          5    1    3    3  502    0  0.36510347088E+02  0.37341455647E+02  0.98448404327E+02  0.11152107634E+03  0.41800000000E+01 0.  1.
         -5    1    3    3    0  502 -0.43801735609E+02 -0.42016655859E+02  0.30325292717E+03  0.30929565411E+03  0.41800000000E+01 0.  1.
        -11    1    1    2    0    0 -0.33177982646E+02 -0.10492031024E+02 -0.12858393836E+01  0.34821180772E+02  0.00000000000E+00 0.  1.
         11    1    1    2    0    0  0.40469371167E+02  0.15167231236E+02  0.65564224444E+02  0.78526953545E+02  0.00000000000E+00 0. -1.
</event>
<event>
 7    1  0.2394257E-009  0.7773059E+02  0.7561462E-02  0.1335618E+00
         -2   -1    0    0    0  501 -0.00000000000E+00  0.00000000000E+00  0.21295206185E+02  0.21295206185E+02  0.00000000000E+00 0. -1.
          2   -1    0    0  501    0  0.00000000000E+00 -0.00000000000E+00 -0.10669893260E+04  0.10669893260E+04  0.00000000000E+00 0.  1.
         25    2    1    2    0    0  0.55817307190E+02 -0.13628976911E+02 -0.88121201501E+03  0.89189656586E+03  0.12507417003E+03 0.  0.
          5    1    3    3  502    0  0.38077841812E+02 -0.39915503285E+02 -0.14823869522E+03  0.15822563825E+03  0.41800000000E+01 0.  1.
         -5    1    3    3    0  502  0.17739465377E+02  0.26286526374E+02 -0.73297331979E+03  0.73367092761E+03  0.41800000000E+01 0.  1.
        -11    1    1    2    0    0 -0.79687302985E+01  0.18413968934E+02  0.46134452916E+01  0.20587831161E+02  0.00000000000E+00 0. -1.
         11    1    1    2    0    0 -0.47848576891E+02 -0.47849920225E+01 -0.16909555005E+03  0.17580013512E+03  0.00000000000E+00 0.  1.
</event>
<event>
 7    1  0.2431519E-009  0.8646666E+02  0.7561462E-02  0.1311641E+00
          2   -1    0    0  501    0  0.00000000000E+00  0.00000000000E+00  0.24859811531E+03  0.24859811531E+03  0.00000000000E+00 0.  1.
         -2   -1    0    0    0  501 -0.00000000000E+00 -0.00000000000E+00 -0.49488801081E+02  0.49488801081E+02  0.00000000000E+00 0. -1.
         25    2    1    2    0    0 -0.16088953966E+01 -0.92955519922E+01  0.84252536509E+02  0.15111265066E+03  0.12509015729E+03 0.  0.
          5    1    3    3  502    0  0.67482705603E+01  0.56337212341E+02  0.53254201599E+02  0.77928833161E+02  0.41800000000E+01 0.  1.
         -5    1    3    3    0  502 -0.83571659569E+01 -0.65632764333E+02  0.30998334910E+02  0.73183817501E+02  0.41800000000E+01 0.  1.
        -11    1    1    2    0    0 -0.14245794632E+01 -0.20121553064E+02  0.11564456332E+03  0.11739067829E+03  0.00000000000E+00 0.  1.
         11    1    1    2    0    0  0.30334748598E+01  0.29417105056E+02 -0.78778559731E+00  0.29583587439E+02  0.00000000000E+00 0. -1.
</event>
<event>
 7    1  0.2394257E-009  0.2910798E+03  0.7561462E-02  0.1089787E+00
         -2   -1    0    0    0  501 -0.00000000000E+00  0.00000000000E+00  0.13460458956E+03  0.13460458956E+03  0.00000000000E+00 0.  1.
          2   -1    0    0  501    0  0.00000000000E+00 -0.00000000000E+00 -0.11070532773E+04  0.11070532773E+04  0.00000000000E+00 0. -1.
         25    2    1    2    0    0 -0.10167814922E+03  0.25308313646E+03 -0.89084802376E+02  0.31300719319E+03  0.12509149048E+03 0.  0.
          5    1    3    3  502    0 -0.48496980544E+02  0.82827989505E+01 -0.11139227999E+02  0.50617355529E+02  0.41800000000E+01 0.  1.
         -5    1    3    3    0  502 -0.53181168675E+02  0.24480033751E+03 -0.77945574377E+02  0.26238983767E+03  0.41800000000E+01 0.  1.
        -11    1    1    2    0    0  0.94424568135E+02 -0.13967159508E+03 -0.60312618240E+03  0.62624703228E+03  0.00000000000E+00 0. -1.
         11    1    1    2    0    0  0.72535810841E+01 -0.11341154138E+03 -0.28023770294E+03  0.30240364136E+03  0.00000000000E+00 0.  1.
</event>
<event>
 7    1  0.2394257E-009  0.7917243E+02  0.7561462E-02  0.1331416E+00
         -2   -1    0    0    0  501 -0.00000000000E+00  0.00000000000E+00  0.43372460055E+02  0.43372460055E+02  0.00000000000E+00 0.  1.
          2   -1    0    0  501    0  0.00000000000E+00 -0.00000000000E+00 -0.28105880233E+03  0.28105880233E+03  0.00000000000E+00 0. -1.
         25    2    1    2    0    0  0.13501004064E+02 -0.53766754153E+01 -0.18311914131E+03  0.22224257596E+03  0.12509179392E+03 0.  0.
          5    1    3    3  502    0  0.60233179212E+02  0.29425434683E+02 -0.10615416792E+03  0.12561875597E+03  0.41800000000E+01 0. -1.
         -5    1    3    3    0  502 -0.46732175147E+02 -0.34802110098E+02 -0.76964973394E+02  0.96623819997E+02  0.41800000000E+01 0. -1.
        -11    1    1    2    0    0 -0.60944287017E+01 -0.12227582823E+02 -0.73817706124E+02  0.75071363250E+02  0.00000000000E+00 0. -1.
         11    1    1    2    0    0 -0.74065753626E+01  0.17604258239E+02  0.19250505164E+02  0.27117323168E+02  0.00000000000E+00 0.  1.
</event>
<event>
 7    1  0.2565823E-009  0.1064522E+03  0.7561462E-02  0.1267284E+00
          1   -1    0    0  501    0  0.00000000000E+00  0.00000000000E+00  0.47778037086E+03  0.47778037086E+03  0.00000000000E+00 0. -1.
         -1   -1    0    0    0  501 -0.00000000000E+00 -0.00000000000E+00 -0.40078410814E+02  0.40078410814E+02  0.00000000000E+00 0.  1.
         25    2    1    2    0    0  0.37780504033E+02  0.76614178801E+02  0.22433786970E+03  0.27068904029E+03  0.12509187772E+03 0.  0.
          5    1    3    3  502    0  0.13510621295E+02 -0.17394762423E+02 -0.37787285139E+01  0.22734683563E+02  0.41800000000E+01 0. -1.
         -5    1    3    3    0  502  0.24269882738E+02  0.94008941225E+02  0.22811659821E+03  0.24795435672E+03  0.41800000000E+01 0. -1.
        -11    1    1    2    0    0 -0.24149576915E+02 -0.11443140575E+02  0.34450313518E+01  0.26944679854E+02  0.00000000000E+00 0.  1.
         11    1    1    2    0    0 -0.13630927118E+02 -0.65171038226E+02  0.20991905900E+03  0.22022506153E+03  0.00000000000E+00 0. -1.
</event>
<event>
 7    1  0.2394257E-009  0.9253414E+02  0.7561462E-02  0.1296828E+00
         -1   -1    0    0    0  501 -0.00000000000E+00  0.00000000000E+00  0.36023393617E+02  0.36023393617E+02  0.00000000000E+00 0.  1.
          1   -1    0    0  501    0  0.00000000000E+00 -0.00000000000E+00 -0.29127501947E+03  0.29127501947E+03  0.00000000000E+00 0. -1.
         25    2    1    2    0    0 -0.24937858073E+02 -0.15151640847E+02 -0.12264539374E+03  0.17759695996E+03  0.12508924252E+03 0.  0.
          5    1    3    3  502    0 -0.42285886004E+02 -0.63723905679E+02 -0.76768866040E+02  0.10844244327E+03  0.41800000000E+01 0.  1.
         -5    1    3    3    0  502  0.17348027931E+02  0.48572264831E+02 -0.45876527704E+02  0.69154516686E+02  0.41800000000E+01 0.  1.
        -11    1    1    2    0    0 -0.72422182802E+01  0.22572138987E+02 -0.10185265925E+03  0.10457492711E+03  0.00000000000E+00 0. -1.
         11    1    1    2    0    0  0.32180076353E+02 -0.74204981396E+01 -0.30753572859E+02  0.45126526017E+02  0.00000000000E+00 0.  1.
</event>
<event>
 7    1  0.2394257E-009  0.3983630E+03  0.7561462E-02  0.1044348E+00
          2   -1    0    0  501    0  0.00000000000E+00  0.00000000000E+00  0.18581097841E+04  0.18581097841E+04  0.00000000000E+00 0. -1.
         -2   -1    0    0    0  501 -0.00000000000E+00 -0.00000000000E+00 -0.89821173491E+02  0.89821173491E+02  0.00000000000E+00 0.  1.
         25    2    1    2    0    0 -0.30445133192E+03  0.24914040478E+03  0.89037975696E+03  0.98141971551E+03  0.12508793542E+03 0.  0.
          5    1    3    3  502    0 -0.13785526998E+03  0.16978733419E+03  0.37696920096E+03  0.43583834754E+03  0.41800000000E+01 0.  1.
         -5    1    3    3    0  502 -0.16659606194E+03  0.79353070589E+02  0.51341055600E+03  0.54558136798E+03  0.41800000000E+01 0.  1.
        -11    1    1    2    0    0  0.71944686374E+02 -0.60161218169E+02  0.12573980242E+03  0.15686270424E+03  0.00000000000E+00 0.  1.
         11    1    1    2    0    0  0.23250664555E+03 -0.18897918661E+03  0.75216905122E+03  0.80964853783E+03  0.00000000000E+00 0. -1.
</event>
<event>
 7    1  0.2394257E-009  0.1041413E+03  0.7561462E-02  0.1271821E+00
          3   -1    0    0  501    0  0.00000000000E+00  0.00000000000E+00  0.34819467811E+03  0.34819467811E+03  0.00000000000E+00 0. -1.
         -3   -1    0    0    0  501 -0.00000000000E+00 -0.00000000000E+00 -0.68804278594E+02  0.68804278594E+02  0.00000000000E+00 0.  1.
         25    2    1    2    0    0  0.36870019896E+02 -0.30049090976E+02  0.16350732378E+02  0.13481724299E+03  0.12508395709E+03 0.  0.
          5    1    3    3  502    0 -0.16136112212E+02  0.35317136560E+02  0.30274992760E+02  0.49413781870E+02  0.41800000000E+01 0.  1.
         -5    1    3    3    0  502  0.53006132107E+02 -0.65366227536E+02 -0.13924260382E+02  0.85403461115E+02  0.41800000000E+01 0.  1.
        -11    1    1    2    0    0 -0.38550107947E+02  0.51011243063E+02  0.24855330513E+03  0.25664567643E+03  0.00000000000E+00 0. -1.
         11    1    1    2    0    0  0.16800880518E+01 -0.20962152087E+02  0.14486362007E+02  0.25536037284E+02  0.00000000000E+00 0.  1.
</event>
<event>
 7    1  0.2394257E-009  0.1094087E+03  0.7561462E-02  0.1261669E+00
          2   -1    0    0  501    0  0.00000000000E+00  0.00000000000E+00  0.83512551689E+02  0.83512551689E+02  0.00000000000E+00 0. -1.
         -2   -1    0    0    0  501 -0.00000000000E+00 -0.00000000000E+00 -0.16074766314E+03  0.16074766314E+03  0.00000000000E+00 0.  1.
         25    2    1    2    0    0 -0.16190315811E+02  0.36946096619E+02 -0.31861476464E+02  0.13523940529E+03  0.12508957861E+03 0.  0.
          5    1    3    3  502    0 -0.64039623652E+02  0.33066981659E+02  0.80874083166E+01  0.72645559030E+02  0.41800000000E+01 0. -1.
         -5    1    3    3    0  502  0.47849307841E+02  0.38791149598E+01 -0.39948884781E+02  0.62593846255E+02  0.41800000000E+01 0. -1.
        -11    1    1    2    0    0 -0.34464239794E+02  0.20260277405E+01 -0.98562210056E+01  0.35903115540E+02  0.00000000000E+00 0.  1.
         11    1    1    2    0    0  0.50654555605E+02 -0.38972124359E+02 -0.35517413982E+02  0.73117694005E+02  0.00000000000E+00 0. -1.
</event>
<event>
 7    1  0.2394257E-009  0.2077128E+03  0.7561462E-02  0.1143390E+00
          1   -1    0    0  501    0  0.00000000000E+00  0.00000000000E+00  0.17281139304E+03  0.17281139304E+03  0.00000000000E+00 0. -1.
         -1   -1    0    0    0  501 -0.00000000000E+00 -0.00000000000E+00 -0.32427201978E+03  0.32427201978E+03  0.00000000000E+00 0.  1.
         25    2    1    2    0    0  0.83204643543E+02  0.18631281308E+03 -0.37998865342E+02  0.24233453774E+03  0.12508651963E+03 0.  0.
          5    1    3    3  502    0  0.59570335021E+02  0.14936568357E+03  0.27701924309E+02  0.16322867779E+03  0.41800000000E+01 0. -1.
         -5    1    3    3    0  502  0.23634308522E+02  0.36947129508E+02 -0.65700789651E+02  0.79105859953E+02  0.41800000000E+01 0. -1.
        -11    1    1    2    0    0 -0.34527313722E+02 -0.26730828811E+02  0.12816092629E+02  0.45507415132E+02  0.00000000000E+00 0.  1.
         11    1    1    2    0    0 -0.48677329821E+02 -0.15958198427E+03 -0.12627785403E+03  0.20924145994E+03  0.00000000000E+00 0. -1.
</event>
<event>
 7    1  0.2394257E-009  0.2006602E+03  0.7561462E-02  0.1149183E+00
         -2   -1    0    0    0  501 -0.00000000000E+00  0.00000000000E+00  0.37136019741E+02  0.37136019741E+02  0.00000000000E+00 0.  1.
          2   -1    0    0  501    0  0.00000000000E+00 -0.00000000000E+00 -0.12910350232E+04  0.12910350232E+04  0.00000000000E+00 0. -1.
         25    2    1    2    0    0 -0.17746578234E+03  0.68767942531E+02 -0.68505806699E+03  0.72192544690E+03  0.12509461186E+03 0.  0.
          5    1    3    3  502    0 -0.12682349483E+03  0.85409825830E+02 -0.61532678686E+03  0.63405328185E+03  0.41800000000E+01 0.  1.
         -5    1    3    3    0  502 -0.50642287504E+02 -0.16641883299E+02 -0.69731280130E+02  0.87872165057E+02  0.41800000000E+01 0.  1.
        -11    1    1    2    0    0  0.12836383520E+03 -0.28742306937E+02 -0.26477130334E+03  0.29564715028E+03  0.00000000000E+00 0.  1.
         11    1    1    2    0    0  0.49101947138E+02 -0.40025635595E+02 -0.30406963311E+03  0.31059844575E+03  0.00000000000E+00 0. -1.
</event>
<event>
 7    1  0.2394257E-009  0.2347878E+03  0.7561462E-02  0.1123315E+00
         -1   -1    0    0    0  501 -0.00000000000E+00  0.00000000000E+00  0.72877394786E+02  0.72877394786E+02  0.00000000000E+00 0.  1.
          1   -1    0    0  501    0  0.00000000000E+00 -0.00000000000E+00 -0.78282900237E+03  0.78282900237E+03  0.00000000000E+00 0. -1.
         25    2    1    2    0    0  0.17998900919E+03  0.11052900886E+03 -0.40781807151E+03  0.47599925944E+03  0.12508801026E+03 0.  0.
          5    1    3    3  502    0  0.15097442420E+03  0.25213690250E+02 -0.22536391275E+03  0.27246168998E+03  0.41800000000E+01 0.  1.
         -5    1    3    3    0  502  0.29014584986E+02  0.85315318613E+02 -0.18245415876E+03  0.20353756946E+03  0.41800000000E+01 0.  1.
        -11    1    1    2    0    0 -0.29644650983E+02 -0.61217552284E+02 -0.12415372622E+03  0.14156462048E+03  0.00000000000E+00 0. -1.
         11    1    1    2    0    0 -0.15034435821E+03 -0.49311456580E+02 -0.17797980986E+03  0.23814251723E+03  0.00000000000E+00 0.  1.
</event>
<event>
 7    1  0.2394257E-009  0.1107146E+03  0.7561462E-02  0.1259252E+00
          2   -1    0    0  501    0  0.00000000000E+00  0.00000000000E+00  0.20836219574E+03  0.20836219574E+03  0.00000000000E+00 0. -1.
         -2   -1    0    0    0  501 -0.00000000000E+00 -0.00000000000E+00 -0.10091003098E+03  0.10091003098E+03  0.00000000000E+00 0.  1.
         25    2    1    2    0    0  0.41059200681E+02 -0.79790215292E+02  0.94246289300E+02  0.18050696708E+03  0.12509222878E+03 0.  0.
          5    1    3    3  502    0  0.12821151120E+02 -0.68464694105E+01 -0.30019337354E+02  0.33613822671E+02  0.41800000000E+01 0. -1.
         -5    1    3    3    0  502  0.28238049561E+02 -0.72943745882E+02  0.12426562665E+03  0.14689314441E+03  0.41800000000E+01 0. -1.
        -11    1    1    2    0    0  0.29011997936E+02  0.31798210348E+02  0.19099824088E+01  0.43086775678E+02  0.00000000000E+00 0.  1.
         11    1    1    2    0    0 -0.70071198617E+02  0.47992004945E+02  0.11295893052E+02  0.85678483962E+02  0.00000000000E+00 0. -1.
</event>
<event>
 7    1  0.2394257E-009  0.9981516E+02  0.7561462E-02  0.1280685E+00
          2   -1    0    0  501    0  0.00000000000E+00  0.00000000000E+00  0.27040472042E+03  0.27040472042E+03  0.00000000000E+00 0.  1.
         -2   -1    0    0    0  501 -0.00000000000E+00 -0.00000000000E+00 -0.53213252437E+02  0.53213252437E+02  0.00000000000E+00 0. -1.
         25    2    1    2    0    0 -0.15731872730E+02 -0.37387620789E+02  0.16787937865E+03  0.21325274357E+03  0.12509164984E+03 0.  0.
          5    1    3    3  502    0  0.53346345661E+02 -0.25138861366E+02  0.95853855458E+02  0.11261984262E+03  0.41800000000E+01 0.  1.
         -5    1    3    3    0  502 -0.69078218390E+02 -0.12248759423E+02  0.72025523189E+02  0.10063290095E+03  0.41800000000E+01 0.  1.
        -11    1    1    2    0    0  0.36127200443E+02  0.12901352202E+02 -0.12894626247E+02  0.40470864663E+02  0.00000000000E+00 0. -1.
         11    1    1    2    0    0 -0.20395327713E+02  0.24486268587E+02  0.62206715585E+02  0.69894364621E+02  0.00000000000E+00 0.  1.
</event>
<event>
 7    1  0.2394257E-009  0.1693481E+03  0.7561462E-02  0.1178529E+00
         -2   -1    0    0    0  501 -0.00000000000E+00  0.00000000000E+00  0.25150334237E+02  0.25150334237E+02  0.00000000000E+00 0.  1.
          2   -1    0    0  501    0  0.00000000000E+00 -0.00000000000E+00 -0.12766024757E+04  0.12766024757E+04  0.00000000000E+00 0. -1.
         25    2    1    2    0    0  0.67632616648E+02 -0.11570150076E+03 -0.82743980243E+03  0.84750591741E+03  0.12509454536E+03 0.  0.
          5    1    3    3  502    0 -0.33658243478E+01 -0.11147775624E+03 -0.47480280060E+03  0.48774357071E+03  0.41800000000E+01 0. -1.
         -5    1    3    3    0  502  0.70998440996E+02 -0.42237445262E+01 -0.35263700183E+03  0.35976234670E+03  0.41800000000E+01 0. -1.
        -11    1    1    2    0    0 -0.28459779303E+01  0.83402732358E+02 -0.15956018365E+03  0.18006545355E+03  0.00000000000E+00 0.  1.
         11    1    1    2    0    0 -0.64786638718E+02  0.32298768404E+02 -0.26445215540E+03  0.27418143900E+03  0.00000000000E+00 0. -1.
</event>
<event>
 7    1  0.2394257E-009  0.6956597E+02  0.7561462E-02  0.1361575E+00
         -2   -1    0    0    0  501 -0.00000000000E+00  0.00000000000E+00  0.52927746740E+02  0.52927746740E+02  0.00000000000E+00 0.  1.
          2   -1    0    0  501    0  0.00000000000E+00 -0.00000000000E+00 -0.23403310038E+03  0.23403310038E+03  0.00000000000E+00 0. -1.
         25    2    1    2    0    0 -0.14071552725E+02 -0.17563770399E+02 -0.97036534401E+02  0.15990228529E+03  0.12508460019E+03 0.  0.
          5    1    3    3  502    0 -0.45048051628E+02  0.15070105224E+02 -0.10378223962E+03  0.11421322466E+03  0.41800000000E+01 0. -1.
         -5    1    3    3    0  502  0.30976498903E+02 -0.32633875623E+02  0.67457052173E+01  0.45689060631E+02  0.41800000000E+01 0. -1.
        -11    1    1    2    0    0 -0.92854277968E+01  0.20704111905E+02  0.13688846414E+02  0.26500262929E+02  0.00000000000E+00 0.  1.
         11    1    1    2    0    0  0.23356980522E+02 -0.31403415063E+01 -0.97757665657E+02  0.10055829890E+03  0.00000000000E+00 0. -1.
</event>
<event>
 7    1  0.2394257E-009  0.1222220E+03  0.7561462E-02  0.1239476E+00
         -1   -1    0    0    0  501 -0.00000000000E+00  0.00000000000E+00  0.12091220533E+03  0.12091220533E+03  0.00000000000E+00 0.  1.
          1   -1    0    0  501    0  0.00000000000E+00 -0.00000000000E+00 -0.22962196375E+03  0.22962196375E+03  0.00000000000E+00 0. -1.
         25    2    1    2    0    0  0.74344377887E+02  0.29307504183E+02  0.45586592059E+02  0.15528116186E+03  0.12509230803E+03 0.  0.
          5    1    3    3  502    0  0.22318295474E+02  0.73341587190E+02  0.40502878984E+02  0.86804667676E+02  0.41800000000E+01 0. -1.
         -5    1    3    3    0  502  0.52026082413E+02 -0.44034083007E+02  0.50837130756E+01  0.68476494187E+02  0.41800000000E+01 0. -1.
        -11    1    1    2    0    0 -0.58724180942E+02  0.76852640831E+01 -0.33688179097E+02  0.68135791785E+02  0.00000000000E+00 0.  1.
         11    1    1    2    0    0 -0.15620196945E+02 -0.36992768266E+02 -0.12060817137E+03  0.12711721543E+03  0.00000000000E+00 0. -1.
</event>
<event>
 7    1  0.2394257E-009  0.3171246E+03  0.7561462E-02  0.1076980E+00
         -1   -1    0    0    0  501 -0.00000000000E+00  0.00000000000E+00  0.53909649074E+02  0.53909649074E+02  0.00000000000E+00 0.  1.
          1   -1    0    0  501    0  0.00000000000E+00 -0.00000000000E+00 -0.20288596028E+04  0.20288596028E+04  0.00000000000E+00 0. -1.
         25    2    1    2    0    0  0.26376920816E+03 -0.16336680098E+03 -0.11074265080E+04  0.11568511190E+04  0.12509250236E+03 0.  0.
          5    1    3    3  502    0  0.78664899246E+02 -0.37592821856E+02 -0.14944629021E+03  0.17306950247E+03  0.41800000000E+01 0. -1.
         -5    1    3    3    0  502  0.18510430892E+03 -0.12577397913E+03 -0.95798021777E+03  0.98378161654E+03  0.41800000000E+01 0. -1.
        -11    1    1    2    0    0 -0.17860714551E+03  0.15688268433E+03 -0.61528903918E+03  0.65961601769E+03  0.00000000000E+00 0. -1.
         11    1    1    2    0    0 -0.85162062656E+02  0.64841166571E+01 -0.25223440659E+03  0.26630211518E+03  0.00000000000E+00 0.  1.
</event>
<event>
 7    1  0.2394257E-009  0.1014588E+03  0.7561462E-02  0.1277258E+00
          1   -1    0    0  501    0  0.00000000000E+00  0.00000000000E+00  0.27064580444E+02  0.27064580444E+02  0.00000000000E+00 0. -1.
         -1   -1    0    0    0  501 -0.00000000000E+00 -0.00000000000E+00 -0.44064116368E+03  0.44064116368E+03  0.00000000000E+00 0.  1.
         25    2    1    2    0    0  0.12531543843E+02  0.56634958334E+01 -0.24806626548E+03  0.27816009016E+03  0.12508816455E+03 0.  0.
          5    1    3    3  502    0  0.19645504036E+02 -0.50822799033E+02 -0.18587259018E+03  0.19373950271E+03  0.41800000000E+01 0.  1.
         -5    1    3    3    0  502 -0.71139601927E+01  0.56486294866E+02 -0.62193675301E+02  0.84420587446E+02  0.41800000000E+01 0.  1.
        -11    1    1    2    0    0 -0.35539948571E+02 -0.37654848120E+02 -0.10875209652E+03  0.12044913462E+03  0.00000000000E+00 0.  1.
         11    1    1    2    0    0  0.23008404728E+02  0.31991352287E+02 -0.56758221233E+02  0.69096519354E+02  0.00000000000E+00 0. -1.
</event>
<event>
 7    1  0.2394257E-009  0.1067070E+03  0.7561462E-02  0.1266792E+00
          1   -1    0    0  501    0  0.00000000000E+00  0.00000000000E+00  0.17456909888E+03  0.17456909888E+03  0.00000000000E+00 0. -1.
         -1   -1    0    0    0  501 -0.00000000000E+00 -0.00000000000E+00 -0.12224581666E+03  0.12224581666E+03  0.00000000000E+00 0.  1.
         25    2    1    2    0    0  0.50763839179E+02 -0.47685022376E+02 -0.43663840817E+02  0.14968386955E+03  0.12509157078E+03 0.  0.
          5    1    3    3  502    0  0.30648446565E+02  0.24134738812E+02  0.26382694439E+02  0.47279296317E+02  0.41800000000E+01 0.  1.
         -5    1    3    3    0  502  0.20115392615E+02 -0.71819761187E+02 -0.70046535256E+02  0.10240457323E+03  0.41800000000E+01 0.  1.
        -11    1    1    2    0    0 -0.45537674022E+02 -0.56520704364E+01  0.11879027288E+02  0.47399756801E+02  0.00000000000E+00 0. -1.
         11    1    1    2    0    0 -0.52261651577E+01  0.53337092812E+02  0.84108095755E+02  0.99731289189E+02  0.00000000000E+00 0.  1.
</event>
<event>
 7    1  0.2394257E-009  0.9371479E+02  0.7561462E-02  0.1294097E+00
          2   -1    0    0  501    0  0.00000000000E+00  0.00000000000E+00  0.11723200677E+03  0.11723200677E+03  0.00000000000E+00 0. -1.
         -2   -1    0    0    0  501 -0.00000000000E+00 -0.00000000000E+00 -0.17200383285E+03  0.17200383285E+03  0.00000000000E+00 0.  1.
         25    2    1    2    0    0 -0.32643370581E+02 -0.31064459362E+02 -0.11154983568E+03  0.17355708269E+03  0.12509238519E+03 0.  0.
          5    1    3    3  502    0  0.35685928899E+02 -0.48994969810E+02 -0.38931748388E+02  0.72160557237E+02  0.41800000000E+01 0. -1.
         -5    1    3    3    0  502 -0.68329299480E+02  0.17930510449E+02 -0.72618087288E+02  0.10139652545E+03  0.41800000000E+01 0. -1.
        -11    1    1    2    0    0 -0.95015589862E+00  0.20739768949E+02 -0.21491027176E+02  0.29881517053E+02  0.00000000000E+00 0.  1.
         11    1    1    2    0    0  0.33593526480E+02  0.10324690412E+02  0.78269036772E+02  0.85797239878E+02  0.00000000000E+00 0. -1.
</event>
<event>
 7    1  0.2394257E-009  0.1431054E+03  0.7561462E-02  0.1209210E+00
         -1   -1    0    0    0  501 -0.00000000000E+00  0.00000000000E+00  0.79786246438E+02  0.79786246438E+02  0.00000000000E+00 0.  1.
          1   -1    0    0  501    0  0.00000000000E+00 -0.00000000000E+00 -0.44736000400E+03  0.44736000400E+03  0.00000000000E+00 0. -1.
         25    2    1    2    0    0  0.75082387909E+02 -0.11224227847E+03 -0.29357981655E+03  0.34651439096E+03  0.12508964948E+03 0.  0.
          5    1    3    3  502    0  0.67956451725E+02 -0.53209836960E+02 -0.59376631061E+02  0.10484475569E+03  0.41800000000E+01 0. -1.
         -5    1    3    3    0  502  0.71259361846E+01 -0.59032441513E+02 -0.23420318549E+03  0.24166963527E+03  0.41800000000E+01 0. -1.
        -11    1    1    2    0    0 -0.42216974972E+02  0.92936813423E+02 -0.92956372283E+02  0.13805944884E+03  0.00000000000E+00 0. -1.
         11    1    1    2    0    0 -0.32865412938E+02  0.19305465051E+02  0.18962431267E+02  0.42572410643E+02  0.00000000000E+00 0.  1.
</event>
<event>
 7    1  0.2394257E-009  0.1625214E+03  0.7561462E-02  0.1185879E+00
         -2   -1    0    0    0  501 -0.00000000000E+00  0.00000000000E+00  0.17934881336E+02  0.17934881336E+02  0.00000000000E+00 0.  1.
          2   -1    0    0  501    0  0.00000000000E+00 -0.00000000000E+00 -0.16761890224E+04  0.16761890224E+04  0.00000000000E+00 0. -1.
         25    2    1    2    0    0  0.66536864898E+02  0.10868446569E+03 -0.10884921995E+04  0.11030422871E+04  0.12509017285E+03 0.  0.
          5    1    3    3  502    0 -0.29222321297E+02  0.41537253536E+02 -0.52855741030E+03  0.53100818814E+03  0.41800000000E+01 0.  1.
         -5    1    3    3    0  502  0.95759186195E+02  0.67147212157E+02 -0.55993478915E+03  0.57203409894E+03  0.41800000000E+01 0.  1.
        -11    1    1    2    0    0  0.22839241194E+02 -0.31844622018E+02 -0.12784725990E+03  0.13371848322E+03  0.00000000000E+00 0. -1.
         11    1    1    2    0    0 -0.89376106092E+02 -0.76839843675E+02 -0.44191468166E+03  0.45736313339E+03  0.00000000000E+00 0.  1.
</event>
<event>
 7    1  0.2394257E-009  0.8527245E+02  0.7561462E-02  0.1314722E+00
         -3   -1    0    0    0  501 -0.00000000000E+00  0.00000000000E+00  0.50983744072E+03  0.50983744072E+03  0.00000000000E+00 0.  1.
          3   -1    0    0  501    0  0.00000000000E+00 -0.00000000000E+00 -0.31554980329E+02  0.31554980329E+02  0.00000000000E+00 0. -1.
         25    2    1    2    0    0  0.85471659042E+01 -0.99294450245E+01  0.39958403350E+03  0.41890974124E+03  0.12508526514E+03 0.  0.
          5    1    3    3  502    0 -0.44193498204E+02 -0.24934023844E+02  0.81422245210E+02  0.96030335017E+02  0.41800000000E+01 0.  1.
         -5    1    3    3    0  502  0.52740664108E+02  0.15004578820E+02  0.31816178829E+03  0.32287940622E+03  0.41800000000E+01 0.  1.
        -11    1    1    2    0    0  0.26635722966E+02 -0.37322990760E+01  0.80322042614E+02  0.84705503505E+02  0.00000000000E+00 0.  1.
         11    1    1    2    0    0 -0.35182888870E+02  0.13661744100E+02 -0.16236157264E+01  0.37777176299E+02  0.00000000000E+00 0. -1.
</event>
<event>
 7    1  0.2394257E-009  0.1490837E+03  0.7561462E-02  0.1201603E+00
         -2   -1    0    0    0  501 -0.00000000000E+00  0.00000000000E+00  0.38245577674E+02  0.38245577674E+02  0.00000000000E+00 0. -1.
          2   -1    0    0  501    0  0.00000000000E+00 -0.00000000000E+00 -0.61652560776E+03  0.61652560776E+03  0.00000000000E+00 0.  1.
         25    2    1    2    0    0 -0.20051215855E+02 -0.10378904501E+03 -0.35776100735E+03  0.39346647846E+03  0.12509482073E+03 0.  0.
          5    1    3    3  502    0  0.12857474149E+02 -0.12087626422E+03 -0.22758809616E+03  0.25805076983E+03  0.41800000000E+01 0.  1.
         -5    1    3    3    0  502 -0.32908690004E+02  0.17087219217E+02 -0.13017291119E+03  0.13541570864E+03  0.41800000000E+01 0.  1.
        -11    1    1    2    0    0  0.36620513143E+02  0.11401475090E+03 -0.19926814051E+03  0.23248272458E+03  0.00000000000E+00 0. -1.
         11    1    1    2    0    0 -0.16569297288E+02 -0.10225705890E+02 -0.21250882220E+02  0.28821982386E+02  0.00000000000E+00 0.  1.
</event>
<event>
 7    1  0.2394257E-009  0.1049207E+03  0.7561462E-02  0.1270276E+00
         -1   -1    0    0    0  501 -0.00000000000E+00  0.00000000000E+00  0.41412373936E+02  0.41412373936E+02  0.00000000000E+00 0.  1.
          1   -1    0    0  501    0  0.00000000000E+00 -0.00000000000E+00 -0.33858524069E+03  0.33858524069E+03  0.00000000000E+00 0. -1.
         25    2    1    2    0    0 -0.34451874274E+02  0.37971955253E+01 -0.21997325743E+03  0.25541258078E+03  0.12508398020E+03 0.  0.
          5    1    3    3  502    0 -0.78116754672E+02 -0.18751336175E+02 -0.13359232118E+03  0.15594300449E+03  0.41800000000E+01 0. -1.
         -5    1    3    3    0  502  0.43664880398E+02  0.22548531701E+02 -0.86380936242E+02  0.99469576294E+02  0.41800000000E+01 0. -1.
        -11    1    1    2    0    0  0.55965610031E+02  0.62845591486E+01 -0.15413834261E+02  0.58388624547E+02  0.00000000000E+00 0.  1.
         11    1    1    2    0    0 -0.21513735757E+02 -0.10081754674E+02 -0.61785775071E+02  0.66196409303E+02  0.00000000000E+00 0. -1.
</event>
<event>
 7    1  0.2394257E-009  0.1186818E+03  0.7561462E-02  0.1245288E+00
         -2   -1    0    0    0  501 -0.00000000000E+00  0.00000000000E+00  0.83669953053E+03  0.83669953053E+03  0.00000000000E+00 0.  1.
          2   -1    0    0  501    0  0.00000000000E+00 -0.00000000000E+00 -0.18018876496E+02  0.18018876496E+02  0.00000000000E+00 0. -1.
         25    2    1    2    0    0 -0.24330407410E+02  0.46373105542E+02  0.54471565073E+03  0.56134205594E+03  0.12508928802E+03 0.  0.
          5    1    3    3  502    0  0.49215307552E+02  0.10399276486E+02  0.26909616954E+03  0.27378917493E+03  0.41800000000E+01 0. -1.
         -5    1    3    3    0  502 -0.73545714962E+02  0.35973829057E+02  0.27561948119E+03  0.28755288101E+03  0.41800000000E+01 0. -1.
        -11    1    1    2    0    0 -0.31667916137E+02 -0.36020823134E+02  0.12159523371E+03  0.13071249929E+03  0.00000000000E+00 0. -1.
         11    1    1    2    0    0  0.55998323547E+02 -0.10352282408E+02  0.15236976960E+03  0.16266385179E+03  0.00000000000E+00 0.  1.
</event>
<event>
 7    1  0.2394257E-009  0.1259462E+03  0.7561462E-02  0.1233598E+00
         -3   -1    0    0    0  501 -0.00000000000E+00  0.00000000000E+00  0.10314229928E+03  0.10314229928E+03  0.00000000000E+00 0.  1.
          3   -1    0    0  501    0  0.00000000000E+00 -0.00000000000E+00 -0.17162780403E+03  0.17162780403E+03  0.00000000000E+00 0. -1.
         25    2    1    2    0    0  0.63954913261E+02  0.39925811329E+02 -0.34375649700E+02  0.15004570665E+03  0.12509087677E+03 0.  0.
          5    1    3    3  502    0  0.61819348684E+02  0.81441507470E+02 -0.35317102070E+02  0.10825488954E+03  0.41800000000E+01 0. -1.
         -5    1    3    3    0  502  0.21355645773E+01 -0.41515696141E+02  0.94145236992E+00  0.41790817109E+02  0.41800000000E+01 0. -1.
        -11    1    1    2    0    0  0.13045804227E+02 -0.26611105551E+02 -0.35909806368E+02  0.46560263530E+02  0.00000000000E+00 0. -1.
         11    1    1    2    0    0 -0.77000717488E+02 -0.13314705779E+02  0.17999513157E+01  0.78164133133E+02  0.00000000000E+00 0.  1.
</event>
<event>
 7    1  0.2394257E-009  0.1630355E+03  0.7561462E-02  0.1185312E+00
         -1   -1    0    0    0  501 -0.00000000000E+00  0.00000000000E+00  0.23049166363E+03  0.23049166363E+03  0.00000000000E+00 0.  1.
          1   -1    0    0  501    0  0.00000000000E+00 -0.00000000000E+00 -0.14894024077E+03  0.14894024077E+03  0.00000000000E+00 0. -1.
         25    2    1    2    0    0  0.95131437927E+02 -0.11388517636E+03  0.64271460396E+02  0.20444239899E+03  0.12508417168E+03 0.  0.
          5    1    3    3  502    0  0.28448088854E+02 -0.49415566409E+01  0.70697533089E+02  0.76480888635E+02  0.41800000000E+01 0. -1.
         -5    1    3    3    0  502  0.66683349073E+02 -0.10894361972E+03 -0.64260726934E+01  0.12796151035E+03  0.41800000000E+01 0.  1.
        -11    1    1    2    0    0  0.12869337044E+02  0.29005777800E+02  0.20161883440E+02  0.37595964219E+02  0.00000000000E+00 0.  1.
         11    1    1    2    0    0 -0.10800077497E+03  0.84879398563E+02 -0.28819209731E+01  0.13739354120E+03  0.00000000000E+00 0. -1.
</event>
<event>
 7    1  0.2394257E-009  0.1289294E+03  0.7561462E-02  0.1229053E+00
         -2   -1    0    0    0  501 -0.00000000000E+00  0.00000000000E+00  0.43131520487E+03  0.43131520487E+03  0.00000000000E+00 0.  1.
          2   -1    0    0  501    0  0.00000000000E+00 -0.00000000000E+00 -0.73761288807E+02  0.73761288807E+02  0.00000000000E+00 0. -1.
         25    2    1    2    0    0  0.33573473370E+02 -0.10421734271E+03  0.32180030166E+03  0.36219911557E+03  0.12507730622E+03 0.  0.
          5    1    3    3  502    0 -0.93948536847E+01 -0.47859692489E+01 -0.87523920896E+01  0.14326393290E+02  0.41800000000E+01 0. -1.
         -5    1    3    3    0  502  0.42968327055E+02 -0.99431373457E+02  0.33055269375E+03  0.34787272228E+03  0.41800000000E+01 0. -1.
        -11    1    1    2    0    0 -0.49298971423E+02  0.11064381045E+03  0.28701416096E+02  0.12448378473E+03  0.00000000000E+00 0. -1.
         11    1    1    2    0    0  0.15725498053E+02 -0.64264677439E+01  0.70521983084E+01  0.18393593386E+02  0.00000000000E+00 0.  1.
</event>
<event>
 7    1  0.2394257E-009  0.1117766E+03  0.7561462E-02  0.1257315E+00
          3   -1    0    0  501    0  0.00000000000E+00  0.00000000000E+00  0.12999117170E+03  0.12999117170E+03  0.00000000000E+00 0. -1.
         -3   -1    0    0    0  501 -0.00000000000E+00 -0.00000000000E+00 -0.11701994771E+03  0.11701994771E+03  0.00000000000E+00 0.  1.
         25    2    1    2    0    0 -0.64165193448E+02  0.38854557373E+01 -0.74373957866E+01  0.14083680658E+03  0.12508965751E+03 0.  0.
          5    1    3    3  502    0  0.31605569675E+02 -0.94127713322E+01  0.21781986827E+02  0.39742164621E+02  0.41800000000E+01 0.  1.
         -5    1    3    3    0  502 -0.95770763124E+02  0.13298227070E+02 -0.29219382613E+02  0.10109464196E+03  0.41800000000E+01 0.  1.
        -11    1    1    2    0    0  0.66285460981E+02  0.20245265102E+02 -0.69228517388E+01  0.69653133258E+02  0.00000000000E+00 0. -1.
         11    1    1    2    0    0 -0.21202675327E+01 -0.24130720839E+02  0.27331471514E+02  0.36521179578E+02  0.00000000000E+00 0.  1.
</event>
<event>
 7    1  0.2445919E-009  0.4497192E+03  0.7561462E-02  0.1027806E+00
          1   -1    0    0  501    0  0.00000000000E+00  0.00000000000E+00  0.64418500232E+03  0.64418500232E+03  0.00000000000E+00 0. -1.
         -1   -1    0    0    0  501 -0.00000000000E+00 -0.00000000000E+00 -0.36795529021E+03  0.36795529021E+03  0.00000000000E+00 0.  1.
         25    2    1    2    0    0 -0.24756643319E+03  0.36614044560E+03 -0.39797123934E+02  0.46106345700E+03  0.12509090916E+03 0.  0.
          5    1    3    3  502    0 -0.21214705640E+01 -0.55338782783E+01  0.10550846615E+02  0.12803015678E+02  0.41800000000E+01 0.  1.
         -5    1    3    3    0  502 -0.24544496263E+03  0.37167432388E+03 -0.50347970550E+02  0.44826044132E+03  0.41800000000E+01 0.  1.
        -11    1    1    2    0    0  0.76973725981E+02 -0.17126361713E+03  0.17247609118E+03  0.25495917923E+03  0.00000000000E+00 0.  1.
         11    1    1    2    0    0  0.17059270721E+03 -0.19487682848E+03  0.14355074486E+03  0.29611765631E+03  0.00000000000E+00 0. -1.
</event>
<event>
 7    1  0.2394257E-009  0.1282527E+03  0.7561462E-02  0.1230072E+00
         -1   -1    0    0    0  501 -0.00000000000E+00  0.00000000000E+00  0.22241284399E+03  0.22241284399E+03  0.00000000000E+00 0.  1.
          1   -1    0    0  501    0  0.00000000000E+00 -0.00000000000E+00 -0.10171411448E+03  0.10171411448E+03  0.00000000000E+00 0. -1.
         25    2    1    2    0    0 -0.56200046115E+01  0.10672039882E+03  0.78343153331E+02  0.18222672126E+03  0.12509236704E+03 0.  0.
          5    1    3    3  502    0  0.38979403915E+02  0.79086457758E+02  0.51364180398E+00  0.88271161532E+02  0.41800000000E+01 0.  1.
         -5    1    3    3    0  502 -0.44599408527E+02  0.27633941058E+02  0.77829511527E+02  0.93955559728E+02  0.41800000000E+01 0.  1.
        -11    1    1    2    0    0 -0.18417142569E+02 -0.29971291353E+02 -0.19699105903E+02  0.40317790355E+02  0.00000000000E+00 0. -1.
         11    1    1    2    0    0  0.24037147181E+02 -0.76749107464E+02  0.62054682082E+02  0.10158244686E+03  0.00000000000E+00 0.  1.
</event>
<event>
 7    1  0.2394257E-009  0.1140087E+03  0.7561462E-02  0.1253321E+00
         -1   -1    0    0    0  501 -0.00000000000E+00  0.00000000000E+00  0.10391640429E+03  0.10391640429E+03  0.00000000000E+00 0.  1.
          1   -1    0    0  501    0  0.00000000000E+00 -0.00000000000E+00 -0.16645372885E+03  0.16645372885E+03  0.00000000000E+00 0. -1.
         25    2    1    2    0    0  0.25712995845E+02 -0.60558910080E+02 -0.14195014645E+02  0.14204955243E+03  0.12509211470E+03 0.  0.
          5    1    3    3  502    0  0.56853796959E+02  0.15468581328E+02 -0.53053542951E+01  0.59306411299E+02  0.41800000000E+01 0. -1.
         -5    1    3    3    0  502 -0.31140801115E+02 -0.76027491407E+02 -0.88896603498E+01  0.82743141135E+02  0.41800000000E+01 0. -1.
        -11    1    1    2    0    0 -0.36781933143E+02  0.14870070404E+02 -0.66900231299E+02  0.77779628100E+02  0.00000000000E+00 0.  1.
         11    1    1    2    0    0  0.11068937298E+02  0.45688839676E+02  0.18557921382E+02  0.50540952601E+02  0.00000000000E+00 0. -1.
</event>
<event>
 7    1  0.2394257E-009  0.9097868E+02  0.7561462E-02  0.1300499E+00
         -2   -1    0    0    0  501 -0.00000000000E+00  0.00000000000E+00  0.64665406819E+02  0.64665406819E+02  0.00000000000E+00 0.  1.
          2   -1    0    0  501    0  0.00000000000E+00 -0.00000000000E+00 -0.42099612867E+03  0.42099612867E+03  0.00000000000E+00 0. -1.
         25    2    1    2    0    0 -0.37067464649E+02  0.48283397666E+02 -0.31237114096E+02  0.14257770618E+03  0.12508941433E+03 0.  0.
          5    1    3    3  502    0 -0.72009522424E+01  0.43246568321E+02 -0.76313599742E+02  0.88109915959E+02  0.41800000000E+01 0.  1.
         -5    1    3    3    0  502 -0.29866512406E+02  0.50368293452E+01  0.45076485646E+02  0.54467790219E+02  0.41800000000E+01 0.  1.
        -11    1    1    2    0    0 -0.27641033710E+02 -0.18619479083E+01 -0.56398667554E+02  0.62835525751E+02  0.00000000000E+00 0. -1.
         11    1    1    2    0    0  0.64708498358E+02 -0.46421449758E+02 -0.26869494020E+03  0.28024830355E+03  0.00000000000E+00 0.  1.
</event>
<event>
 7    1  0.2394257E-009  0.1478690E+03  0.7561462E-02  0.1203116E+00
         -1   -1    0    0    0  501 -0.00000000000E+00  0.00000000000E+00  0.12535463335E+03  0.12535463335E+03  0.00000000000E+00 0.  1.
          1   -1    0    0  501    0  0.00000000000E+00 -0.00000000000E+00 -0.19657020082E+03  0.19657020082E+03  0.00000000000E+00 0. -1.
         25    2    1    2    0    0 -0.63327530808E+02  0.93640728397E+02 -0.33402001657E+02  0.17187809067E+03  0.12508965650E+03 0.  0.
          5    1    3    3  502    0 -0.78202913625E+02  0.11847287652E+02 -0.39318900483E+02  0.88427949537E+02  0.41800000000E+01 0. -1.
         -5    1    3    3    0  502  0.14875382817E+02  0.81793440745E+02  0.59168988257E+01  0.83450141130E+02  0.41800000000E+01 0. -1.
        -11    1    1    2    0    0  0.62054228442E+02 -0.28752973470E+02  0.10425947697E+02  0.69182086816E+02  0.00000000000E+00 0.  1.
         11    1    1    2    0    0  0.12733023657E+01 -0.64887754928E+02 -0.48239513505E+02  0.80864656691E+02  0.00000000000E+00 0. -1.
</event>
<event>
 7    1  0.2394257E-009  0.1128096E+03  0.7561462E-02  0.1255454E+00
         -2   -1    0    0    0  501 -0.00000000000E+00  0.00000000000E+00  0.85527495861E+02  0.85527495861E+02  0.00000000000E+00 0. -1.
          2   -1    0    0  501    0  0.00000000000E+00 -0.00000000000E+00 -0.20116344430E+03  0.20116344430E+03  0.00000000000E+00 0.  1.
         25    2    1    2    0    0  0.32861028150E+02  0.62985503396E+02 -0.84438508646E+02  0.16680321506E+03  0.12508569064E+03 0.  0.
          5    1    3    3  502    0  0.53580855132E+02  0.91081294815E+01  0.10598364444E+02  0.55530746332E+02  0.41800000000E+01 0. -1.
         -5    1    3    3    0  502 -0.20719826982E+02  0.53877373915E+02 -0.95036873091E+02  0.11127246873E+03  0.41800000000E+01 0. -1.
        -11    1    1    2    0    0  0.14586055420E+02 -0.64135058547E+02 -0.30304351339E+02  0.72418315760E+02  0.00000000000E+00 0.  1.
         11    1    1    2    0    0 -0.47447083570E+02  0.11495551504E+01 -0.89308845629E+00  0.47469409342E+02  0.00000000000E+00 0. -1.
</event>
<event>
 7    1  0.2394257E-009  0.1141618E+03  0.7561462E-02  0.1253051E+00
          2   -1    0    0  501    0  0.00000000000E+00  0.00000000000E+00  0.43226514522E+02  0.43226514522E+02  0.00000000000E+00 0. -1.
         -2   -1    0    0    0  501 -0.00000000000E+00 -0.00000000000E+00 -0.40498963971E+03  0.40498963971E+03  0.00000000000E+00 0.  1.
         25    2    1    2    0    0  0.51190416250E+02 -0.56833283414E+02 -0.17901563996E+03  0.23139720750E+03  0.12509031724E+03 0.  0.
          5    1    3    3  502    0 -0.35768029918E+02 -0.46165080378E+02 -0.79720568578E+02  0.98911111938E+02  0.41800000000E+01 0. -1.
         -5    1    3    3    0  502  0.86958446167E+02 -0.10668203035E+02 -0.99295071380E+02  0.13248609556E+03  0.41800000000E+01 0. -1.
        -11    1    1    2    0    0 -0.15891646685E+02  0.39830633587E+02 -0.17043844756E+03  0.17575064214E+03  0.00000000000E+00 0.  1.
         11    1    1    2    0    0 -0.35298769564E+02  0.17002649826E+02 -0.12309037668E+02  0.41068304593E+02  0.00000000000E+00 0. -1.
</event>
<event>
 7    1  0.2394257E-009  0.1259227E+03  0.7561462E-02  0.1233634E+00
          2   -1    0    0  501    0  0.00000000000E+00  0.00000000000E+00  0.21080787132E+03  0.21080787132E+03  0.00000000000E+00 0. -1.
         -2   -1    0    0    0  501 -0.00000000000E+00 -0.00000000000E+00 -0.17923188025E+03  0.17923188025E+03  0.00000000000E+00 0.  1.
         25    2    1    2    0    0  0.90472638628E+02  0.22023526483E+02  0.14720430115E+03  0.21444745757E+03  0.12509305226E+03 0.  0.
          5    1    3    3  502    0  0.10079752847E+03  0.28660357751E+01  0.46121524768E+02  0.11096406334E+03  0.41800000000E+01 0. -1.
         -5    1    3    3    0  502 -0.10324889841E+02  0.19157490708E+02  0.10108277638E+03  0.10348339423E+03  0.41800000000E+01 0. -1.
        -11    1    1    2    0    0  0.17349751157E+02 -0.10606135404E+02 -0.34983490368E+02  0.40464164044E+02  0.00000000000E+00 0. -1.
         11    1    1    2    0    0 -0.10782238979E+03 -0.11417391079E+02 -0.80644819708E+02  0.13512812995E+03  0.00000000000E+00 0.  1.
</event>
<event>
 7    1  0.2394257E-009  0.1359408E+03  0.7561462E-02  0.1218898E+00
          1   -1    0    0  501    0  0.00000000000E+00  0.00000000000E+00  0.32279923885E+03  0.32279923885E+03  0.00000000000E+00 0. -1.
         -1   -1    0    0    0  501 -0.00000000000E+00 -0.00000000000E+00 -0.10163434498E+03  0.10163434498E+03  0.00000000000E+00 0.  1.
         25    2    1    2    0    0 -0.12946069866E+03 -0.59608601757E+01  0.42645795705E+02  0.18509922010E+03  0.12508977991E+03 0.  0.
          5    1    3    3  502    0 -0.50145073261E+02 -0.14478289288E+02 -0.43167487064E+02  0.67860545035E+02  0.41800000000E+01 0. -1.
         -5    1    3    3    0  502 -0.79315625399E+02  0.85174291120E+01  0.85813282769E+02  0.11723867506E+03  0.41800000000E+01 0. -1.
        -11    1    1    2    0    0  0.31053350445E+02 -0.21143735367E+02  0.48356009252E+01  0.37878109185E+02  0.00000000000E+00 0.  1.
         11    1    1    2    0    0  0.98407348215E+02  0.27104595542E+02  0.17368349725E+03  0.20145625455E+03  0.00000000000E+00 0. -1.
</event>
<event>
 7    1  0.2394257E-009  0.1085374E+03  0.7561462E-02  0.1263303E+00
         -2   -1    0    0    0  501 -0.00000000000E+00  0.00000000000E+00  0.30023808903E+02  0.30023808903E+02  0.00000000000E+00 0.  1.
          2   -1    0    0  501    0  0.00000000000E+00 -0.00000000000E+00 -0.53939127753E+03  0.53939127753E+03  0.00000000000E+00 0. -1.
         25    2    1    2    0    0  0.61546140395E+02 -0.25405903836E+02 -0.26086075798E+03  0.29686586703E+03  0.12509044970E+03 0.  0.
          5    1    3    3  502    0  0.12871113824E+02  0.34473181938E+02 -0.18465516111E+03  0.18833233065E+03  0.41800000000E+01 0.  1.
         -5    1    3    3    0  502  0.48675026570E+02 -0.59879085774E+02 -0.76205596873E+02  0.10853353638E+03  0.41800000000E+01 0.  1.
        -11    1    1    2    0    0 -0.29486354619E+02  0.52875622508E+02 -0.19621018022E+03  0.20533804174E+03  0.00000000000E+00 0.  1.
         11    1    1    2    0    0 -0.32059785776E+02 -0.27469718672E+02 -0.52296530427E+02  0.67211177661E+02  0.00000000000E+00 0. -1.
</event>
<event>
 7    1  0.2394257E-009  0.9648085E+02  0.7561462E-02  0.1287875E+00
         -2   -1    0    0    0  501 -0.00000000000E+00  0.00000000000E+00  0.79901798087E+02  0.79901798087E+02  0.00000000000E+00 0.  1.
          2   -1    0    0  501    0  0.00000000000E+00 -0.00000000000E+00 -0.20390509561E+03  0.20390509561E+03  0.00000000000E+00 0. -1.
         25    2    1    2    0    0  0.25782513654E+02 -0.28767732120E+02 -0.76993585404E+01  0.13114498909E+03  0.12508959837E+03 0.  0.
          5    1    3    3  502    0  0.64296365556E+02 -0.54483285060E+02 -0.33927561496E+01  0.84447819208E+02  0.41800000000E+01 0.  1.
         -5    1    3    3    0  502 -0.38513851902E+02  0.25715552940E+02 -0.43066023908E+01  0.46697169887E+02  0.41800000000E+01 0.  1.
        -11    1    1    2    0    0 -0.40274654471E+02  0.23704271173E+02 -0.12607988682E+03  0.13446218102E+03  0.00000000000E+00 0. -1.
         11    1    1    2    0    0  0.14492140816E+02  0.50634609474E+01  0.97759478384E+01  0.18199723579E+02  0.00000000000E+00 0.  1.
</event>
<event>
 7    1  0.2394257E-009  0.1777810E+03  0.7561462E-02  0.1169968E+00
          2   -1    0    0  501    0  0.00000000000E+00  0.00000000000E+00  0.93295346066E+03  0.93295346066E+03  0.00000000000E+00 0. -1.
         -2   -1    0    0    0  501 -0.00000000000E+00 -0.00000000000E+00 -0.38990342968E+02  0.38990342968E+02  0.00000000000E+00 0.  1.
         25    2    1    2    0    0 -0.15468433107E+03  0.69770757493E+01  0.40551432817E+03  0.45173488644E+03  0.12508643177E+03 0.  0.
          5    1    3    3  502    0  0.36846769050E+01 -0.28017641165E+02  0.11989960637E+03  0.12325564112E+03  0.41800000000E+01 0. -1.
         -5    1    3    3    0  502 -0.15836900797E+03  0.34994716915E+02  0.28561472180E+03  0.32847924532E+03  0.41800000000E+01 0. -1.
        -11    1    1    2    0    0  0.71072624832E+02 -0.31322351740E+02  0.13089917925E+03  0.15220710511E+03  0.00000000000E+00 0.  1.
         11    1    1    2    0    0  0.83611706233E+02  0.24345275990E+02  0.35754961028E+03  0.36800181207E+03  0.00000000000E+00 0. -1.
</event>
<event>
 7    1  0.2394257E-009  0.1076155E+03  0.7561462E-02  0.1265050E+00
          2   -1    0    0  501    0  0.00000000000E+00  0.00000000000E+00  0.62053772490E+03  0.62053772490E+03  0.00000000000E+00 0. -1.
         -2   -1    0    0    0  501 -0.00000000000E+00 -0.00000000000E+00 -0.21559783392E+02  0.21559783392E+02  0.00000000000E+00 0.  1.
         25    2    1    2    0    0  0.36602197167E+02  0.13906065752E+02  0.37612945340E+03  0.39831430747E+03  0.12509125597E+03 0.  0.
          5    1    3    3  502    0 -0.16659590826E+02 -0.40766139688E+02  0.70169401590E+02  0.82949607781E+02  0.41800000000E+01 0. -1.
         -5    1    3    3    0  502  0.53261787993E+02  0.54672205440E+02  0.30596005181E+03  0.31536469969E+03  0.41800000000E+01 0. -1.
        -11    1    1    2    0    0 -0.57584944903E+02 -0.32839089135E+02  0.11966952477E+03  0.13680360672E+03  0.00000000000E+00 0.  1.
         11    1    1    2    0    0  0.20982747736E+02  0.18933023383E+02  0.10317896334E+03  0.10697959410E+03  0.00000000000E+00 0. -1.
</event>
<event>
 7    1  0.2394257E-009  0.1042643E+03  0.7561462E-02  0.1271576E+00
         -1   -1    0    0    0  501 -0.00000000000E+00  0.00000000000E+00  0.40960976310E+02  0.40960976310E+02  0.00000000000E+00 0.  1.
          1   -1    0    0  501    0  0.00000000000E+00 -0.00000000000E+00 -0.36833378767E+03  0.36833378767E+03  0.00000000000E+00 0. -1.
         25    2    1    2    0    0 -0.33565447345E+02  0.40853615128E+02 -0.14150369019E+03  0.19612650328E+03  0.12508658532E+03 0.  0.
          5    1    3    3  502    0 -0.66738340831E+02  0.58931245897E+02 -0.12761365760E+03  0.15565865182E+03  0.41800000000E+01 0. -1.
         -5    1    3    3    0  502  0.33172893487E+02 -0.18077630769E+02 -0.13890032584E+02  0.40467851459E+02  0.41800000000E+01 0. -1.
        -11    1    1    2    0    0  0.51884375598E+02 -0.27526214401E+02 -0.55374445784E+02  0.80721807192E+02  0.00000000000E+00 0.  1.
         11    1    1    2    0    0 -0.18318928253E+02 -0.13327400727E+02 -0.13049467538E+03  0.13244645350E+03  0.00000000000E+00 0. -1.
</event>
<event>
 7    1  0.2394257E-009  0.9397437E+02  0.7561462E-02  0.1293503E+00
          1   -1    0    0  501    0  0.00000000000E+00  0.00000000000E+00  0.89368238291E+03  0.89368238291E+03  0.00000000000E+00 0. -1.
         -1   -1    0    0    0  501 -0.00000000000E+00 -0.00000000000E+00 -0.14684817502E+02  0.14684817502E+02  0.00000000000E+00 0.  1.
         25    2    1    2    0    0 -0.23822283232E+02  0.39314161872E+01  0.62161967503E+03  0.63454071729E+03  0.12509174353E+03 0.  0.
          5    1    3    3  502    0 -0.43014430207E+01  0.48466735353E+02  0.51466651593E+03  0.51697835725E+03  0.41800000000E+01 0. -1.
         -5    1    3    3    0  502 -0.19520840211E+02 -0.44535319166E+02  0.10695315911E+03  0.11756236004E+03  0.41800000000E+01 0. -1.
        -11    1    1    2    0    0 -0.31990082937E+02 -0.11478216036E+02  0.13330111146E+03  0.13756562494E+03  0.00000000000E+00 0. -1.
         11    1    1    2    0    0  0.55812366168E+02  0.75467998489E+01  0.12407677892E+03  0.13626085818E+03  0.00000000000E+00 0.  1.
</event>
<event>
 7    1  0.2394257E-009  0.1227847E+03  0.7561462E-02  0.1238573E+00
         -1   -1    0    0    0  501 -0.00000000000E+00  0.00000000000E+00  0.33941678715E+03  0.33941678715E+03  0.00000000000E+00 0.  1.
          1   -1    0    0  501    0  0.00000000000E+00 -0.00000000000E+00 -0.84811419462E+02  0.84811419462E+02  0.00000000000E+00 0. -1.
         25    2    1    2    0    0 -0.68217975132E+02  0.66864828629E+02  0.24650350159E+03  0.29246525551E+03  0.12508937584E+03 0.  0.
          5    1    3    3  502    0 -0.84516471052E+02  0.15794159161E+02  0.21138960647E+03  0.22824444674E+03  0.41800000000E+01 0.  1.
         -5    1    3    3    0  502  0.16298495920E+02  0.51070669468E+02  0.35113895112E+02  0.64220808770E+02  0.41800000000E+01 0.  1.
        -11    1    1    2    0    0  0.37902721272E+02 -0.65125396360E+02  0.41989208279E+02  0.86261388481E+02  0.00000000000E+00 0.  1.
         11    1    1    2    0    0  0.30315253860E+02 -0.17394322697E+01 -0.33887342176E+02  0.45501562621E+02  0.00000000000E+00 0. -1.
</event>
<event>
 7    1  0.2394257E-009  0.9741215E+02  0.7561462E-02  0.1285834E+00
          2   -1    0    0  501    0  0.00000000000E+00  0.00000000000E+00  0.61645512743E+02  0.61645512743E+02  0.00000000000E+00 0. -1.
         -2   -1    0    0    0  501 -0.00000000000E+00 -0.00000000000E+00 -0.46411466524E+03  0.46411466524E+03  0.00000000000E+00 0.  1.
         25    2    1    2    0    0 -0.47441878594E+02 -0.38330009669E+02 -0.36761955567E+02  0.14393873836E+03  0.12508795920E+03 0.  0.
          5    1    3    3  502    0 -0.64887074872E+02 -0.24294773621E+02  0.28334445491E+02  0.74972539720E+02  0.41800000000E+01 0. -1.
         -5    1    3    3    0  502  0.17445196278E+02 -0.14035236048E+02 -0.65096401059E+02  0.68966198640E+02  0.41800000000E+01 0. -1.
        -11    1    1    2    0    0  0.51676320955E+02 -0.11239993137E+02 -0.25534380777E+03  0.26076280363E+03  0.00000000000E+00 0.  1.
         11    1    1    2    0    0 -0.42344423605E+01  0.49570002805E+02 -0.11036338916E+03  0.12105863598E+03  0.00000000000E+00 0. -1.
</event>
<event>
 7    1  0.2394257E-009  0.2148774E+03  0.7561462E-02  0.1137761E+00
          2   -1    0    0  501    0  0.00000000000E+00  0.00000000000E+00  0.35197342581E+04  0.35197342581E+04  0.00000000000E+00 0.  1.
         -2   -1    0    0    0  501 -0.00000000000E+00 -0.00000000000E+00 -0.18705742174E+02  0.18705742174E+02  0.00000000000E+00 0. -1.
         25    2    1    2    0    0 -0.16936565368E+03  0.10177852468E+03  0.26423237819E+04  0.26526526124E+04  0.12508925282E+03 0.  0.
          5    1    3    3  502    0  0.80043846875E+01 -0.16115286435E+02  0.33777977847E+03  0.33828453080E+03  0.41800000000E+01 0. -1.
         -5    1    3    3    0  502 -0.17737003837E+03  0.11789381112E+03  0.23045440034E+04  0.23143680816E+04  0.41800000000E+01 0. -1.
        -11    1    1    2    0    0  0.20380017173E+02 -0.18812042930E+02  0.35211217155E+02  0.44822626794E+02  0.00000000000E+00 0. -1.
         11    1    1    2    0    0  0.14898563651E+03 -0.82966481755E+02  0.82349351689E+03  0.84096476106E+03  0.00000000000E+00 0.  1.
</event>
<event>
 7    1  0.2394257E-009  0.1006877E+03  0.7561462E-02  0.1278856E+00
         -3   -1    0    0    0  501 -0.00000000000E+00  0.00000000000E+00  0.34016837498E+03  0.34016837498E+03  0.00000000000E+00 0.  1.
          3   -1    0    0  501    0  0.00000000000E+00 -0.00000000000E+00 -0.63259074466E+02  0.63259074466E+02  0.00000000000E+00 0. -1.
         25    2    1    2    0    0 -0.13616133242E+02 -0.76405494244E+02  0.22933746602E+03  0.27251760549E+03  0.12508786252E+03 0.  0.
          5    1    3    3  502    0 -0.15520766011E+02 -0.47438216029E+02  0.98093541163E+01  0.51038949301E+02  0.41800000000E+01 0.  1.
         -5    1    3    3    0  502  0.19046327688E+01 -0.28967278215E+02  0.21952811190E+03  0.22147865619E+03  0.41800000000E+01 0.  1.
        -11    1    1    2    0    0 -0.32749410557E+02  0.67104593888E+02  0.28815648859E+02  0.80036816728E+02  0.00000000000E+00 0.  1.
         11    1    1    2    0    0  0.46365543799E+02  0.93009003559E+01  0.18756185635E+02  0.50873027223E+02  0.00000000000E+00 0. -1.
</event>
<event>
 7    1  0.2394257E-009  0.1363066E+03  0.7561462E-02  0.1218387E+00
         -4   -1    0    0    0  501 -0.00000000000E+00  0.00000000000E+00  0.39762386561E+03  0.39762386561E+03  0.00000000000E+00 0.  1.
          4   -1    0    0  501    0  0.00000000000E+00 -0.00000000000E+00 -0.50191732020E+02  0.50191732020E+02  0.00000000000E+00 0. -1.
         25    2    1    2    0    0 -0.49684963359E+02  0.74646821508E+02  0.16594147051E+03  0.22632893329E+03  0.12508985117E+03 0.  0.
          5    1    3    3  502    0 -0.31794693270E+02  0.10567016773E+03  0.15153252947E+03  0.18750111135E+03  0.41800000000E+01 0.  1.
         -5    1    3    3    0  502 -0.17890270089E+02 -0.31023346226E+02  0.14408941035E+02  0.38827821941E+02  0.41800000000E+01 0.  1.
        -11    1    1    2    0    0 -0.19026612505E+02 -0.49380461409E+02  0.63888609080E+02  0.82959003867E+02  0.00000000000E+00 0. -1.
         11    1    1    2    0    0  0.68711575864E+02 -0.25266360099E+02  0.11760205400E+03  0.13852766047E+03  0.00000000000E+00 0.  1.
</event>
<event>
 7    1  0.2394257E-009  0.1023323E+03  0.7561462E-02  0.1275466E+00
          1   -1    0    0  501    0  0.00000000000E+00  0.00000000000E+00  0.87642071614E+02  0.87642071614E+02  0.00000000000E+00 0. -1.
         -1   -1    0    0    0  501 -0.00000000000E+00 -0.00000000000E+00 -0.20503934764E+03  0.20503934764E+03  0.00000000000E+00 0.  1.
         25    2    1    2    0    0  0.34597744939E+01 -0.44675739316E+02 -0.13387971536E+03  0.18862931781E+03  0.12509736061E+03 0.  0.
          5    1    3    3  502    0  0.25704737856E+01 -0.77574020060E+02 -0.13461717781E+03  0.15544643092E+03  0.41800000000E+01 0.  1.
         -5    1    3    3    0  502  0.88930070838E+00  0.32898280744E+02  0.73746245426E+00  0.33182886892E+02  0.41800000000E+01 0.  1.
        -11    1    1    2    0    0 -0.29043096098E+02 -0.12118929018E+02  0.26274242798E+02  0.40996410893E+02  0.00000000000E+00 0.  1.
         11    1    1    2    0    0  0.25583321604E+02  0.56794668334E+02 -0.97918034667E+01  0.63055690549E+02  0.00000000000E+00 0. -1.
</event>
<event>
 7    1  0.2394257E-009  0.1579257E+03  0.7561462E-02  0.1191059E+00
         -2   -1    0    0    0  501 -0.00000000000E+00  0.00000000000E+00  0.26022428446E+03  0.26022428446E+03  0.00000000000E+00 0. -1.
          2   -1    0    0  501    0  0.00000000000E+00 -0.00000000000E+00 -0.99762719351E+02  0.99762719351E+02  0.00000000000E+00 0.  1.
         25    2    1    2    0    0 -0.57911098696E+02  0.10364395396E+03  0.92315693065E+02  0.19561607506E+03  0.12509075542E+03 0.  0.
          5    1    3    3  502    0 -0.59830781400E+01  0.11331016566E+03  0.85622220750E+02  0.14220980259E+03  0.41800000000E+01 0. -1.
         -5    1    3    3    0  502 -0.51928020556E+02 -0.96662117026E+01  0.66934723146E+01  0.53406272471E+02  0.41800000000E+01 0. -1.
        -11    1    1    2    0    0  0.54568901082E+02 -0.98294168783E+01  0.20671163637E+02  0.59174989713E+02  0.00000000000E+00 0. -1.
         11    1    1    2    0    0  0.33421976146E+01 -0.93814537078E+02  0.47474708404E+02  0.10519593904E+03  0.00000000000E+00 0.  1.
</event>
<event>
 7    1  0.2394257E-009  0.1115797E+03  0.7561462E-02  0.1257672E+00
         -1   -1    0    0    0  501 -0.00000000000E+00  0.00000000000E+00  0.83747834903E+02  0.83747834903E+02  0.00000000000E+00 0.  1.
          1   -1    0    0  501    0  0.00000000000E+00 -0.00000000000E+00 -0.18105703747E+03  0.18105703747E+03  0.00000000000E+00 0. -1.
         25    2    1    2    0    0  0.27690534070E+02  0.47104368222E+02 -0.75179512160E+02  0.15583947337E+03  0.12509354592E+03 0.  0.
          5    1    3    3  502    0 -0.20244940039E+02 -0.30564471910E+02  0.95351237307E+00  0.36911056963E+02  0.41800000000E+01 0.  1.
         -5    1    3    3    0  502  0.47935474109E+02  0.77668840132E+02 -0.76133024533E+02  0.11892841641E+03  0.41800000000E+01 0.  1.
        -11    1    1    2    0    0  0.23628500324E+02 -0.34896757641E+02  0.14695296409E+02  0.44632291650E+02  0.00000000000E+00 0.  1.
         11    1    1    2    0    0 -0.51319034394E+02 -0.12207610581E+02 -0.36824986818E+02  0.64333107350E+02  0.00000000000E+00 0. -1.
</event>
<event>
 7    1  0.2394257E-009  0.1290869E+03  0.7561462E-02  0.1228817E+00
          1   -1    0    0  501    0  0.00000000000E+00  0.00000000000E+00  0.50461874354E+03  0.50461874354E+03  0.00000000000E+00 0. -1.
         -1   -1    0    0    0  501 -0.00000000000E+00 -0.00000000000E+00 -0.47696021927E+02  0.47696021927E+02  0.00000000000E+00 0.  1.
         25    2    1    2    0    0  0.80242821226E+02 -0.66673847080E+02  0.17928695055E+03  0.24223188571E+03  0.12509261998E+03 0.  0.
          5    1    3    3  502    0  0.78996661315E+02 -0.30606537573E+02  0.18677948082E+03  0.20513722114E+03  0.41800000000E+01 0. -1.
         -5    1    3    3    0  502  0.12461599105E+01 -0.36067309508E+02 -0.74925302686E+01  0.37094664569E+02  0.41800000000E+01 0. -1.
        -11    1    1    2    0    0 -0.25657893186E+02 -0.21396001105E+02  0.85389128644E+02  0.91691982401E+02  0.00000000000E+00 0. -1.
         11    1    1    2    0    0 -0.54584928040E+02  0.88069848186E+02  0.19224664242E+03  0.21839089736E+03  0.00000000000E+00 0.  1.
</event>
<event>
 7    1  0.2394257E-009  0.9714172E+02  0.7561462E-02  0.1286424E+00
          2   -1    0    0  501    0  0.00000000000E+00  0.00000000000E+00  0.15168398730E+03  0.15168398730E+03  0.00000000000E+00 0. -1.
         -2   -1    0    0    0  501 -0.00000000000E+00 -0.00000000000E+00 -0.11706103405E+03  0.11706103405E+03  0.00000000000E+00 0.  1.
         25    2    1    2    0    0 -0.17478990934E+00 -0.75449842773E+02  0.38852022984E+02  0.15116061630E+03  0.12508933969E+03 0.  0.
          5    1    3    3  502    0 -0.55457992908E+01 -0.58339094671E+02  0.83939648717E+02  0.10245751746E+03  0.41800000000E+01 0. -1.
         -5    1    3    3    0  502  0.53710093815E+01 -0.17110748102E+02 -0.45087625733E+02  0.48703098840E+02  0.41800000000E+01 0. -1.
        -11    1    1    2    0    0  0.40071773195E+02  0.64175050247E+02 -0.73095806185E+01  0.76010618008E+02  0.00000000000E+00 0.  1.
         11    1    1    2    0    0 -0.39896983285E+02  0.11274792526E+02  0.30805108790E+01  0.41573787042E+02  0.00000000000E+00 0. -1.
</event>
<event>
 7    1  0.2394257E-009  0.8922524E+02  0.7561462E-02  0.1304739E+00
          2   -1    0    0  501    0  0.00000000000E+00  0.00000000000E+00  0.99297107716E+03  0.99297107716E+03  0.00000000000E+00 0. -1.
         -2   -1    0    0    0  501 -0.00000000000E+00 -0.00000000000E+00 -0.15027826086E+02  0.15027826086E+02  0.00000000000E+00 0.  1.
         25    2    1    2    0    0 -0.18597728531E+01  0.53264880110E+02  0.48765023599E+03  0.50625214967E+03  0.12509148723E+03 0.  0.
          5    1    3    3  502    0 -0.26895715533E+02  0.29931315743E+02  0.46074733780E+03  0.46252010212E+03  0.41800000000E+01 0.  1.
         -5    1    3    3    0  502  0.25035942680E+02  0.23333564368E+02  0.26902898188E+02  0.43732047550E+02  0.41800000000E+01 0.  1.
        -11    1    1    2    0    0  0.38507586279E+02  0.42611431145E+00  0.12798569057E+03  0.13365385428E+03  0.00000000000E+00 0.  1.
         11    1    1    2    0    0 -0.36647813426E+02 -0.53690994422E+02  0.36230732452E+03  0.36809289929E+03  0.00000000000E+00 0. -1.
</event>
<event>
 7    1  0.2394257E-009  0.1303901E+03  0.7561462E-02  0.1226878E+00
         -2   -1    0    0    0  501 -0.00000000000E+00  0.00000000000E+00  0.18866872590E+02  0.18866872590E+02  0.00000000000E+00 0.  1.
          2   -1    0    0  501    0  0.00000000000E+00 -0.00000000000E+00 -0.97070284915E+03  0.97070284915E+03  0.00000000000E+00 0. -1.
         25    2    1    2    0    0  0.76332483098E+02 -0.22713240714E+02 -0.56839616637E+03  0.58742170789E+03  0.12509005429E+03 0.  0.
          5    1    3    3  502    0  0.10212416312E+03 -0.38556171602E+02 -0.50940568653E+03  0.52098709095E+03  0.41800000000E+01 0.  1.
         -5    1    3    3    0  502 -0.25791680022E+02  0.15842930887E+02 -0.58990479835E+02  0.66434616945E+02  0.41800000000E+01 0.  1.
        -11    1    1    2    0    0 -0.47123122175E+02  0.58288124250E+02 -0.24982675143E+03  0.26082848733E+03  0.00000000000E+00 0.  1.
         11    1    1    2    0    0 -0.29209360923E+02 -0.35574883535E+02 -0.13361305876E+03  0.14131952652E+03  0.00000000000E+00 0. -1.
</event>
<event>
 7    1  0.2394257E-009  0.9069455E+02  0.7561462E-02  0.1301178E+00
          2   -1    0    0  501    0  0.00000000000E+00  0.00000000000E+00  0.62975504976E+03  0.62975504976E+03  0.00000000000E+00 0. -1.
         -2   -1    0    0    0  501 -0.00000000000E+00 -0.00000000000E+00 -0.28057795763E+02  0.28057795763E+02  0.00000000000E+00 0.  1.
         25    2    1    2    0    0 -0.55712470435E+02 -0.42687246511E+02  0.25430384485E+03  0.29196608500E+03  0.12509064276E+03 0.  0.
          5    1    3    3  502    0 -0.41582584595E+02 -0.21284349011E+02  0.26096110133E+03  0.26514204431E+03  0.41800000000E+01 0.  1.
         -5    1    3    3    0  502 -0.14129885840E+02 -0.21402897500E+02 -0.66572564733E+01  0.26824040691E+02  0.41800000000E+01 0.  1.
        -11    1    1    2    0    0  0.51706505890E+02  0.66567752226E+02  0.31033848178E+03  0.32158171848E+03  0.00000000000E+00 0.  1.
         11    1    1    2    0    0  0.40059645445E+01 -0.23880505715E+02  0.37054927364E+02  0.44265042044E+02  0.00000000000E+00 0. -1.
</event>
<event>
 7    1  0.2394257E-009  0.9144766E+02  0.7561462E-02  0.1299383E+00
          1   -1    0    0  501    0  0.00000000000E+00  0.00000000000E+00  0.26621483616E+02  0.26621483616E+02  0.00000000000E+00 0. -1.
         -1   -1    0    0    0  501 -0.00000000000E+00 -0.00000000000E+00 -0.63314455818E+03  0.63314455818E+03  0.00000000000E+00 0.  1.
         25    2    1    2    0    0  0.61774071193E+02 -0.16703540574E+01 -0.25149936778E+03  0.28760820005E+03  0.12509084214E+03 0.  0.
          5    1    3    3  502    0  0.39988712618E+01 -0.11587958355E+02  0.11986930845E+02  0.17647398145E+02  0.41800000000E+01 0. -1.
         -5    1    3    3    0  502  0.57775199931E+02  0.99176042974E+01 -0.26348629862E+03  0.26996080190E+03  0.41800000000E+01 0. -1.
        -11    1    1    2    0    0 -0.25613111767E+02 -0.45214248160E+02 -0.18265813876E+03  0.18990617522E+03  0.00000000000E+00 0.  1.
         11    1    1    2    0    0 -0.36160959427E+02  0.46884602218E+02 -0.17236556803E+03  0.18225166653E+03  0.00000000000E+00 0. -1.
</event>
<event>
 7    1  0.2394257E-009  0.8369058E+02  0.7561462E-02  0.1318893E+00
         -4   -1    0    0    0  501 -0.00000000000E+00  0.00000000000E+00  0.36733038716E+02  0.36733038716E+02  0.00000000000E+00 0. -1.
          4   -1    0    0  501    0  0.00000000000E+00 -0.00000000000E+00 -0.45570933368E+03  0.45570933368E+03  0.00000000000E+00 0.  1.
         25    2    1    2    0    0  0.40879845828E+02 -0.31918343603E+02 -0.32200406880E+03  0.34931952983E+03  0.12509025200E+03 0.  0.
          5    1    3    3  502    0 -0.36911434693E+01 -0.19974506677E+02 -0.29492679264E+03  0.29565502004E+03  0.41800000000E+01 0. -1.
         -5    1    3    3    0  502  0.44570989297E+02 -0.11943836925E+02 -0.27077276162E+02  0.53664509797E+02  0.41800000000E+01 0. -1.
        -11    1    1    2    0    0 -0.45578335200E+02  0.58024351568E+02 -0.49844792846E+02  0.89043323099E+02  0.00000000000E+00 0. -1.
         11    1    1    2    0    0  0.46984893727E+01 -0.26106007966E+02 -0.47127433319E+02  0.54079519465E+02  0.00000000000E+00 0.  1.
</event>
<event>
 7    1  0.2394257E-009  0.6964873E+02  0.7561462E-02  0.1361292E+00
          1   -1    0    0  501    0  0.00000000000E+00  0.00000000000E+00  0.20535288227E+03  0.20535288227E+03  0.00000000000E+00 0. -1.
         -1   -1    0    0    0  501 -0.00000000000E+00 -0.00000000000E+00 -0.55222581475E+02  0.55222581475E+02  0.00000000000E+00 0.  1.
         25    2    1    2    0    0  0.30330231512E+02  0.22159619376E+02  0.11259947456E+03  0.17243739524E+03  0.12508014204E+03 0.  0.
          5    1    3    3  502    0  0.54226684065E+01 -0.18787211149E+02  0.12182196443E+03  0.12345212859E+03  0.41800000000E+01 0. -1.
         -5    1    3    3    0  502  0.24907563105E+02  0.40946830524E+02 -0.92224898698E+01  0.48985266655E+02  0.41800000000E+01 0. -1.
        -11    1    1    2    0    0  0.18249822673E+02 -0.12171113144E+01 -0.63958947531E+01  0.19376399491E+02  0.00000000000E+00 0.  1.
         11    1    1    2    0    0 -0.48580054185E+02 -0.20942508062E+02  0.43926720988E+02  0.68761669011E+02  0.00000000000E+00 0. -1.
</event>
<event>
 7    1  0.2394257E-009  0.2213918E+03  0.7561462E-02  0.1132850E+00
          2   -1    0    0  501    0  0.00000000000E+00  0.00000000000E+00  0.66662401182E+02  0.66662401182E+02  0.00000000000E+00 0. -1.
         -2   -1    0    0    0  501 -0.00000000000E+00 -0.00000000000E+00 -0.86582988311E+03  0.86582988311E+03  0.00000000000E+00 0.  1.
         25    2    1    2    0    0 -0.11117688877E+03  0.17791459440E+03 -0.49544636482E+03  0.55238560927E+03  0.12509539328E+03 0.  0.
          5    1    3    3  502    0 -0.12875009355E+03  0.15134589013E+03 -0.47338384200E+03  0.51341201711E+03  0.41800000000E+01 0.  1.
         -5    1    3    3    0  502  0.17573204780E+02  0.26568704268E+02 -0.22062522823E+02  0.38973592162E+02  0.41800000000E+01 0.  1.
        -11    1    1    2    0    0  0.49764985026E+02 -0.10761796923E+03 -0.23815238853E+03  0.26603522549E+03  0.00000000000E+00 0.  1.
         11    1    1    2    0    0  0.61411903745E+02 -0.70296625168E+02 -0.65568728573E+02  0.11407144953E+03  0.00000000000E+00 0. -1.
</event>
<event>
 7    1  0.2394257E-009  0.1717259E+03  0.7561462E-02  0.1176060E+00
         -1   -1    0    0    0  501 -0.00000000000E+00  0.00000000000E+00  0.20895539308E+03  0.20895539308E+03  0.00000000000E+00 0.  1.
          1   -1    0    0  501    0  0.00000000000E+00 -0.00000000000E+00 -0.19922326982E+03  0.19922326982E+03  0.00000000000E+00 0. -1.
         25    2    1    2    0    0 -0.69541936384E+02  0.12975876220E+03 -0.87041002427E+02  0.21188865640E+03  0.12508896564E+03 0.  0.
          5    1    3    3  502    0  0.10347003997E+02 -0.12146299832E+02  0.12753757951E+02  0.20850031971E+02  0.41800000000E+01 0.  1.
         -5    1    3    3    0  502 -0.79888940380E+02  0.14190506204E+03 -0.99794760378E+02  0.19103862443E+03  0.41800000000E+01 0.  1.
        -11    1    1    2    0    0  0.27726834043E+02 -0.11714280143E+03  0.93621109329E+02  0.15249959136E+03  0.00000000000E+00 0.  1.
         11    1    1    2    0    0  0.41815102341E+02 -0.12615960769E+02  0.31520163548E+01  0.43790415127E+02  0.00000000000E+00 0. -1.
</event>
<event>
 7    1  0.2842372E-009  0.1800771E+03  0.7561462E-02  0.1167728E+00
         -2   -1    0    0    0  501 -0.00000000000E+00  0.00000000000E+00  0.50761039125E+02  0.50761039125E+02  0.00000000000E+00 0.  1.
          2   -1    0    0  501    0  0.00000000000E+00 -0.00000000000E+00 -0.69572116388E+03  0.69572116388E+03  0.00000000000E+00 0. -1.
         25    2    1    2    0    0  0.82028443959E+02  0.12379393855E+03 -0.41322976587E+03  0.45657401406E+03  0.12508951224E+03 0.  0.
          5    1    3    3  502    0 -0.21815588565E+02  0.77001747779E+02 -0.16553136795E+03  0.18391110690E+03  0.41800000000E+01 0.  1.
         -5    1    3    3    0  502  0.10384403252E+03  0.46792190770E+02 -0.24769839793E+03  0.27266290716E+03  0.41800000000E+01 0.  1.
        -11    1    1    2    0    0 -0.20102951245E+02 -0.96135866432E+02 -0.17832882209E+03  0.20358635084E+03  0.00000000000E+00 0. -1.
         11    1    1    2    0    0 -0.61925492714E+02 -0.27658072117E+02 -0.53401536795E+02  0.86321838101E+02  0.00000000000E+00 0.  1.
</event>
<event>
 7    1  0.2394257E-009  0.1283567E+03  0.7561462E-02  0.1229915E+00
         -1   -1    0    0    0  501 -0.00000000000E+00  0.00000000000E+00  0.70408007025E+03  0.70408007025E+03  0.00000000000E+00 0.  1.
          1   -1    0    0  501    0  0.00000000000E+00 -0.00000000000E+00 -0.43462916167E+02  0.43462916167E+02  0.00000000000E+00 0. -1.
         25    2    1    2    0    0  0.39910962946E+02 -0.10285737434E+03  0.52730549081E+03  0.55305785702E+03  0.12509751456E+03 0.  0.
          5    1    3    3  502    0 -0.21663937064E+02 -0.31901927496E+02  0.36289064682E+02  0.53117113651E+02  0.41800000000E+01 0. -1.
         -5    1    3    3    0  502  0.61574900011E+02 -0.70955446845E+02  0.49101642613E+03  0.49994074337E+03  0.41800000000E+01 0. -1.
        -11    1    1    2    0    0 -0.53993266903E+02  0.72278911473E+02  0.46760590316E+02  0.10161725602E+03  0.00000000000E+00 0. -1.
         11    1    1    2    0    0  0.14082303956E+02  0.30578462868E+02  0.86551072953E+02  0.92867873376E+02  0.00000000000E+00 0.  1.
</event>
<event>
 7    1  0.2394257E-009  0.9815558E+02  0.7561462E-02  0.1284223E+00
         -2   -1    0    0    0  501 -0.00000000000E+00  0.00000000000E+00  0.39601557589E+02  0.39601557589E+02  0.00000000000E+00 0.  1.
          2   -1    0    0  501    0  0.00000000000E+00 -0.00000000000E+00 -0.43660681120E+03  0.43660681120E+03  0.00000000000E+00 0. -1.
         25    2    1    2    0    0  0.19329795519E+02 -0.15300957897E+02 -0.34569048141E+03  0.36845251961E+03  0.12509032720E+03 0.  0.
          5    1    3    3  502    0  0.45342730181E+02  0.28967578406E+02 -0.72136569807E+02  0.90090181942E+02  0.41800000000E+01 0. -1.
         -5    1    3    3    0  502 -0.26012934662E+02 -0.44268536303E+02 -0.27355391160E+03  0.27836233767E+03  0.41800000000E+01 0. -1.
        -11    1    1    2    0    0  0.33470924436E+02  0.17911828158E+02 -0.36945193872E+02  0.52972480788E+02  0.00000000000E+00 0. -1.
         11    1    1    2    0    0 -0.52800719955E+02 -0.26108702614E+01 -0.14369578328E+02  0.54783368394E+02  0.00000000000E+00 0.  1.
</event>
<event>
 7    1  0.2394257E-009  0.1195617E+03  0.7561462E-02  0.1243822E+00
         -1   -1    0    0    0  501 -0.00000000000E+00  0.00000000000E+00  0.17914230594E+03  0.17914230594E+03  0.00000000000E+00 0.  1.
          1   -1    0    0  501    0  0.00000000000E+00 -0.00000000000E+00 -0.84853504994E+02  0.84853504994E+02  0.00000000000E+00 0. -1.
         25    2    1    2    0    0  0.21797660633E+02  0.47832172516E+02  0.80629883535E+02  0.15782727846E+03  0.12508084174E+03 0.  0.
          5    1    3    3  502    0  0.13477168168E+02 -0.41736802049E+02  0.15552359215E+02  0.46721975389E+02  0.41800000000E+01 0.  1.
         -5    1    3    3    0  502  0.83204924650E+01  0.89568974565E+02  0.65077524321E+02  0.11110530307E+03  0.41800000000E+01 0.  1.
        -11    1    1    2    0    0 -0.65382022886E+01  0.27441383307E+02  0.70683930316E+01  0.29081605647E+02  0.00000000000E+00 0.  1.
         11    1    1    2    0    0 -0.15259458345E+02 -0.75273555823E+02  0.65905243751E+01  0.77086926821E+02  0.00000000000E+00 0. -1.
</event>
<event>
 7    1  0.2394257E-009  0.1351093E+03  0.7561462E-02  0.1220066E+00
          2   -1    0    0  501    0  0.00000000000E+00  0.00000000000E+00  0.16025472368E+03  0.16025472368E+03  0.00000000000E+00 0. -1.
         -2   -1    0    0    0  501 -0.00000000000E+00 -0.00000000000E+00 -0.16899485242E+03  0.16899485242E+03  0.00000000000E+00 0.  1.
         25    2    1    2    0    0 -0.10047325376E+03  0.63921330812E+02  0.27798753939E+02  0.17492774760E+03  0.12508451105E+03 0.  0.
          5    1    3    3  502    0  0.16832796778E+02  0.13519986758E+02 -0.27937336671E+02  0.35554187792E+02  0.41800000000E+01 0.  1.
         -5    1    3    3    0  502 -0.11730605054E+03  0.50401344054E+02  0.55736090610E+02  0.13937355980E+03  0.41800000000E+01 0.  1.
        -11    1    1    2    0    0  0.81833477219E+02 -0.42928355860E+02  0.16914124289E+02  0.93944927117E+02  0.00000000000E+00 0.  1.
         11    1    1    2    0    0  0.18639776543E+02 -0.20992974952E+02 -0.53453006973E+02  0.60376901389E+02  0.00000000000E+00 0. -1.
</event>
<event>
 7    1  0.2394257E-009  0.1383458E+03  0.7561462E-02  0.1215572E+00
          1   -1    0    0  501    0  0.00000000000E+00  0.00000000000E+00  0.34468225420E+02  0.34468225420E+02  0.00000000000E+00 0. -1.
         -1   -1    0    0    0  501 -0.00000000000E+00 -0.00000000000E+00 -0.69820995447E+03  0.69820995447E+03  0.00000000000E+00 0.  1.
         25    2    1    2    0    0 -0.11327933789E+02  0.10221312821E+03 -0.45108666488E+03  0.47927307875E+03  0.12509060364E+03 0.  0.
          5    1    3    3  502    0  0.41017279138E+01  0.12983121431E+03 -0.36735898616E+03  0.38967045756E+03  0.41800000000E+01 0. -1.
         -5    1    3    3    0  502 -0.15429661703E+02 -0.27618086103E+02 -0.83727678715E+02  0.89602621185E+02  0.41800000000E+01 0. -1.
        -11    1    1    2    0    0 -0.19269913832E+02 -0.23652754837E+02 -0.72319400183E+01  0.31354159962E+02  0.00000000000E+00 0. -1.
         11    1    1    2    0    0  0.30597847621E+02 -0.78560373368E+02 -0.20542312415E+03  0.22205094118E+03  0.00000000000E+00 0.  1.
</event>
<event>
 7    1  0.2394257E-009  0.8851078E+02  0.7561462E-02  0.1306499E+00
         -1   -1    0    0    0  501 -0.00000000000E+00  0.00000000000E+00  0.51839238711E+02  0.51839238711E+02  0.00000000000E+00 0.  1.
          1   -1    0    0  501    0  0.00000000000E+00 -0.00000000000E+00 -0.29019758383E+03  0.29019758383E+03  0.00000000000E+00 0. -1.
         25    2    1    2    0    0  0.22436254715E+02 -0.46916335565E+01 -0.20791493108E+03  0.24372467899E+03  0.12509078157E+03 0.  0.
          5    1    3    3  502    0 -0.45429689411E+02  0.25586947853E+02 -0.76016631618E+02  0.92274315294E+02  0.41800000000E+01 0.  1.
         -5    1    3    3    0  502  0.67865944126E+02 -0.30278581410E+02 -0.13189829946E+03  0.15145036370E+03  0.41800000000E+01 0.  1.
        -11    1    1    2    0    0 -0.29256433894E+02  0.18686422866E+02 -0.57459116570E+02  0.67131746593E+02  0.00000000000E+00 0. -1.
         11    1    1    2    0    0  0.68201791788E+01 -0.13994789310E+02  0.27015702522E+02  0.31180396960E+02  0.00000000000E+00 0.  1.
</event>
<event>
 7    1  0.2394257E-009  0.1507130E+03  0.7561462E-02  0.1199600E+00
          3   -1    0    0  501    0  0.00000000000E+00  0.00000000000E+00  0.10666581187E+03  0.10666581187E+03  0.00000000000E+00 0. -1.
         -3   -1    0    0    0  501 -0.00000000000E+00 -0.00000000000E+00 -0.22173248511E+03  0.22173248511E+03  0.00000000000E+00 0.  1.
         25    2    1    2    0    0 -0.10852362755E+03  0.78072722513E+01 -0.69215810597E+02  0.17965742723E+03  0.12509049319E+03 0.  0.
          5    1    3    3  502    0  0.25157843550E+02  0.78032288444E+01  0.43365361465E+01  0.27020092861E+02  0.41800000000E+01 0.  1.
         -5    1    3    3    0  502 -0.13368147110E+03  0.40434068821E-02 -0.73552346744E+02  0.15263733437E+03  0.41800000000E+01 0.  1.
        -11    1    1    2    0    0  0.93272304730E+02  0.31818224079E+02 -0.26314961419E+02  0.10200293823E+03  0.00000000000E+00 0.  1.
         11    1    1    2    0    0  0.15251322816E+02 -0.39625496330E+02 -0.19535901219E+02  0.46737931527E+02  0.00000000000E+00 0. -1.
</event>
<event>
 7    1  0.2881564E-009  0.2014982E+03  0.7561462E-02  0.1148481E+00
         -2   -1    0    0    0  501 -0.00000000000E+00  0.00000000000E+00  0.85973618739E+02  0.85973618739E+02  0.00000000000E+00 0.  1.
          2   -1    0    0  501    0  0.00000000000E+00 -0.00000000000E+00 -0.59301022559E+03  0.59301022559E+03  0.00000000000E+00 0. -1.
         25    2    1    2    0    0 -0.10980638551E+03  0.15873986582E+03 -0.32743125657E+03  0.40014281053E+03  0.12508898328E+03 0.  0.
          5    1    3    3  502    0 -0.11501250253E+03  0.16085925637E+03 -0.33549679830E+03  0.38946007519E+03  0.41800000000E+01 0. -1.
         -5    1    3    3    0  502  0.52061170243E+01 -0.21193905445E+01  0.80655417334E+01  0.10682735333E+02  0.41800000000E+01 0. -1.
        -11    1    1    2    0    0  0.32037610101E+02 -0.85772693636E+02 -0.13528655029E+03  0.16335793254E+03  0.00000000000E+00 0.  1.
         11    1    1    2    0    0  0.77768775404E+02 -0.72967172188E+02 -0.44318799998E+02  0.11548310127E+03  0.00000000000E+00 0. -1.
</event>
<event>
 7    1  0.2394257E-009  0.1222994E+03  0.7561462E-02  0.1239351E+00
         -2   -1    0    0    0  501 -0.00000000000E+00  0.00000000000E+00  0.14646004937E+03  0.14646004937E+03  0.00000000000E+00 0. -1.
          2   -1    0    0  501    0  0.00000000000E+00 -0.00000000000E+00 -0.22175016141E+03  0.22175016141E+03  0.00000000000E+00 0.  1.
         25    2    1    2    0    0 -0.74927636424E+02 -0.28439073993E+02 -0.16044215686E+03  0.21866373577E+03  0.12509681056E+03 0.  0.
          5    1    3    3  502    0 -0.10129982809E+03  0.75447813308E+01 -0.93598629535E+02  0.13819100820E+03  0.41800000000E+01 0.  1.
         -5    1    3    3    0  502  0.26372191664E+02 -0.35983855324E+02 -0.66843527324E+02  0.80472727568E+02  0.41800000000E+01 0.  1.
        -11    1    1    2    0    0  0.11102154910E+02  0.32326855587E+02  0.78054176736E+02  0.85209963864E+02  0.00000000000E+00 0. -1.
         11    1    1    2    0    0  0.63825481513E+02 -0.38877815934E+01  0.70978680764E+01  0.64336511153E+02  0.00000000000E+00 0.  1.
</event>
<event>
 7    1  0.2394257E-009  0.1748128E+03  0.7561462E-02  0.1172920E+00
          1   -1    0    0  501    0  0.00000000000E+00  0.00000000000E+00  0.11884174859E+03  0.11884174859E+03  0.00000000000E+00 0. -1.
         -1   -1    0    0    0  501 -0.00000000000E+00 -0.00000000000E+00 -0.49720936377E+03  0.49720936377E+03  0.00000000000E+00 0.  1.
         25    2    1    2    0    0  0.11807917348E+03 -0.10023575487E+03 -0.24634584544E+01  0.19910737529E+03  0.12509108882E+03 0.  0.
          5    1    3    3  502    0  0.12521403383E+03 -0.10606237188E+03 -0.32567135917E+02  0.16734954956E+03  0.41800000000E+01 0.  1.
         -5    1    3    3    0  502 -0.71348603507E+01  0.58266170141E+01  0.30103677462E+02  0.31757825725E+02  0.41800000000E+01 0.  1.
        -11    1    1    2    0    0 -0.19596210171E+02  0.69473193574E+02 -0.20468966012E+03  0.21704467982E+03  0.00000000000E+00 0.  1.
         11    1    1    2    0    0 -0.98482963310E+02  0.30762561293E+02 -0.17121449660E+03  0.19989905724E+03  0.00000000000E+00 0. -1.
</event>
<event>
 7    1  0.2404526E-009  0.8297892E+02  0.7561462E-02  0.1320804E+00
          1   -1    0    0  501    0  0.00000000000E+00  0.00000000000E+00  0.67544038609E+02  0.67544038609E+02  0.00000000000E+00 0. -1.
         -1   -1    0    0    0  501 -0.00000000000E+00 -0.00000000000E+00 -0.27315536608E+03  0.27315536608E+03  0.00000000000E+00 0.  1.
         25    2    1    2    0    0 -0.59538212040E+02  0.55786567712E+02 -0.10833704777E+03  0.18450323415E+03  0.12509031802E+03 0.  0.
          5    1    3    3  502    0 -0.71076839448E+01  0.75375199320E+01 -0.11245585548E+03  0.11300940319E+03  0.41800000000E+01 0.  1.
         -5    1    3    3    0  502 -0.52430528095E+02  0.48249047780E+02  0.41188077140E+01  0.71493830957E+02  0.41800000000E+01 0.  1.
        -11    1    1    2    0    0  0.48924661132E+02 -0.35272199520E+02 -0.11311393275E+03  0.12818936113E+03  0.00000000000E+00 0.  1.
         11    1    1    2    0    0  0.10613550908E+02 -0.20514368191E+02  0.15839653037E+02  0.28006809413E+02  0.00000000000E+00 0. -1.
</event>
<event>
 7    1  0.2394257E-009  0.1594673E+03  0.7561462E-02  0.1189299E+00
          2   -1    0    0  501    0  0.00000000000E+00  0.00000000000E+00  0.10969995680E+04  0.10969995680E+04  0.00000000000E+00 0. -1.
         -2   -1    0    0    0  501 -0.00000000000E+00 -0.00000000000E+00 -0.26625450471E+02  0.26625450471E+02  0.00000000000E+00 0.  1.
         25    2    1    2    0    0 -0.59203727972E+02 -0.10689030295E+03  0.40467558192E+03  0.44084172640E+03  0.12509389620E+03 0.  0.
          5    1    3    3  502    0  0.15358282513E+02  0.20535278978E+02  0.44025214221E+02  0.51120117485E+02  0.41800000000E+01 0.  1.
         -5    1    3    3    0  502 -0.74562010485E+02 -0.12742558193E+03  0.36065036770E+03  0.38972160892E+03  0.41800000000E+01 0.  1.
        -11    1    1    2    0    0 -0.11167498730E+02  0.59208737151E+02  0.18319037907E+03  0.19284476287E+03  0.00000000000E+00 0.  1.
         11    1    1    2    0    0  0.70371226702E+02  0.47681565798E+02  0.48250815658E+03  0.48993852924E+03  0.00000000000E+00 0. -1.
</event>
<event>
 7    1  0.2394257E-009  0.1637539E+03  0.7561462E-02  0.1184523E+00
         -1   -1    0    0    0  501 -0.00000000000E+00  0.00000000000E+00  0.49533686449E+02  0.49533686449E+02  0.00000000000E+00 0.  1.
          1   -1    0    0  501    0  0.00000000000E+00 -0.00000000000E+00 -0.56809061192E+03  0.56809061192E+03  0.00000000000E+00 0. -1.
         25    2    1    2    0    0  0.11125802491E+03  0.54063147916E+02 -0.21912861689E+03  0.28100905017E+03  0.12509022133E+03 0.  0.
          5    1    3    3  502    0  0.13762431498E+03  0.51318322507E+02 -0.16746662200E+03  0.22279264840E+03  0.41800000000E+01 0. -1.
         -5    1    3    3    0  502 -0.26366290076E+02  0.27448254080E+01 -0.51661994891E+02  0.58216401770E+02  0.41800000000E+01 0. -1.
        -11    1    1    2    0    0 -0.79402124981E+02 -0.79952619266E+02 -0.21516432078E+03  0.24288434226E+03  0.00000000000E+00 0.  1.
         11    1    1    2    0    0 -0.31855899925E+02  0.25889471351E+02 -0.84263987801E+02  0.93730905933E+02  0.00000000000E+00 0. -1.
</event>
<event>
 7    1  0.2394257E-009  0.1186620E+03  0.7561462E-02  0.1245321E+00
          3   -1    0    0  501    0  0.00000000000E+00  0.00000000000E+00  0.38874817787E+03  0.38874817787E+03  0.00000000000E+00 0. -1.
         -3   -1    0    0    0  501 -0.00000000000E+00 -0.00000000000E+00 -0.38722917950E+02  0.38722917950E+02  0.00000000000E+00 0.  1.
         25    2    1    2    0    0 -0.35000011421E+02  0.43396338138E+02  0.17225826826E+03  0.22006776701E+03  0.12509463670E+03 0.  0.
          5    1    3    3  502    0 -0.46248803191E+02  0.80615629767E+02  0.92264669423E+02  0.13102699410E+03  0.41800000000E+01 0. -1.
         -5    1    3    3    0  502  0.11248791770E+02 -0.37219291629E+02  0.79993598839E+02  0.89040772912E+02  0.41800000000E+01 0. -1.
        -11    1    1    2    0    0  0.38342575968E+02  0.18934985446E+02  0.90666567105E+02  0.10024526521E+03  0.00000000000E+00 0. -1.
         11    1    1    2    0    0 -0.33425645476E+01 -0.62331323584E+02  0.87100424558E+02  0.10715806361E+03  0.00000000000E+00 0.  1.
</event>
<event>
 7    1  0.2394257E-009  0.1517393E+03  0.7561462E-02  0.1198352E+00
          2   -1    0    0  501    0  0.00000000000E+00  0.00000000000E+00  0.59925183354E+02  0.59925183354E+02  0.00000000000E+00 0.  1.
         -2   -1    0    0    0  501 -0.00000000000E+00 -0.00000000000E+00 -0.52326087553E+03  0.52326087553E+03  0.00000000000E+00 0. -1.
         25    2    1    2    0    0 -0.12129334959E+03 -0.91837437183E+01 -0.13547952714E+03  0.22090502805E+03  0.12509161178E+03 0.  0.
          5    1    3    3  502    0 -0.98699141472E+02  0.49862418536E+02 -0.78294391908E+02  0.13555539648E+03  0.41800000000E+01 0.  1.
         -5    1    3    3    0  502 -0.22594208114E+02 -0.59046162254E+02 -0.57185135237E+02  0.85349631571E+02  0.41800000000E+01 0.  1.
        -11    1    1    2    0    0  0.29108904619E+02  0.21868020569E+02 -0.21899439303E+02  0.42486751976E+02  0.00000000000E+00 0.  1.
         11    1    1    2    0    0  0.92184444968E+02 -0.12684276850E+02 -0.30595672572E+03  0.31979427886E+03  0.00000000000E+00 0. -1.
</event>
<event>
 7    1  0.2394257E-009  0.1331982E+03  0.7561462E-02  0.1222786E+00
          1   -1    0    0  501    0  0.00000000000E+00  0.00000000000E+00  0.18311965169E+03  0.18311965169E+03  0.00000000000E+00 0. -1.
         -1   -1    0    0    0  501 -0.00000000000E+00 -0.00000000000E+00 -0.12088944515E+03  0.12088944515E+03  0.00000000000E+00 0.  1.
         25    2    1    2    0    0 -0.82288803329E+02  0.51293841272E+01 -0.27230390043E+02  0.15227309044E+03  0.12509133541E+03 0.  0.
          5    1    3    3  502    0  0.96957746658E+00 -0.48117144601E+02 -0.22370905068E+02  0.53236542699E+02  0.41800000000E+01 0. -1.
         -5    1    3    3    0  502 -0.83258380795E+02  0.53246528728E+02 -0.48594849748E+01  0.99036547741E+02  0.41800000000E+01 0. -1.
        -11    1    1    2    0    0  0.46140808412E+02  0.40197664710E+02  0.63580969616E+02  0.88246054566E+02  0.00000000000E+00 0. -1.
         11    1    1    2    0    0  0.36147994917E+02 -0.45327048837E+02  0.25879626962E+02  0.63489951839E+02  0.00000000000E+00 0.  1.
</event>
<event>
 7    1  0.2394257E-009  0.1099714E+03  0.7561462E-02  0.1260623E+00
         -1   -1    0    0    0  501 -0.00000000000E+00  0.00000000000E+00  0.40684593466E+02  0.40684593466E+02  0.00000000000E+00 0.  1.
          1   -1    0    0  501    0  0.00000000000E+00 -0.00000000000E+00 -0.43715216143E+03  0.43715216143E+03  0.00000000000E+00 0. -1.
         25    2    1    2    0    0  0.21839813291E+02 -0.63114740705E+02 -0.28740881355E+03  0.32048756685E+03  0.12509199199E+03 0.  0.
          5    1    3    3  502    0 -0.15588029899E+02  0.29197266382E+02 -0.31657356112E+02  0.45990516809E+02  0.41800000000E+01 0.  1.
         -5    1    3    3    0  502  0.37427843190E+02 -0.92312007088E+02 -0.25575145744E+03  0.27449705004E+03  0.41800000000E+01 0.  1.
        -11    1    1    2    0    0 -0.87124643577E+01 -0.96168678568E+01 -0.74748683155E+02  0.75866704265E+02  0.00000000000E+00 0. -1.
         11    1    1    2    0    0 -0.13127348933E+02  0.72731608562E+02 -0.34310071260E+02  0.81482483786E+02  0.00000000000E+00 0.  1.
</event>
<event>
 7    1  0.2394257E-009  0.2975759E+03  0.7561462E-02  0.1086459E+00
         -2   -1    0    0    0  501 -0.00000000000E+00  0.00000000000E+00  0.32586675259E+02  0.32586675259E+02  0.00000000000E+00 0.  1.
          2   -1    0    0  501    0  0.00000000000E+00 -0.00000000000E+00 -0.32307732693E+04  0.32307732693E+04  0.00000000000E+00 0. -1.
         25    2    1    2    0    0 -0.15000620803E+03  0.24327803438E+03 -0.21725146615E+04  0.21948015793E+04  0.12509178045E+03 0.  0.
          5    1    3    3  502    0 -0.24775792214E+02 -0.93490665845E+01 -0.29674788770E+03  0.29795641658E+03  0.41800000000E+01 0.  1.
         -5    1    3    3    0  502 -0.12523041582E+03  0.25262710097E+03 -0.18757667738E+04  0.18968451627E+04  0.41800000000E+01 0.  1.
        -11    1    1    2    0    0  0.60546408841E+02 -0.11488318127E+03 -0.31228914988E+03  0.33821372842E+03  0.00000000000E+00 0.  1.
         11    1    1    2    0    0  0.89459799190E+02 -0.12839485311E+03 -0.71338278261E+03  0.73034463680E+03  0.00000000000E+00 0. -1.
</event>
<event>
 7    1  0.2394257E-009  0.1043685E+03  0.7561462E-02  0.1271369E+00
         -2   -1    0    0    0  501 -0.00000000000E+00  0.00000000000E+00  0.66573556640E+02  0.66573556640E+02  0.00000000000E+00 0. -1.
          2   -1    0    0  501    0  0.00000000000E+00 -0.00000000000E+00 -0.23072975786E+03  0.23072975786E+03  0.00000000000E+00 0.  1.
         25    2    1    2    0    0  0.38899531980E+02 -0.20718638509E+02 -0.42399774810E+02  0.13923869247E+03  0.12508891640E+03 0.  0.
          5    1    3    3  502    0  0.69702788019E+02 -0.44360868883E+02 -0.53643782526E+02  0.98597632575E+02  0.41800000000E+01 0.  1.
         -5    1    3    3    0  502 -0.30803256040E+02  0.23642230373E+02  0.11244007716E+02  0.40641059892E+02  0.41800000000E+01 0.  1.
        -11    1    1    2    0    0 -0.57142704812E+02 -0.27747124606E+01 -0.36730898348E+02  0.67986370957E+02  0.00000000000E+00 0. -1.
         11    1    1    2    0    0  0.18243172832E+02  0.23493350970E+02 -0.85025528061E+02  0.90078251075E+02  0.00000000000E+00 0.  1.
</event>
<event>
 7    1  0.2394257E-009  0.8449370E+02  0.7561462E-02  0.1316762E+00
          1   -1    0    0  501    0  0.00000000000E+00  0.00000000000E+00  0.65023648424E+02  0.65023648424E+02  0.00000000000E+00 0. -1.
         -1   -1    0    0    0  501 -0.00000000000E+00 -0.00000000000E+00 -0.28394550035E+03  0.28394550035E+03  0.00000000000E+00 0.  1.
         25    2    1    2    0    0  0.44911786324E+02 -0.44349473677E+02 -0.53927443335E+02  0.15013135060E+03  0.12508920386E+03 0.  0.
          5    1    3    3  502    0  0.61070271343E+01 -0.35238592011E+02 -0.89544917662E+02  0.96513309063E+02  0.41800000000E+01 0.  1.
         -5    1    3    3    0  502  0.38804759189E+02 -0.91108816660E+01  0.35617474327E+02  0.53618041534E+02  0.41800000000E+01 0.  1.
        -11    1    1    2    0    0  0.14252846132E+02  0.28160607929E+02 -0.11633883619E+03  0.12054413411E+03  0.00000000000E+00 0.  1.
         11    1    1    2    0    0 -0.59164632456E+02  0.16188865748E+02 -0.48655572402E+02  0.78293664071E+02  0.00000000000E+00 0. -1.
</event>
<event>
 7    1  0.2394257E-009  0.8910712E+02  0.7561462E-02  0.1305028E+00
         -2   -1    0    0    0  501 -0.00000000000E+00  0.00000000000E+00  0.15874958185E+02  0.15874958185E+02  0.00000000000E+00 0.  1.
          2   -1    0    0  501    0  0.00000000000E+00 -0.00000000000E+00 -0.90771965724E+03  0.90771965724E+03  0.00000000000E+00 0. -1.
         25    2    1    2    0    0 -0.48400792979E+02  0.78133703036E+01 -0.56623146555E+03  0.58195333538E+03  0.12509167225E+03 0.  0.
          5    1    3    3  502    0 -0.57464697588E+02  0.28658927638E+02 -0.12946575836E+03  0.14457655615E+03  0.41800000000E+01 0.  1.
         -5    1    3    3    0  502  0.90639046086E+01 -0.20845557334E+02 -0.43676570719E+03  0.43737677923E+03  0.41800000000E+01 0.  1.
        -11    1    1    2    0    0  0.27949662436E+02 -0.42274763499E+02 -0.95982635835E+02  0.10854034108E+03  0.00000000000E+00 0.  1.
         11    1    1    2    0    0  0.20451130543E+02  0.34461393196E+02 -0.22963059767E+03  0.23310093897E+03  0.00000000000E+00 0. -1.
</event>
<event>
 7    1  0.2394257E-009  0.1104320E+03  0.7561462E-02  0.1259772E+00
         -1   -1    0    0    0  501 -0.00000000000E+00  0.00000000000E+00  0.30491926939E+02  0.30491926939E+02  0.00000000000E+00 0.  1.
          1   -1    0    0  501    0  0.00000000000E+00 -0.00000000000E+00 -0.67657097007E+03  0.67657097007E+03  0.00000000000E+00 0. -1.
         25    2    1    2    0    0 -0.72614814575E+02  0.45907987496E+02 -0.45212723045E+03  0.47691465785E+03  0.12509238085E+03 0.  0.
          5    1    3    3  502    0 -0.76573008807E+02  0.44397345340E+01 -0.41138945583E+03  0.41849957430E+03  0.41800000000E+01 0.  1.
         -5    1    3    3    0  502  0.39581942322E+01  0.41468252961E+02 -0.40737774617E+02  0.58415083549E+02  0.41800000000E+01 0.  1.
        -11    1    1    2    0    0  0.21875028755E+02 -0.46555535699E+02 -0.32347271555E+02  0.60764140447E+02  0.00000000000E+00 0.  1.
         11    1    1    2    0    0  0.50739785820E+02  0.64754820315E+00 -0.16160454113E+03  0.16938409872E+03  0.00000000000E+00 0. -1.
</event>
<event>
 7    1  0.2394257E-009  0.1150421E+03  0.7561462E-02  0.1251508E+00
         -2   -1    0    0    0  501 -0.00000000000E+00  0.00000000000E+00  0.49563238235E+02  0.49563238235E+02  0.00000000000E+00 0. -1.
          2   -1    0    0  501    0  0.00000000000E+00 -0.00000000000E+00 -0.37361638191E+03  0.37361638191E+03  0.00000000000E+00 0.  1.
         25    2    1    2    0    0  0.42364549686E+02 -0.51710748514E+02 -0.25258975655E+03  0.28968589467E+03  0.12509027090E+03 0.  0.
          5    1    3    3  502    0  0.14733507619E+01  0.33327565724E+02 -0.21163108815E+02  0.39727156635E+02  0.41800000000E+01 0. -1.
         -5    1    3    3    0  502  0.40891198924E+02 -0.85038314238E+02 -0.23142664774E+03  0.24995873804E+03  0.41800000000E+01 0. -1.
        -11    1    1    2    0    0  0.15181879406E+02  0.40675910836E+02 -0.59555241337E+02  0.73701058034E+02  0.00000000000E+00 0.  1.
         11    1    1    2    0    0 -0.57546429093E+02  0.11034837678E+02 -0.11908145789E+02  0.59792667444E+02  0.00000000000E+00 0. -1.
</event>
<event>
 7    1  0.2394257E-009  0.1192765E+03  0.7561462E-02  0.1244295E+00
          1   -1    0    0  501    0  0.00000000000E+00  0.00000000000E+00  0.17644997707E+03  0.17644997707E+03  0.00000000000E+00 0. -1.
         -1   -1    0    0    0  501 -0.00000000000E+00 -0.00000000000E+00 -0.11448120992E+03  0.11448120992E+03  0.00000000000E+00 0.  1.
         25    2    1    2    0    0 -0.56500054619E+02 -0.30882678203E+02  0.10049531625E+03  0.17289465243E+03  0.12508899338E+03 0.  0.
          5    1    3    3  502    0 -0.33822987819E+02 -0.73389763193E+02  0.27751411955E+02  0.85543352238E+02  0.41800000000E+01 0.  1.
         -5    1    3    3    0  502 -0.22677066800E+02  0.42507084990E+02  0.72743904292E+02  0.87351300188E+02  0.41800000000E+01 0.  1.
        -11    1    1    2    0    0  0.52467402360E+02 -0.21527668026E+02 -0.80647686688E+01  0.57282713751E+02  0.00000000000E+00 0. -1.
         11    1    1    2    0    0  0.40326522588E+01  0.52410346230E+02 -0.30461780434E+02  0.60753820813E+02  0.00000000000E+00 0.  1.
</event>
<event>
 7    1  0.2394257E-009  0.2462894E+03  0.7561462E-02  0.1115673E+00
         -2   -1    0    0    0  501 -0.00000000000E+00  0.00000000000E+00  0.13876771337E+03  0.13876771337E+03  0.00000000000E+00 0. -1.
          2   -1    0    0  501    0  0.00000000000E+00 -0.00000000000E+00 -0.16611806709E+04  0.16611806709E+04  0.00000000000E+00 0.  1.
         25    2    1    2    0    0 -0.68608053465E+00  0.24425710869E+03 -0.15156312590E+04  0.15402755914E+04  0.12509507729E+03 0.  0.
          5    1    3    3  502    0 -0.21396376195E+02  0.12556240462E+03 -0.44534694181E+03  0.46322250954E+03  0.41800000000E+01 0.  1.
         -5    1    3    3    0  502  0.20710295660E+02  0.11869470408E+03 -0.10702843172E+04  0.10770530819E+04  0.41800000000E+01 0.  1.
        -11    1    1    2    0    0  0.58136004360E+01 -0.18725800964E+03 -0.42637633790E+02  0.19213882466E+03  0.00000000000E+00 0.  1.
         11    1    1    2    0    0 -0.51275199013E+01 -0.56999099048E+02  0.35855935340E+02  0.67533968133E+02  0.00000000000E+00 0. -1.
</event>
<event>
 7    1  0.2394257E-009  0.1279663E+03  0.7561462E-02  0.1230505E+00
          2   -1    0    0  501    0  0.00000000000E+00  0.00000000000E+00  0.88894180726E+03  0.88894180726E+03  0.00000000000E+00 0. -1.
         -2   -1    0    0    0  501 -0.00000000000E+00 -0.00000000000E+00 -0.24783519255E+02  0.24783519255E+02  0.00000000000E+00 0.  1.
         25    2    1    2    0    0  0.84763249966E+02 -0.88408975985E+01  0.28896609855E+03  0.32620826824E+03  0.12508980033E+03 0.  0.
          5    1    3    3  502    0 -0.21505163310E+02  0.16914782883E+02  0.13196664255E+03  0.13483786217E+03  0.41800000000E+01 0. -1.
         -5    1    3    3    0  502  0.10626841328E+03 -0.25755680482E+02  0.15699945600E+03  0.19137040607E+03  0.41800000000E+01 0. -1.
        -11    1    1    2    0    0 -0.73360552665E+02 -0.29319434114E+02  0.34744624201E+03  0.35631487619E+03  0.00000000000E+00 0.  1.
         11    1    1    2    0    0 -0.11402697302E+02  0.38160331713E+02  0.22774594745E+03  0.23120218209E+03  0.00000000000E+00 0. -1.
</event>
<event>
 7    1  0.2394257E-009  0.1768115E+03  0.7561462E-02  0.1170925E+00
         -1   -1    0    0    0  501 -0.00000000000E+00  0.00000000000E+00  0.19310805747E+02  0.19310805747E+02  0.00000000000E+00 0.  1.
          1   -1    0    0  501    0  0.00000000000E+00 -0.00000000000E+00 -0.22744345992E+04  0.22744345992E+04  0.00000000000E+00 0. -1.
         25    2    1    2    0    0 -0.16888133687E+03  0.25907695598E+01 -0.15291067757E+04  0.15434840137E+04  0.12509097098E+03 0.  0.
          5    1    3    3  502    0 -0.12173015987E+03 -0.12340541451E+02 -0.56552383509E+03  0.57862354017E+03  0.41800000000E+01 0.  1.
         -5    1    3    3    0  502 -0.47151177002E+02  0.14931311011E+02 -0.96358294063E+03  0.96486047354E+03  0.41800000000E+01 0.  1.
        -11    1    1    2    0    0  0.85193665372E+02  0.32003282440E+02 -0.25841868666E+03  0.27397516004E+03  0.00000000000E+00 0. -1.
         11    1    1    2    0    0  0.83687671497E+02 -0.34594052000E+02 -0.46759833112E+03  0.47628623123E+03  0.00000000000E+00 0.  1.
</event>
<event>
 7    1  0.2394257E-009  0.1474558E+03  0.7561462E-02  0.1203635E+00
          2   -1    0    0  501    0  0.00000000000E+00  0.00000000000E+00  0.22549002264E+03  0.22549002264E+03  0.00000000000E+00 0. -1.
         -2   -1    0    0    0  501 -0.00000000000E+00 -0.00000000000E+00 -0.13012909903E+03  0.13012909903E+03  0.00000000000E+00 0.  1.
         25    2    1    2    0    0  0.12556457358E+03 -0.44975913779E+02  0.45827018290E+02  0.18851257055E+03  0.12509028215E+03 0.  0.
          5    1    3    3  502    0  0.64056554320E+02  0.51420676455E+01 -0.36563387148E+02  0.74054282055E+02  0.41800000000E+01 0.  1.
         -5    1    3    3    0  502  0.61508019262E+02 -0.50117981425E+02  0.82390405439E+02  0.11445828849E+03  0.41800000000E+01 0.  1.
        -11    1    1    2    0    0  0.79551858514E+01  0.10481120762E+02  0.23257683302E+02  0.26721876935E+02  0.00000000000E+00 0. -1.
         11    1    1    2    0    0 -0.13351975943E+03  0.34494793017E+02  0.26276222018E+02  0.14038467419E+03  0.00000000000E+00 0.  1.
</event>
<event>
 7    1  0.2394257E-009  0.1648964E+03  0.7561462E-02  0.1183277E+00
          2   -1    0    0  501    0  0.00000000000E+00  0.00000000000E+00  0.92811068883E+02  0.92811068883E+02  0.00000000000E+00 0.  1.
         -2   -1    0    0    0  501 -0.00000000000E+00 -0.00000000000E+00 -0.39392390746E+03  0.39392390746E+03  0.00000000000E+00 0. -1.
         25    2    1    2    0    0 -0.87476792812E+02 -0.87936263894E+02 -0.35598057384E+02  0.17972119814E+03  0.12509001393E+03 0.  0.
          5    1    3    3  502    0  0.21691900778E+02 -0.58463739727E+02 -0.19226309494E+02  0.65388613680E+02  0.41800000000E+01 0. -1.
         -5    1    3    3    0  502 -0.10916869359E+03 -0.29472524167E+02 -0.16371747891E+02  0.11433258446E+03  0.41800000000E+01 0. -1.
        -11    1    1    2    0    0 -0.17627547519E+02  0.28172218962E+02 -0.57558309524E+02  0.66463248100E+02  0.00000000000E+00 0. -1.
         11    1    1    2    0    0  0.10510434033E+03  0.59764044932E+02 -0.20795647167E+03  0.24055053010E+03  0.00000000000E+00 0.  1.
</event>
<event>
 7    1  0.2394257E-009  0.3777494E+03  0.7561462E-02  0.1051769E+00
         -2   -1    0    0    0  501 -0.00000000000E+00  0.00000000000E+00  0.15477859492E+04  0.15477859492E+04  0.00000000000E+00 0.  1.
          2   -1    0    0  501    0  0.00000000000E+00 -0.00000000000E+00 -0.98338710986E+02  0.98338710986E+02  0.00000000000E+00 0. -1.
         25    2    1    2    0    0 -0.30126011970E+03  0.21397338840E+03  0.86526376980E+03  0.94914239128E+03  0.12509043503E+03 0.  0.
          5    1    3    3  502    0 -0.52494354123E+02  0.73478612729E+02  0.11476985108E+03  0.14609707341E+03  0.41800000000E+01 0. -1.
         -5    1    3    3    0  502 -0.24876576558E+03  0.14049477567E+03  0.75049391872E+03  0.80304531786E+03  0.41800000000E+01 0. -1.
        -11    1    1    2    0    0  0.16873526635E+03 -0.67212953701E+02  0.30202752961E+03  0.35243410717E+03  0.00000000000E+00 0.  1.
         11    1    1    2    0    0  0.13252485335E+03 -0.14676043469E+03  0.28215593880E+03  0.34454816172E+03  0.00000000000E+00 0. -1.
</event>
<event>
 7    1  0.2394257E-009  0.9893625E+02  0.7561462E-02  0.1282549E+00
         -2   -1    0    0    0  501 -0.00000000000E+00  0.00000000000E+00  0.17084511505E+03  0.17084511505E+03  0.00000000000E+00 0.  1.
          2   -1    0    0  501    0  0.00000000000E+00 -0.00000000000E+00 -0.76128333073E+02  0.76128333073E+02  0.00000000000E+00 0. -1.
         25    2    1    2    0    0  0.36882040765E+01 -0.24922754236E+02  0.54480217720E+02  0.13874397066E+03  0.12508816388E+03 0.  0.
          5    1    3    3  502    0  0.54032349024E+02 -0.63288759521E+01  0.63975163336E+02  0.84082360431E+02  0.41800000000E+01 0. -1.
         -5    1    3    3    0  502 -0.50344144947E+02 -0.18593878284E+02 -0.94949456162E+01  0.54661610225E+02  0.41800000000E+01 0. -1.
        -11    1    1    2    0    0  0.75271843460E+01 -0.31277948178E+02  0.39464058555E+02  0.50915424618E+02  0.00000000000E+00 0.  1.
         11    1    1    2    0    0 -0.11215388423E+02  0.56200702414E+02  0.77250570473E+00  0.57314052852E+02  0.00000000000E+00 0. -1.
</event>
<event>
 7    1  0.2394257E-009  0.1222736E+03  0.7561462E-02  0.1239393E+00
          1   -1    0    0  501    0  0.00000000000E+00  0.00000000000E+00  0.81736238755E+03  0.81736238755E+03  0.00000000000E+00 0. -1.
         -1   -1    0    0    0  501 -0.00000000000E+00 -0.00000000000E+00 -0.20209718842E+02  0.20209718842E+02  0.00000000000E+00 0.  1.
         25    2    1    2    0    0  0.17606941728E+02 -0.67834858264E+02  0.44687925055E+03  0.46931897999E+03  0.12509063917E+03 0.  0.
          5    1    3    3  502    0 -0.32467160016E+02 -0.75796671515E+02  0.35314659948E+03  0.36266960862E+03  0.41800000000E+01 0. -1.
         -5    1    3    3    0  502  0.50074101744E+02  0.79618132509E+01  0.93732651073E+02  0.10664937137E+03  0.41800000000E+01 0. -1.
        -11    1    1    2    0    0  0.35852457843E+00  0.85742058289E+02  0.29895618318E+03  0.31100904900E+03  0.00000000000E+00 0. -1.
         11    1    1    2    0    0 -0.17965466306E+02 -0.17907200025E+02  0.51317234975E+02  0.57244077404E+02  0.00000000000E+00 0.  1.
</event>
<event>
 7    1  0.2394257E-009  0.2281478E+03  0.7561462E-02  0.1127950E+00
          1   -1    0    0  501    0  0.00000000000E+00  0.00000000000E+00  0.63424403174E+03  0.63424403174E+03  0.00000000000E+00 0. -1.
         -1   -1    0    0    0  501 -0.00000000000E+00 -0.00000000000E+00 -0.92395518271E+02  0.92395518271E+02  0.00000000000E+00 0.  1.
         25    2    1    2    0    0  0.18988616690E+03  0.89961533657E+02  0.20815603945E+03  0.32113884230E+03  0.12510549691E+03 0.  0.
          5    1    3    3  502    0  0.92112748044E+02 -0.91474377264E+01  0.35314488296E+02  0.99161582545E+02  0.41800000000E+01 0. -1.
         -5    1    3    3    0  502  0.97773418854E+02  0.99108971384E+02  0.17284155116E+03  0.22197725976E+03  0.41800000000E+01 0. -1.
        -11    1    1    2    0    0 -0.10212114233E+03 -0.90700628354E+02  0.15620314700E+03  0.20749639715E+03  0.00000000000E+00 0.  1.
         11    1    1    2    0    0 -0.87765024570E+02  0.73909469667E+00  0.17748932701E+03  0.19800431056E+03  0.00000000000E+00 0. -1.
</event>
<event>
 7    1  0.2394257E-009  0.1387394E+03  0.7561462E-02  0.1215035E+00
         -2   -1    0    0    0  501 -0.00000000000E+00  0.00000000000E+00  0.50471766839E+02  0.50471766839E+02  0.00000000000E+00 0.  1.
          2   -1    0    0  501    0  0.00000000000E+00 -0.00000000000E+00 -0.48756778353E+03  0.48756778353E+03  0.00000000000E+00 0. -1.
         25    2    1    2    0    0 -0.24199317778E+02 -0.90308708930E+02 -0.34459863786E+03  0.37833391302E+03  0.12508820342E+03 0.  0.
          5    1    3    3  502    0 -0.71128871839E+02 -0.41636970977E+02 -0.23927566259E+03  0.25310722800E+03  0.41800000000E+01 0.  1.
         -5    1    3    3    0  502  0.46929554060E+02 -0.48671737953E+02 -0.10532297527E+03  0.12522668502E+03  0.41800000000E+01 0.  1.
        -11    1    1    2    0    0 -0.25882538750E+02  0.67286393717E+02 -0.35298177005E+02  0.80270330082E+02  0.00000000000E+00 0.  1.
         11    1    1    2    0    0  0.50081856528E+02  0.23022315213E+02 -0.57199201826E+02  0.79435307267E+02  0.00000000000E+00 0. -1.
</event>
<event>
 7    1  0.2394257E-009  0.1321270E+03  0.7561462E-02  0.1224333E+00
          1   -1    0    0  501    0  0.00000000000E+00  0.00000000000E+00  0.76542992863E+03  0.76542992863E+03  0.00000000000E+00 0. -1.
         -1   -1    0    0    0  501 -0.00000000000E+00 -0.00000000000E+00 -0.29364710210E+02  0.29364710210E+02  0.00000000000E+00 0.  1.
         25    2    1    2    0    0 -0.10071346973E+03 -0.15178007274E+02  0.36661061281E+03  0.40053076178E+03  0.12509186552E+03 0.  0.
          5    1    3    3  502    0 -0.76300470386E+02 -0.51108234001E+02  0.12587193896E+03  0.15586863309E+03  0.41800000000E+01 0. -1.
         -5    1    3    3    0  502 -0.24412999345E+02  0.35930226727E+02  0.24073867385E+03  0.24466212869E+03  0.41800000000E+01 0. -1.
        -11    1    1    2    0    0  0.11463273324E+02 -0.27470704847E+02  0.37460031179E+02  0.47846632024E+02  0.00000000000E+00 0.  1.
         11    1    1    2    0    0  0.89250196406E+02  0.42648712121E+02  0.33199457444E+03  0.34641724504E+03  0.00000000000E+00 0. -1.
</event>
<event>
 7    1  0.2394257E-009  0.8217798E+02  0.7561462E-02  0.1322982E+00
         -1   -1    0    0    0  501 -0.00000000000E+00  0.00000000000E+00  0.20301447408E+02  0.20301447408E+02  0.00000000000E+00 0.  1.
          1   -1    0    0  501    0  0.00000000000E+00 -0.00000000000E+00 -0.79939499220E+03  0.79939499220E+03  0.00000000000E+00 0. -1.
         25    2    1    2    0    0 -0.52933082379E+02  0.26749212631E+02 -0.53705931684E+03  0.55461508252E+03  0.12509096038E+03 0.  0.
          5    1    3    3  502    0 -0.31468047341E+01  0.15261819448E+02 -0.46964834457E+03  0.46992538287E+03  0.41800000000E+01 0. -1.
         -5    1    3    3    0  502 -0.49786277645E+02  0.11487393183E+02 -0.67410972277E+02  0.84689699652E+02  0.41800000000E+01 0. -1.
        -11    1    1    2    0    0  0.51213480358E+02 -0.51216840884E+02 -0.22166571751E+03  0.23319879005E+03  0.00000000000E+00 0. -1.
         11    1    1    2    0    0  0.17196020211E+01  0.24467628253E+02 -0.20368510438E+02  0.31882567037E+02  0.00000000000E+00 0.  1.
</event>
<event>
 7    1  0.2394257E-009  0.1929008E+03  0.7561462E-02  0.1155871E+00
          1   -1    0    0  501    0  0.00000000000E+00  0.00000000000E+00  0.78444337693E+03  0.78444337693E+03  0.00000000000E+00 0. -1.
         -1   -1    0    0    0  501 -0.00000000000E+00 -0.00000000000E+00 -0.73871384311E+02  0.73871384311E+02  0.00000000000E+00 0.  1.
         25    2    1    2    0    0  0.85228768350E+02 -0.14826802003E+03  0.59625078670E+03  0.63277955115E+03  0.12509041125E+03 0.  0.
          5    1    3    3  502    0  0.21047400658E+02  0.19845984659E+02  0.12375423956E+03  0.12715911447E+03  0.41800000000E+01 0.  1.
         -5    1    3    3    0  502  0.64181367693E+02 -0.16811400469E+03  0.47249654714E+03  0.50562043668E+03  0.41800000000E+01 0.  1.
        -11    1    1    2    0    0 -0.19956858759E+02  0.78657398994E+02  0.10040757478E+03  0.12910051782E+03  0.00000000000E+00 0. -1.
         11    1    1    2    0    0 -0.65271909591E+02  0.69610621038E+02  0.13913631138E+02  0.96434692276E+02  0.00000000000E+00 0.  1.
</event>
<event>
 7    1  0.2394257E-009  0.2537594E+03  0.7561462E-02  0.1110952E+00
         -3   -1    0    0    0  501 -0.00000000000E+00  0.00000000000E+00  0.11619500036E+04  0.11619500036E+04  0.00000000000E+00 0.  1.
          3   -1    0    0  501    0  0.00000000000E+00 -0.00000000000E+00 -0.68802975960E+02  0.68802975960E+02  0.00000000000E+00 0. -1.
         25    2    1    2    0    0 -0.17412944622E+03  0.16810133991E+03  0.77072215202E+03  0.81745934887E+03  0.12509207380E+03 0.  0.
          5    1    3    3  502    0 -0.11114705205E+03  0.16851771594E+03  0.49486403607E+03  0.53447149068E+03  0.41800000000E+01 0. -1.
         -5    1    3    3    0  502 -0.62982394167E+02 -0.41637602924E+00  0.27585811595E+03  0.28298785818E+03  0.41800000000E+01 0. -1.
        -11    1    1    2    0    0  0.72762489127E+02 -0.60225973950E+02  0.20006445051E+03  0.22124043962E+03  0.00000000000E+00 0. -1.
         11    1    1    2    0    0  0.10136695709E+03 -0.10787536596E+03  0.12236042512E+03  0.19205319108E+03  0.00000000000E+00 0.  1.
</event>
<event>
 7    1  0.2394257E-009  0.9424119E+02  0.7561462E-02  0.1292894E+00
         -1   -1    0    0    0  501 -0.00000000000E+00  0.00000000000E+00  0.39479803379E+02  0.39479803379E+02  0.00000000000E+00 0.  1.
          1   -1    0    0  501    0  0.00000000000E+00 -0.00000000000E+00 -0.57472831387E+03  0.57472831387E+03  0.00000000000E+00 0. -1.
         25    2    1    2    0    0 -0.76838018532E+02 -0.28451847123E+02 -0.15816781714E+03  0.21766644321E+03  0.12509209977E+03 0.  0.
          5    1    3    3  502    0 -0.52525983428E+02 -0.40342099909E+02 -0.17386669462E+03  0.18610095072E+03  0.41800000000E+01 0. -1.
         -5    1    3    3    0  502 -0.24312035104E+02  0.11890252786E+02  0.15698877479E+02  0.31565492493E+02  0.41800000000E+01 0. -1.
        -11    1    1    2    0    0 -0.48831979739E+00  0.16480730800E+02 -0.63906237922E+01  0.17683128015E+02  0.00000000000E+00 0.  1.
         11    1    1    2    0    0  0.77326338329E+02  0.11971116323E+02 -0.37069006956E+03  0.37885854603E+03  0.00000000000E+00 0. -1.
</event>
<event>
 7    1  0.2394257E-009  0.1058794E+03  0.7561462E-02  0.1268397E+00
         -4   -1    0    0    0  501 -0.00000000000E+00  0.00000000000E+00  0.28422532905E+03  0.28422532905E+03  0.00000000000E+00 0.  1.
          4   -1    0    0  501    0  0.00000000000E+00 -0.00000000000E+00 -0.52392966611E+02  0.52392966611E+02  0.00000000000E+00 0. -1.
         25    2    1    2    0    0 -0.51207353099E+02  0.58904648946E+01  0.10315220693E+03  0.17013080651E+03  0.12508886018E+03 0.  0.
          5    1    3    3  502    0 -0.76203107797E+02 -0.13571057847E+02  0.11269785676E+03  0.13678218659E+03  0.41800000000E+01 0.  1.
         -5    1    3    3    0  502  0.24995754698E+02  0.19461522741E+02 -0.95456498274E+01  0.33348619926E+02  0.41800000000E+01 0.  1.
        -11    1    1    2    0    0 -0.22958310153E+02  0.12131816915E+02  0.52918309242E+02  0.58945843278E+02  0.00000000000E+00 0.  1.
         11    1    1    2    0    0  0.74165663252E+02 -0.18022281809E+02  0.75761846263E+02  0.10754164587E+03  0.00000000000E+00 0. -1.
</event>
<event>
 7    1  0.2394257E-009  0.1127711E+03  0.7561462E-02  0.1255523E+00
          4   -1    0    0  501    0  0.00000000000E+00  0.00000000000E+00  0.19160258776E+02  0.19160258776E+02  0.00000000000E+00 0. -1.
         -4   -1    0    0    0  501 -0.00000000000E+00 -0.00000000000E+00 -0.13552832367E+04  0.13552832367E+04  0.00000000000E+00 0.  1.
         25    2    1    2    0    0 -0.33865155815E+02 -0.36597275463E+02 -0.11738462189E+04  0.11815445047E+04  0.12508501762E+03 0.  0.
          5    1    3    3  502    0 -0.74107864969E+02 -0.14340490364E+02 -0.45683274555E+03  0.46304562963E+03  0.41800000000E+01 0.  1.
         -5    1    3    3    0  502  0.40242709154E+02 -0.22256785099E+02 -0.71701347334E+03  0.71849887506E+03  0.41800000000E+01 0.  1.
        -11    1    1    2    0    0  0.57693269956E+02  0.50072715954E+02 -0.11057286793E+03  0.13439549622E+03  0.00000000000E+00 0.  1.
         11    1    1    2    0    0 -0.23828114141E+02 -0.13475440491E+02 -0.51703891069E+02  0.58503494525E+02  0.00000000000E+00 0. -1.
</event>
<event>
 7    1  0.2394257E-009  0.2380660E+03  0.7561462E-02  0.1121088E+00
          2   -1    0    0  501    0  0.00000000000E+00  0.00000000000E+00  0.88072374238E+03  0.88072374238E+03  0.00000000000E+00 0. -1.
         -2   -1    0    0    0  501 -0.00000000000E+00 -0.00000000000E+00 -0.66504546286E+02  0.66504546286E+02  0.00000000000E+00 0.  1.
         25    2    1    2    0    0 -0.17549399708E+02 -0.21506794182E+03  0.41631307116E+03  0.48531014696E+03  0.12508862655E+03 0.  0.
          5    1    3    3  502    0 -0.68548308356E+02 -0.82743767480E+02  0.17695989824E+03  0.20706926285E+03  0.41800000000E+01 0. -1.
         -5    1    3    3    0  502  0.50998908647E+02 -0.13232417434E+03  0.23935317293E+03  0.27824088411E+03  0.41800000000E+01 0. -1.
        -11    1    1    2    0    0 -0.25176466282E+02  0.11826607042E+03  0.15211261548E+03  0.19431666335E+03  0.00000000000E+00 0.  1.
         11    1    1    2    0    0  0.42725865990E+02  0.96801871401E+02  0.24579350946E+03  0.26760147836E+03  0.00000000000E+00 0. -1.
</event>
<event>
 7    1  0.2394257E-009  0.1078811E+03  0.7561462E-02  0.1264545E+00
          1   -1    0    0  501    0  0.00000000000E+00  0.00000000000E+00  0.31843669151E+03  0.31843669151E+03  0.00000000000E+00 0. -1.
         -1   -1    0    0    0  501 -0.00000000000E+00 -0.00000000000E+00 -0.40665814836E+02  0.40665814836E+02  0.00000000000E+00 0.  1.
         25    2    1    2    0    0 -0.14110826507E+02  0.13668684211E+02  0.20472264976E+03  0.24071665276E+03  0.12508874945E+03 0.  0.
          5    1    3    3  502    0  0.46717641410E+02  0.35856340750E+02  0.73047041213E+02  0.93923148483E+02  0.41800000000E+01 0.  1.
         -5    1    3    3    0  502 -0.60828467916E+02 -0.22187656539E+02  0.13167560854E+03  0.14679350427E+03  0.41800000000E+01 0.  1.
        -11    1    1    2    0    0 -0.34220420479E+02 -0.24775997195E+02  0.23776852628E+02  0.48479128866E+02  0.00000000000E+00 0.  1.
         11    1    1    2    0    0  0.48331246986E+02  0.11107312984E+02  0.49271374287E+02  0.69906724720E+02  0.00000000000E+00 0. -1.
</event>
<event>
 7    1  0.2394257E-009  0.9486809E+02  0.7561462E-02  0.1291473E+00
         -4   -1    0    0    0  501 -0.00000000000E+00  0.00000000000E+00  0.50952625630E+02  0.50952625630E+02  0.00000000000E+00 0.  1.
          4   -1    0    0  501    0  0.00000000000E+00 -0.00000000000E+00 -0.25537063139E+03  0.25537063139E+03  0.00000000000E+00 0. -1.
         25    2    1    2    0    0  0.14619225794E+02 -0.72191168748E+01 -0.80749968430E+02  0.14977054787E+03  0.12507926365E+03 0.  0.
          5    1    3    3  502    0 -0.25856547034E+02  0.42498511416E+02 -0.67858846333E+02  0.84243574965E+02  0.41800000000E+01 0. -1.
         -5    1    3    3    0  502  0.40475772828E+02 -0.49717628291E+02 -0.12891122097E+02  0.65526972903E+02  0.41800000000E+01 0. -1.
        -11    1    1    2    0    0 -0.41564531935E+02 -0.11056396744E+02 -0.11511833884E+03  0.12289054545E+03  0.00000000000E+00 0. -1.
         11    1    1    2    0    0  0.26945306141E+02  0.18275513618E+02 -0.85496984952E+01  0.33662163707E+02  0.00000000000E+00 0.  1.
</event>
<event>
 7    1  0.2394257E-009  0.1064950E+03  0.7561462E-02  0.1267202E+00
          3   -1    0    0  501    0  0.00000000000E+00  0.00000000000E+00  0.45347843679E+02  0.45347843679E+02  0.00000000000E+00 0. -1.
         -3   -1    0    0    0  501 -0.00000000000E+00 -0.00000000000E+00 -0.38801559123E+03  0.38801559123E+03  0.00000000000E+00 0.  1.
         25    2    1    2    0    0 -0.40588960443E+02  0.47718168020E+02 -0.25824042138E+03  0.29370044036E+03  0.12508935271E+03 0.  0.
          5    1    3    3  502    0 -0.62406519534E+01  0.86870231332E+02 -0.14981946133E+03  0.17334568417E+03  0.41800000000E+01 0. -1.
         -5    1    3    3    0  502 -0.34348308489E+02 -0.39152063312E+02 -0.10842096006E+03  0.12035475619E+03  0.41800000000E+01 0. -1.
        -11    1    1    2    0    0  0.10176009152E+02 -0.41204036122E+02 -0.97182773441E+02  0.10604628805E+03  0.00000000000E+00 0.  1.
         11    1    1    2    0    0  0.30412951291E+02 -0.65141318978E+01  0.12755447276E+02  0.33616706499E+02  0.00000000000E+00 0. -1.
</event>
<event>
 7    1  0.2394257E-009  0.8529369E+02  0.7561462E-02  0.1314666E+00
          2   -1    0    0  501    0  0.00000000000E+00  0.00000000000E+00  0.70990974729E+02  0.70990974729E+02  0.00000000000E+00 0. -1.
         -2   -1    0    0    0  501 -0.00000000000E+00 -0.00000000000E+00 -0.18269605852E+03  0.18269605852E+03  0.00000000000E+00 0.  1.
         25    2    1    2    0    0 -0.12594197843E+02  0.35788344318E+02 -0.57750841915E+02  0.14291177408E+03  0.12509674664E+03 0.  0.
          5    1    3    3  502    0  0.31394279359E+02  0.43280887924E+02 -0.77245429868E+02  0.94038103296E+02  0.41800000000E+01 0. -1.
         -5    1    3    3    0  502 -0.43988477202E+02 -0.74925436061E+01  0.19494587953E+02  0.48873670782E+02  0.41800000000E+01 0. -1.
        -11    1    1    2    0    0 -0.10567141773E+02  0.13815831119E+02 -0.53257339632E+02  0.56025761034E+02  0.00000000000E+00 0.  1.
         11    1    1    2    0    0  0.23161339616E+02 -0.49604175437E+02 -0.69690224571E+00  0.54749498138E+02  0.00000000000E+00 0. -1.
</event>
<event>
 7    1  0.2394257E-009  0.1384611E+03  0.7561462E-02  0.1215415E+00
         -2   -1    0    0    0  501 -0.00000000000E+00  0.00000000000E+00  0.34076844155E+03  0.34076844155E+03  0.00000000000E+00 0.  1.
          2   -1    0    0  501    0  0.00000000000E+00 -0.00000000000E+00 -0.77858468401E+02  0.77858468401E+02  0.00000000000E+00 0. -1.
         25    2    1    2    0    0  0.10310997206E+03  0.63119299909E+02  0.15005851921E+03  0.22974123513E+03  0.12509102117E+03 0.  0.
          5    1    3    3  502    0  0.83183363793E+02  0.83707336412E+02  0.16023868311E+03  0.19904848190E+03  0.41800000000E+01 0. -1.
         -5    1    3    3    0  502  0.19926608262E+02 -0.20588036502E+02 -0.10180163907E+02  0.30692753233E+02  0.41800000000E+01 0. -1.
        -11    1    1    2    0    0 -0.81948953032E+02 -0.69848622509E+02  0.12384349463E+03  0.16410872046E+03  0.00000000000E+00 0.  1.
         11    1    1    2    0    0 -0.21161019023E+02  0.67293225994E+01 -0.10992040685E+02  0.24776954356E+02  0.00000000000E+00 0. -1.
</event>
<event>
 7    1  0.2394257E-009  0.1289409E+03  0.7561462E-02  0.1229036E+00
          1   -1    0    0  501    0  0.00000000000E+00  0.00000000000E+00  0.30314800086E+02  0.30314800086E+02  0.00000000000E+00 0. -1.
         -1   -1    0    0    0  501 -0.00000000000E+00 -0.00000000000E+00 -0.85134036368E+03  0.85134036368E+03  0.00000000000E+00 0.  1.
         25    2    1    2    0    0  0.68093486087E+02 -0.96455507417E+02 -0.45060980057E+03  0.48232414535E+03  0.12508797329E+03 0.  0.
          5    1    3    3  502    0  0.24334985841E+02 -0.69640597448E+02 -0.82991772805E+02  0.11111755533E+03  0.41800000000E+01 0.  1.
         -5    1    3    3    0  502  0.43758500245E+02 -0.26814909970E+02 -0.36761802776E+03  0.37120659002E+03  0.41800000000E+01 0.  1.
        -11    1    1    2    0    0 -0.48685745743E+02  0.18361610697E+02 -0.63780277459E+02  0.82312662323E+02  0.00000000000E+00 0. -1.
         11    1    1    2    0    0 -0.19407740343E+02  0.78093896720E+02 -0.30663548556E+03  0.31701835609E+03  0.00000000000E+00 0.  1.
</event>
<event>
 7    1  0.2394257E-009  0.1665629E+03  0.7561462E-02  0.1181480E+00
         -1   -1    0    0    0  501 -0.00000000000E+00  0.00000000000E+00  0.68746724908E+02  0.68746724908E+02  0.00000000000E+00 0.  1.
          1   -1    0    0  501    0  0.00000000000E+00 -0.00000000000E+00 -0.61281306744E+03  0.61281306744E+03  0.00000000000E+00 0. -1.
         25    2    1    2    0    0  0.72954936774E+02 -0.13628746401E+03 -0.41528039229E+03  0.46043672957E+03  0.12508989595E+03 0.  0.
          5    1    3    3  502    0  0.79015631513E+02 -0.56307235117E+02 -0.11971657471E+03  0.15415416119E+03  0.41800000000E+01 0. -1.
         -5    1    3    3    0  502 -0.60606947391E+01 -0.79980228895E+02 -0.29556381758E+03  0.30628256839E+03  0.41800000000E+01 0. -1.
        -11    1    1    2    0    0 -0.29281963953E+02  0.74322456946E+02 -0.10416912295E+02  0.80559127858E+02  0.00000000000E+00 0. -1.
         11    1    1    2    0    0 -0.43672972822E+02  0.61965007066E+02 -0.11836903795E+03  0.14056393492E+03  0.00000000000E+00 0.  1.
</event>
<event>
 7    1  0.2394257E-009  0.1212978E+03  0.7561462E-02  0.1240971E+00
         -1   -1    0    0    0  501 -0.00000000000E+00  0.00000000000E+00  0.79116903840E+02  0.79116903840E+02  0.00000000000E+00 0.  1.
          1   -1    0    0  501    0  0.00000000000E+00 -0.00000000000E+00 -0.28392927730E+03  0.28392927730E+03  0.00000000000E+00 0. -1.
         25    2    1    2    0    0 -0.28155821380E+02  0.97328002955E+02 -0.83606457060E+02  0.18139057978E+03  0.12508801835E+03 0.  0.
          5    1    3    3  502    0 -0.25782391133E+02  0.10334284431E+03 -0.96433230261E+01  0.10702775921E+03  0.41800000000E+01 0. -1.
         -5    1    3    3    0  502 -0.23734302465E+01 -0.60148413515E+01 -0.73963134034E+02  0.74362820574E+02  0.41800000000E+01 0. -1.
        -11    1    1    2    0    0  0.29192896324E+02 -0.11090719130E+03 -0.84350395510E+02  0.14236438986E+03  0.00000000000E+00 0.  1.
         11    1    1    2    0    0 -0.10370749442E+01  0.13579188349E+02 -0.36855520891E+02  0.39291211495E+02  0.00000000000E+00 0. -1.
</event>
<event>
 7    1  0.2718646E-009  0.1333533E+03  0.7561462E-02  0.1222563E+00
          2   -1    0    0  501    0  0.00000000000E+00  0.00000000000E+00  0.46769495410E+03  0.46769495410E+03  0.00000000000E+00 0. -1.
         -2   -1    0    0    0  501 -0.00000000000E+00 -0.00000000000E+00 -0.54825537732E+02  0.54825537732E+02  0.00000000000E+00 0.  1.
         25    2    1    2    0    0  0.23495138354E+02  0.89283543807E+02  0.10248455758E+03  0.18621113657E+03  0.12509168685E+03 0.  0.
          5    1    3    3  502    0 -0.41603359240E+02  0.26698442506E+02  0.78195501823E+02  0.92604833770E+02  0.41800000000E+01 0. -1.
         -5    1    3    3    0  502  0.65098497594E+02  0.62585101302E+02  0.24289055755E+02  0.93606302798E+02  0.41800000000E+01 0. -1.
        -11    1    1    2    0    0  0.12037030125E+02 -0.90350401517E+02  0.25172153311E+03  0.26771592291E+03  0.00000000000E+00 0. -1.
         11    1    1    2    0    0 -0.35532168480E+02  0.10668577101E+01  0.58663325679E+02  0.68593432353E+02  0.00000000000E+00 0.  1.
</event>
<event>
 7    1  0.2394257E-009  0.1040475E+03  0.7561462E-02  0.1272008E+00
         -1   -1    0    0    0  501 -0.00000000000E+00  0.00000000000E+00  0.60719177458E+02  0.60719177458E+02  0.00000000000E+00 0.  1.
          1   -1    0    0  501    0  0.00000000000E+00 -0.00000000000E+00 -0.26973005519E+03  0.26973005519E+03  0.00000000000E+00 0. -1.
         25    2    1    2    0    0 -0.35639227231E+02 -0.57864096019E+02 -0.12261898963E+03  0.18788586158E+03  0.12508905723E+03 0.  0.
          5    1    3    3  502    0  0.43932493391E+02 -0.69651275543E+01 -0.21953864744E+02  0.49779730359E+02  0.41800000000E+01 0. -1.
         -5    1    3    3    0  502 -0.79571720622E+02 -0.50898968465E+02 -0.10066512489E+03  0.13810613123E+03  0.41800000000E+01 0. -1.
        -11    1    1    2    0    0  0.10986474683E+02  0.92600445132E+01  0.19055289565E+02  0.23865353774E+02  0.00000000000E+00 0.  1.
         11    1    1    2    0    0  0.24652752548E+02  0.48604051506E+02 -0.10544717767E+03  0.11869801729E+03  0.00000000000E+00 0. -1.
</event>
<event>
 7    1  0.2394257E-009  0.5110109E+02  0.7561462E-02  0.1439491E+00
         -2   -1    0    0    0  501 -0.00000000000E+00  0.00000000000E+00  0.14489170466E+02  0.14489170466E+02  0.00000000000E+00 0.  1.
          2   -1    0    0  501    0  0.00000000000E+00 -0.00000000000E+00 -0.10808061681E+04  0.10808061681E+04  0.00000000000E+00 0. -1.
         25    2    1    2    0    0  0.14607004713E+02 -0.27724875131E+02 -0.84548774097E+03  0.85526563035E+03  0.12509094707E+03 0.  0.
          5    1    3    3  502    0  0.67918141576E+01 -0.10171925087E+02 -0.83034891932E+03  0.83044951503E+03  0.41800000000E+01 0.  1.
         -5    1    3    3    0  502  0.78151905549E+01 -0.17552950044E+02 -0.15138821657E+02  0.24816115325E+02  0.41800000000E+01 0.  1.
        -11    1    1    2    0    0  0.24596802601E+02  0.12077197383E+02 -0.17838804845E+02  0.32696855401E+02  0.00000000000E+00 0.  1.
         11    1    1    2    0    0 -0.39203807313E+02  0.15647677748E+02 -0.20299045177E+03  0.20733285277E+03  0.00000000000E+00 0. -1.
</event>
<event>
 7    1  0.2394257E-009  0.1051624E+03  0.7561462E-02  0.1269800E+00
         -3   -1    0    0    0  501 -0.00000000000E+00  0.00000000000E+00  0.73507729545E+03  0.73507729545E+03  0.00000000000E+00 0.  1.
          3   -1    0    0  501    0  0.00000000000E+00 -0.00000000000E+00 -0.18995889339E+02  0.18995889339E+02  0.00000000000E+00 0. -1.
         25    2    1    2    0    0 -0.78934345693E+01  0.14956217202E+02  0.53539111548E+03  0.55006879333E+03  0.12508411620E+03 0.  0.
          5    1    3    3  502    0  0.56647649443E+02 -0.82980636609E+01  0.23348030252E+03  0.24043364596E+03  0.41800000000E+01 0.  1.
         -5    1    3    3    0  502 -0.64541084013E+02  0.23254280863E+02  0.30191081296E+03  0.30963514737E+03  0.41800000000E+01 0.  1.
        -11    1    1    2    0    0 -0.34352488202E+02 -0.22789479477E+02  0.13557039607E+03  0.14169963342E+03  0.00000000000E+00 0.  1.
         11    1    1    2    0    0  0.42245922771E+02  0.78332622755E+01  0.45119894566E+02  0.62304758039E+02  0.00000000000E+00 0. -1.
</event>
<event>
 7    1  0.2394257E-009  0.2021228E+03  0.7561462E-02  0.1147960E+00
         -1   -1    0    0    0  501 -0.00000000000E+00  0.00000000000E+00  0.30178515750E+03  0.30178515750E+03  0.00000000000E+00 0.  1.
          1   -1    0    0  501    0  0.00000000000E+00 -0.00000000000E+00 -0.16296633254E+03  0.16296633254E+03  0.00000000000E+00 0. -1.
         25    2    1    2    0    0  0.17330910757E+03  0.84294603834E+02  0.79355534976E+02  0.24307577731E+03  0.12508759164E+03 0.  0.
          5    1    3    3  502    0  0.31863361985E+02 -0.15238498857E+02  0.58979849603E+02  0.68873657835E+02  0.41800000000E+01 0. -1.
         -5    1    3    3    0  502  0.14144574559E+03  0.99533102691E+02  0.20375685373E+02  0.17420211948E+03  0.41800000000E+01 0. -1.
        -11    1    1    2    0    0 -0.76882836035E+02 -0.56212095199E+02  0.73451074360E+02  0.12027398076E+03  0.00000000000E+00 0.  1.
         11    1    1    2    0    0 -0.96426271535E+02 -0.28082508635E+02 -0.13987784370E+02  0.10140173196E+03  0.00000000000E+00 0. -1.
</event>
<event>
 7    1  0.2394257E-009  0.7619056E+02  0.7561462E-02  0.1340223E+00
         -2   -1    0    0    0  501 -0.00000000000E+00  0.00000000000E+00  0.30806216726E+02  0.30806216726E+02  0.00000000000E+00 0.  1.
          2   -1    0    0  501    0  0.00000000000E+00 -0.00000000000E+00 -0.38774656210E+03  0.38774656210E+03  0.00000000000E+00 0. -1.
         25    2    1    2    0    0  0.13339057261E+02  0.11664744901E+02 -0.21675162636E+03  0.25088394763E+03  0.12508993135E+03 0.  0.
          5    1    3    3  502    0  0.18661253023E+02 -0.24360703633E+02 -0.21161611051E+03  0.21387037400E+03  0.41800000000E+01 0. -1.
         -5    1    3    3    0  502 -0.53221957626E+01  0.36025448534E+02 -0.51355158451E+01  0.37013573629E+02  0.41800000000E+01 0. -1.
        -11    1    1    2    0    0 -0.39235657934E+02 -0.32948099461E+02 -0.50578868573E+02  0.71994694650E+02  0.00000000000E+00 0.  1.
         11    1    1    2    0    0  0.25896600673E+02  0.21283354561E+02 -0.89609850443E+02  0.95674136548E+02  0.00000000000E+00 0. -1.
</event>
<event>
 7    1  0.2394257E-009  0.1296041E+03  0.7561462E-02  0.1228044E+00
          2   -1    0    0  501    0  0.00000000000E+00  0.00000000000E+00  0.46415802157E+03  0.46415802157E+03  0.00000000000E+00 0. -1.
         -2   -1    0    0    0  501 -0.00000000000E+00 -0.00000000000E+00 -0.46034200879E+02  0.46034200879E+02  0.00000000000E+00 0.  1.
         25    2    1    2    0    0  0.70352022663E+02  0.65788763178E+02  0.27569100158E+03  0.31769555646E+03  0.12508944714E+03 0.  0.
          5    1    3    3  502    0 -0.23392156498E+02  0.45806194258E+02  0.47420605574E+02  0.70082712926E+02  0.41800000000E+01 0. -1.
         -5    1    3    3    0  502  0.93744179161E+02  0.19982568920E+02  0.22827039601E+03  0.24761284353E+03  0.41800000000E+01 0. -1.
        -11    1    1    2    0    0 -0.34656791795E+02  0.23554666592E+01  0.51317095442E+01  0.35113756329E+02  0.00000000000E+00 0.  1.
         11    1    1    2    0    0 -0.35695230868E+02 -0.68144229837E+02  0.13730110957E+03  0.15738290967E+03  0.00000000000E+00 0. -1.
</event>
<event>
 7    1  0.2394257E-009  0.6482307E+02  0.7561462E-02  0.1378638E+00
          2   -1    0    0  501    0  0.00000000000E+00  0.00000000000E+00  0.16777255085E+03  0.16777255085E+03  0.00000000000E+00 0. -1.
         -2   -1    0    0    0  501 -0.00000000000E+00 -0.00000000000E+00 -0.74704918457E+02  0.74704918457E+02  0.00000000000E+00 0.  1.
         25    2    1    2    0    0 -0.11730003107E+02 -0.27261233511E+02  0.57338939440E+02  0.14076430528E+03  0.12508424297E+03 0.  0.
          5    1    3    3  502    0 -0.20644545197E+02 -0.11268846733E+02  0.95387512745E+02  0.98333280942E+02  0.41800000000E+01 0. -1.
         -5    1    3    3    0  502  0.89145420898E+01 -0.15992386779E+02 -0.38048573305E+02  0.42431024334E+02  0.41800000000E+01 0. -1.
        -11    1    1    2    0    0  0.33734384072E+02 -0.16830613364E+02  0.36437260727E+02  0.52430450925E+02  0.00000000000E+00 0. -1.
         11    1    1    2    0    0 -0.22004380965E+02  0.44091846875E+02 -0.70856777627E+00  0.49282713103E+02  0.00000000000E+00 0.  1.
</event>
<event>
 7    1  0.2394257E-009  0.9264317E+02  0.7561462E-02  0.1296574E+00
         -2   -1    0    0    0  501 -0.00000000000E+00  0.00000000000E+00  0.30006349801E+03  0.30006349801E+03  0.00000000000E+00 0.  1.
          2   -1    0    0  501    0  0.00000000000E+00 -0.00000000000E+00 -0.45019498030E+02  0.45019498030E+02  0.00000000000E+00 0. -1.
         25    2    1    2    0    0  0.32788655901E+02  0.18587630402E+02  0.11645290786E+03  0.17501177632E+03  0.12508895292E+03 0.  0.
          5    1    3    3  502    0  0.31252559183E+02  0.53624915527E+02  0.10195086997E+02  0.63037815790E+02  0.41800000000E+01 0. -1.
         -5    1    3    3    0  502  0.15360967174E+01 -0.35037285125E+02  0.10625782087E+03  0.11197396053E+03  0.41800000000E+01 0. -1.
        -11    1    1    2    0    0  0.15081628440E+02 -0.34224187271E+02  0.99572833581E+02  0.10636493641E+03  0.00000000000E+00 0.  1.
         11    1    1    2    0    0 -0.47870284341E+02  0.15636556869E+02  0.39018258540E+02  0.63706283310E+02  0.00000000000E+00 0. -1.
</event>
<event>
 7    1  0.2394257E-009  0.1156789E+03  0.7561462E-02  0.1250401E+00
          3   -1    0    0  501    0  0.00000000000E+00  0.00000000000E+00  0.40681794468E+03  0.40681794468E+03  0.00000000000E+00 0. -1.
         -3   -1    0    0    0  501 -0.00000000000E+00 -0.00000000000E+00 -0.41281143797E+02  0.41281143797E+02  0.00000000000E+00 0.  1.
         25    2    1    2    0    0 -0.58600568768E+02  0.10134677419E+02  0.14543224529E+03  0.20083642872E+03  0.12509194532E+03 0.  0.
          5    1    3    3  502    0 -0.36892002901E+02 -0.49171699798E+02  0.28528560186E+02  0.67898653045E+02  0.41800000000E+01 0.  1.
         -5    1    3    3    0  502 -0.21708565867E+02  0.59306377217E+02  0.11690368510E+03  0.13293777568E+03  0.41800000000E+01 0.  1.
        -11    1    1    2    0    0  0.46932958268E+02 -0.47818093855E+02  0.17473946286E+03  0.18714473691E+03  0.00000000000E+00 0. -1.
         11    1    1    2    0    0  0.11667610499E+02  0.37683416437E+02  0.45365092737E+02  0.60117922853E+02  0.00000000000E+00 0.  1.
</event>
<event>
 7    1  0.2394257E-009  0.5795523E+02  0.7561462E-02  0.1406619E+00
         -1   -1    0    0    0  501 -0.00000000000E+00  0.00000000000E+00  0.22824233556E+02  0.22824233556E+02  0.00000000000E+00 0.  1.
          1   -1    0    0  501    0  0.00000000000E+00 -0.00000000000E+00 -0.55801508756E+03  0.55801508756E+03  0.00000000000E+00 0. -1.
         25    2    1    2    0    0  0.37115772355E+00 -0.25474233261E+02 -0.28597593325E+03  0.31317290488E+03  0.12508381044E+03 0.  0.
          5    1    3    3  502    0  0.15671191877E+02 -0.22501320679E+02 -0.10156449240E+01  0.27756073601E+02  0.41800000000E+01 0.  1.
         -5    1    3    3    0  502 -0.15300034154E+02 -0.29729125822E+01 -0.28496028833E+03  0.28541683128E+03  0.41800000000E+01 0.  1.
        -11    1    1    2    0    0 -0.64952586719E+01 -0.22629912000E+02 -0.13759880759E+02  0.27269683182E+02  0.00000000000E+00 0. -1.
         11    1    1    2    0    0  0.61241009484E+01  0.48104145261E+02 -0.23545503999E+03  0.24039673305E+03  0.00000000000E+00 0.  1.
</event>
<event>
 7    1  0.2394257E-009  0.9473850E+02  0.7561462E-02  0.1291766E+00
         -2   -1    0    0    0  501 -0.00000000000E+00  0.00000000000E+00  0.41388629105E+02  0.41388629105E+02  0.00000000000E+00 0.  1.
          2   -1    0    0  501    0  0.00000000000E+00 -0.00000000000E+00 -0.40360309928E+03  0.40360309928E+03  0.00000000000E+00 0. -1.
         25    2    1    2    0    0  0.11147479124E+02  0.14855990814E+02 -0.31717452619E+03  0.34145713742E+03  0.12509328469E+03 0.  0.
          5    1    3    3  502    0 -0.38030584736E+02  0.26185266387E+02 -0.26395381031E+03  0.26799455205E+03  0.41800000000E+01 0.  1.
         -5    1    3    3    0  502  0.49178063860E+02 -0.11329275573E+02 -0.53220715881E+02  0.73462585368E+02  0.41800000000E+01 0.  1.
        -11    1    1    2    0    0  0.94252492648E+01  0.36212552273E+02 -0.24723650732E+02  0.44849115613E+02  0.00000000000E+00 0. -1.
         11    1    1    2    0    0 -0.20572728389E+02 -0.51068543086E+02 -0.20316293257E+02  0.58685475358E+02  0.00000000000E+00 0.  1.
</event>
<event>
 7    1  0.2394257E-009  0.9171406E+02  0.7561462E-02  0.1298753E+00
         -1   -1    0    0    0  501 -0.00000000000E+00  0.00000000000E+00  0.12428350329E+02  0.12428350329E+02  0.00000000000E+00 0.  1.
          1   -1    0    0  501    0  0.00000000000E+00 -0.00000000000E+00 -0.12309680247E+04  0.12309680247E+04  0.00000000000E+00 0. -1.
         25    2    1    2    0    0  0.31445378854E+02 -0.29133625110E+02 -0.92793829738E+03  0.93731165459E+03  0.12508426815E+03 0.  0.
          5    1    3    3  502    0 -0.86604338980E+01  0.24696743712E+02 -0.48198191496E+02  0.55004275549E+02  0.41800000000E+01 0.  1.
         -5    1    3    3    0  502  0.40105812752E+02 -0.53830368822E+02 -0.87974010588E+03  0.88230737905E+03  0.41800000000E+01 0.  1.
        -11    1    1    2    0    0 -0.30396136935E+01  0.52682064499E+02 -0.22204990332E+03  0.22823408758E+03  0.00000000000E+00 0. -1.
         11    1    1    2    0    0 -0.28405765160E+02 -0.23548439389E+02 -0.68551473679E+02  0.77850632853E+02  0.00000000000E+00 0.  1.
</event>
<event>
 7    1  0.2394257E-009  0.1040813E+03  0.7561462E-02  0.1271940E+00
         -2   -1    0    0    0  501 -0.00000000000E+00  0.00000000000E+00  0.11481789636E+03  0.11481789636E+03  0.00000000000E+00 0.  1.
          2   -1    0    0  501    0  0.00000000000E+00 -0.00000000000E+00 -0.14773149425E+03  0.14773149425E+03  0.00000000000E+00 0. -1.
         25    2    1    2    0    0  0.13630687433E+02  0.17963243693E+02  0.50009871727E+02  0.13658986199E+03  0.12508928557E+03 0.  0.
          5    1    3    3  502    0 -0.56480515695E+01  0.70553156119E+02  0.26303740115E+02  0.75624119624E+02  0.41800000000E+01 0. -1.
         -5    1    3    3    0  502  0.19278739003E+02 -0.52589912426E+02  0.23706131612E+02  0.60965742368E+02  0.41800000000E+01 0. -1.
        -11    1    1    2    0    0  0.43773065414E+01  0.29762317392E+02 -0.18062509472E+01  0.30136670214E+02  0.00000000000E+00 0.  1.
         11    1    1    2    0    0 -0.18007993974E+02 -0.47725561086E+02 -0.81117218670E+02  0.95822858404E+02  0.00000000000E+00 0. -1.
</event>
<event>
 7    1  0.2394257E-009  0.9909196E+02  0.7561462E-02  0.1282217E+00
          1   -1    0    0  501    0  0.00000000000E+00  0.00000000000E+00  0.17590005111E+02  0.17590005111E+02  0.00000000000E+00 0. -1.
         -1   -1    0    0    0  501 -0.00000000000E+00 -0.00000000000E+00 -0.81608233774E+03  0.81608233774E+03  0.00000000000E+00 0.  1.
         25    2    1    2    0    0  0.85605945346E+01  0.33805319786E+01 -0.61351645759E+03  0.62620611086E+03  0.12508772029E+03 0.  0.
          5    1    3    3  502    0 -0.25212313939E+02  0.51044909666E+02 -0.42459015920E+03  0.42841045653E+03  0.41800000000E+01 0.  1.
         -5    1    3    3    0  502  0.33772908474E+02 -0.47664377687E+02 -0.18892629840E+03  0.19779565433E+03  0.41800000000E+01 0.  1.
        -11    1    1    2    0    0 -0.43585136136E+02  0.10542985242E+02 -0.49258511745E+02  0.66612458363E+02  0.00000000000E+00 0.  1.
         11    1    1    2    0    0  0.35024541602E+02 -0.13923517221E+02 -0.13571736329E+03  0.14085377363E+03  0.00000000000E+00 0. -1.
</event>
<event>
 7    1  0.2394257E-009  0.8326313E+02  0.7561462E-02  0.1320038E+00
         -1   -1    0    0    0  501 -0.00000000000E+00  0.00000000000E+00  0.16114425048E+03  0.16114425048E+03  0.00000000000E+00 0.  1.
          1   -1    0    0  501    0  0.00000000000E+00 -0.00000000000E+00 -0.78848654707E+02  0.78848654707E+02  0.00000000000E+00 0. -1.
         25    2    1    2    0    0  0.22525689037E+02  0.37938776086E+01  0.71397308167E+02  0.14583709427E+03  0.12509629202E+03 0.  0.
          5    1    3    3  502    0  0.65475595033E+02 -0.13447021070E+02  0.73351274788E+02  0.99326521300E+02  0.41800000000E+01 0. -1.
         -5    1    3    3    0  502 -0.42949905996E+02  0.17240898679E+02 -0.19539666210E+01  0.46510572969E+02  0.41800000000E+01 0. -1.
        -11    1    1    2    0    0 -0.29218692415E+02 -0.20095344643E+02 -0.32008463037E+02  0.47771294401E+02  0.00000000000E+00 0. -1.
         11    1    1    2    0    0  0.66930033783E+01  0.16301467035E+02  0.42906750639E+02  0.46384516513E+02  0.00000000000E+00 0.  1.
</event>
<event>
 7    1  0.2933729E-009  0.1155433E+03  0.7561462E-02  0.1250636E+00
          2   -1    0    0  501    0  0.00000000000E+00  0.00000000000E+00  0.52238699586E+03  0.52238699586E+03  0.00000000000E+00 0. -1.
         -2   -1    0    0    0  501 -0.00000000000E+00 -0.00000000000E+00 -0.32011999732E+02  0.32011999732E+02  0.00000000000E+00 0.  1.
         25    2    1    2    0    0  0.36619005011E+02 -0.48578977621E+02  0.34831166204E+03  0.37505848815E+03  0.12508791719E+03 0.  0.
          5    1    3    3  502    0 -0.35511531778E+02 -0.31301084795E+02  0.23365593145E+03  0.23843949652E+03  0.41800000000E+01 0.  1.
         -5    1    3    3    0  502  0.72130536789E+02 -0.17277892826E+02  0.11465573059E+03  0.13661899164E+03  0.41800000000E+01 0.  1.
        -11    1    1    2    0    0  0.26019378551E+02 -0.54170847497E+01  0.39103635886E+02  0.47280516144E+02  0.00000000000E+00 0.  1.
         11    1    1    2    0    0 -0.62638383562E+02  0.53996062371E+02  0.10295969820E+03  0.13205999129E+03  0.00000000000E+00 0. -1.
</event>
<event>
 7    1  0.2394257E-009  0.1087987E+03  0.7561462E-02  0.1262811E+00
          2   -1    0    0  501    0  0.00000000000E+00  0.00000000000E+00  0.75093321741E+03  0.75093321741E+03  0.00000000000E+00 0. -1.
         -2   -1    0    0    0  501 -0.00000000000E+00 -0.00000000000E+00 -0.17655428745E+02  0.17655428745E+02  0.00000000000E+00 0.  1.
         25    2    1    2    0    0  0.12422187272E+02  0.36352709598E+02  0.48362749370E+03  0.50101801729E+03  0.12509065013E+03 0.  0.
          5    1    3    3  502    0  0.41408545999E+02  0.70400473354E+02  0.36793512608E+03  0.37691461067E+03  0.41800000000E+01 0.  1.
         -5    1    3    3    0  502 -0.28986358728E+02 -0.34047763756E+02  0.11569236762E+03  0.12410340662E+03  0.41800000000E+01 0.  1.
        -11    1    1    2    0    0 -0.45231134932E+02 -0.36458707403E+02  0.11327255060E+03  0.12730186029E+03  0.00000000000E+00 0.  1.
         11    1    1    2    0    0  0.32808947660E+02  0.10599780455E+00  0.13637774436E+03  0.14026876858E+03  0.00000000000E+00 0. -1.
</event>
<event>
 7    1  0.2394257E-009  0.2160815E+03  0.7561462E-02  0.1136839E+00
         -4   -1    0    0    0  501 -0.00000000000E+00  0.00000000000E+00  0.54201620670E+03  0.54201620670E+03  0.00000000000E+00 0.  1.
          4   -1    0    0  501    0  0.00000000000E+00 -0.00000000000E+00 -0.93988252582E+02  0.93988252582E+02  0.00000000000E+00 0. -1.
         25    2    1    2    0    0 -0.19510403760E+03 -0.12840380118E+02  0.19031039222E+03  0.30016098108E+03  0.12509239916E+03 0.  0.
          5    1    3    3  502    0 -0.10180366443E+03  0.54105873596E+02  0.11421836340E+03  0.16234142597E+03  0.41800000000E+01 0. -1.
         -5    1    3    3    0  502 -0.93300373176E+02 -0.66946253714E+02  0.76092028817E+02  0.13781955511E+03  0.41800000000E+01 0. -1.
        -11    1    1    2    0    0  0.13741741817E+03  0.32018304226E+02  0.11970318712E+03  0.18503397425E+03  0.00000000000E+00 0. -1.
         11    1    1    2    0    0  0.57686619431E+02 -0.19177924108E+02  0.13801437478E+03  0.15080950395E+03  0.00000000000E+00 0.  1.
</event>
<event>
 7    1  0.2394257E-009  0.1499319E+03  0.7561462E-02  0.1200557E+00
          1   -1    0    0  501    0  0.00000000000E+00  0.00000000000E+00  0.90960014427E+02  0.90960014427E+02  0.00000000000E+00 0. -1.
         -1   -1    0    0    0  501 -0.00000000000E+00 -0.00000000000E+00 -0.28399792745E+03  0.28399792745E+03  0.00000000000E+00 0.  1.
         25    2    1    2    0    0  0.79168174735E+02  0.87190343095E+02 -0.11851033216E+03  0.20871405154E+03  0.12508837142E+03 0.  0.
          5    1    3    3  502    0  0.99560765118E+02  0.54808252184E+02 -0.38745463089E+02  0.12014563566E+03  0.41800000000E+01 0. -1.
         -5    1    3    3    0  502 -0.20392590383E+02  0.32382090910E+02 -0.79764869070E+02  0.88568415883E+02  0.41800000000E+01 0. -1.
        -11    1    1    2    0    0 -0.65179703992E+02 -0.62248217724E+01 -0.42484576466E+02  0.78051787014E+02  0.00000000000E+00 0. -1.
         11    1    1    2    0    0 -0.13988470743E+02 -0.80965521322E+02 -0.32043004395E+02  0.88192103317E+02  0.00000000000E+00 0.  1.
</event>
<event>
 7    1  0.2394257E-009  0.1947909E+03  0.7561462E-02  0.1154210E+00
          1   -1    0    0  501    0  0.00000000000E+00  0.00000000000E+00  0.17524198687E+04  0.17524198687E+04  0.00000000000E+00 0. -1.
         -1   -1    0    0    0  501 -0.00000000000E+00 -0.00000000000E+00 -0.25554955287E+02  0.25554955287E+02  0.00000000000E+00 0.  1.
         25    2    1    2    0    0  0.29647012268E+02  0.16192048933E+03  0.12115760019E+04  0.12290902523E+04  0.12509696114E+03 0.  0.
          5    1    3    3  502    0 -0.42526242344E+02  0.35133945882E+02  0.47363698454E+03  0.47685673002E+03  0.41800000000E+01 0. -1.
         -5    1    3    3    0  502  0.72173254612E+02  0.12678654345E+03  0.73793901736E+03  0.75223352226E+03  0.41800000000E+01 0. -1.
        -11    1    1    2    0    0 -0.48006338934E+02 -0.33389524468E+02  0.13790415036E+03  0.14978993160E+03  0.00000000000E+00 0. -1.
         11    1    1    2    0    0  0.18359326666E+02 -0.12853096487E+03  0.37738476114E+03  0.39909464008E+03  0.00000000000E+00 0.  1.
</event>
<event>
 7    1  0.2394257E-009  0.1352799E+03  0.7561462E-02  0.1219825E+00
         -2   -1    0    0    0  501 -0.00000000000E+00  0.00000000000E+00  0.25357106227E+02  0.25357106227E+02  0.00000000000E+00 0.  1.
          2   -1    0    0  501    0  0.00000000000E+00 -0.00000000000E+00 -0.12003839978E+04  0.12003839978E+04  0.00000000000E+00 0. -1.
         25    2    1    2    0    0  0.10638688788E+03 -0.74577241509E+02 -0.77624548366E+03  0.79692272486E+03  0.12509533817E+03 0.  0.
          5    1    3    3  502    0  0.10137462178E+01 -0.10501227613E+01 -0.38643327563E+03  0.38645863861E+03  0.41800000000E+01 0.  1.
         -5    1    3    3    0  502  0.10537314166E+03 -0.73527118748E+02 -0.38981220802E+03  0.41046408625E+03  0.41800000000E+01 0.  1.
        -11    1    1    2    0    0 -0.85504295920E+02  0.34149438618E+02 -0.15071377706E+03  0.17661203633E+03  0.00000000000E+00 0.  1.
         11    1    1    2    0    0 -0.20882591957E+02  0.40427802891E+02 -0.24806763083E+03  0.25220634282E+03  0.00000000000E+00 0. -1.
</event>
<event>
 7    1  0.2394257E-009  0.2940576E+03  0.7561462E-02  0.1088249E+00
         -2   -1    0    0    0  501 -0.00000000000E+00  0.00000000000E+00  0.56192857139E+02  0.56192857139E+02  0.00000000000E+00 0.  1.
          2   -1    0    0  501    0  0.00000000000E+00 -0.00000000000E+00 -0.17350246095E+04  0.17350246095E+04  0.00000000000E+00 0. -1.
         25    2    1    2    0    0  0.28081868706E+03  0.79962865640E+02 -0.90957793974E+03  0.96344837115E+03  0.12509012963E+03 0.  0.
          5    1    3    3  502    0  0.24446227512E+03  0.79365594392E+02 -0.87880843642E+03  0.91563226343E+03  0.41800000000E+01 0.  1.
         -5    1    3    3    0  502  0.36356411943E+02  0.59727124795E+00 -0.30769503322E+02  0.47816107715E+02  0.41800000000E+01 0.  1.
        -11    1    1    2    0    0 -0.16654725327E+03 -0.66747270117E+02 -0.35396749543E+03  0.39684527648E+03  0.00000000000E+00 0.  1.
         11    1    1    2    0    0 -0.11427143379E+03 -0.13215595523E+02 -0.41528631718E+03  0.43092381900E+03  0.00000000000E+00 0. -1.
</event>
<event>
 7    1  0.2394257E-009  0.1640075E+03  0.7561462E-02  0.1184245E+00
          2   -1    0    0  501    0  0.00000000000E+00  0.00000000000E+00  0.79338298967E+02  0.79338298967E+02  0.00000000000E+00 0. -1.
         -2   -1    0    0    0  501 -0.00000000000E+00 -0.00000000000E+00 -0.52169765468E+03  0.52169765468E+03  0.00000000000E+00 0.  1.
         25    2    1    2    0    0  0.15148886579E+03 -0.23952255816E+02 -0.11561413269E+03  0.22921697646E+03  0.12510478649E+03 0.  0.
          5    1    3    3  502    0  0.81243160323E+02 -0.21200495361E+02  0.10551466697E+02  0.84727315267E+02  0.41800000000E+01 0. -1.
         -5    1    3    3    0  502  0.70245705462E+02 -0.27517604550E+01 -0.12616559939E+03  0.14448966119E+03  0.41800000000E+01 0. -1.
        -11    1    1    2    0    0 -0.91863261483E+02  0.54203922737E+02 -0.23708819687E+03  0.25997641651E+03  0.00000000000E+00 0.  1.
         11    1    1    2    0    0 -0.59625604303E+02 -0.30251666921E+02 -0.89657026159E+02  0.11184256068E+03  0.00000000000E+00 0. -1.
</event>
<event>
 7    1  0.2394257E-009  0.1301139E+03  0.7561462E-02  0.1227287E+00
          1   -1    0    0  501    0  0.00000000000E+00  0.00000000000E+00  0.32385408046E+02  0.32385408046E+02  0.00000000000E+00 0. -1.
         -1   -1    0    0    0  501 -0.00000000000E+00 -0.00000000000E+00 -0.73896326440E+03  0.73896326440E+03  0.00000000000E+00 0.  1.
         25    2    1    2    0    0 -0.39517420435E+02  0.79771014160E+02 -0.54031828786E+03  0.56170885105E+03  0.12509172607E+03 0.  0.
          5    1    3    3  502    0  0.33480365252E+02  0.58335186256E+02 -0.15637200718E+03  0.17027508873E+03  0.41800000000E+01 0. -1.
         -5    1    3    3    0  502 -0.72997785687E+02  0.21435827904E+02 -0.38394628067E+03  0.39143376231E+03  0.41800000000E+01 0. -1.
        -11    1    1    2    0    0  0.61476041020E+02 -0.68215751835E+02 -0.15929355854E+03  0.18386715371E+03  0.00000000000E+00 0.  1.
         11    1    1    2    0    0 -0.21958620586E+02 -0.11555262325E+02 -0.69660099501E+01  0.25772667694E+02  0.00000000000E+00 0. -1.
</event>
<event>
 7    1  0.2394257E-009  0.6335453E+02  0.7561462E-02  0.1384270E+00
          2   -1    0    0  501    0  0.00000000000E+00  0.00000000000E+00  0.15709509519E+03  0.15709509519E+03  0.00000000000E+00 0. -1.
         -2   -1    0    0    0  501 -0.00000000000E+00 -0.00000000000E+00 -0.77609448836E+02  0.77609448836E+02  0.00000000000E+00 0.  1.
         25    2    1    2    0    0  0.10737763668E+01  0.17643109817E+02  0.32316110816E+02  0.13039671435E+03  0.12508612943E+03 0.  0.
          5    1    3    3  502    0 -0.21930129424E+01  0.27316070441E+02  0.78323849326E+02  0.83084744588E+02  0.41800000000E+01 0.  1.
         -5    1    3    3    0  502  0.32667893092E+01 -0.96729606240E+01 -0.46007738510E+02  0.47311969759E+02  0.41800000000E+01 0.  1.
        -11    1    1    2    0    0  0.34140617609E+02 -0.34829249515E+02  0.89793084623E+01  0.49591192494E+02  0.00000000000E+00 0.  1.
         11    1    1    2    0    0 -0.35214393976E+02  0.17186139698E+02  0.38190227075E+02  0.54716637185E+02  0.00000000000E+00 0. -1.
</event>
<event>
 7    1  0.2394257E-009  0.1266121E+03  0.7561462E-02  0.1232571E+00
          1   -1    0    0  501    0  0.00000000000E+00  0.00000000000E+00  0.70098630779E+03  0.70098630779E+03  0.00000000000E+00 0. -1.
         -1   -1    0    0    0  501 -0.00000000000E+00 -0.00000000000E+00 -0.23820522753E+02  0.23820522753E+02  0.00000000000E+00 0.  1.
         25    2    1    2    0    0  0.68278572994E+02 -0.39158674723E+00  0.33298272269E+03  0.36219824535E+03  0.12509180010E+03 0.  0.
          5    1    3    3  502    0  0.48458420952E+02 -0.59367921292E+02  0.22206434946E+03  0.23495279599E+03  0.41800000000E+01 0. -1.
         -5    1    3    3    0  502  0.19820152043E+02  0.58976334545E+02  0.11091837323E+03  0.12724544936E+03  0.41800000000E+01 0. -1.
        -11    1    1    2    0    0  0.12731339197E+02  0.26172769064E+02  0.87734892741E+02  0.92436530888E+02  0.00000000000E+00 0. -1.
         11    1    1    2    0    0 -0.81009912192E+02 -0.25781182317E+02  0.25644816960E+03  0.27017205430E+03  0.00000000000E+00 0.  1.
</event>
<event>
 7    1  0.2394257E-009  0.2096408E+03  0.7561462E-02  0.1141851E+00
         -1   -1    0    0    0  501 -0.00000000000E+00  0.00000000000E+00  0.14165594876E+03  0.14165594876E+03  0.00000000000E+00 0.  1.
          1   -1    0    0  501    0  0.00000000000E+00 -0.00000000000E+00 -0.32506193952E+03  0.32506193952E+03  0.00000000000E+00 0. -1.
         25    2    1    2    0    0  0.14700038351E+03  0.11423709892E+03 -0.83377263904E+02  0.23928790609E+03  0.12509079240E+03 0.  0.
          5    1    3    3  502    0  0.58309310705E+01 -0.23647732796E+02 -0.20581639099E+02  0.32160399431E+02  0.41800000000E+01 0. -1.
         -5    1    3    3    0  502  0.14116945244E+03  0.13788483172E+03 -0.62795624805E+02  0.20712750666E+03  0.41800000000E+01 0. -1.
        -11    1    1    2    0    0 -0.10438808681E+02 -0.40842664498E+02  0.13739721813E+01  0.42177953595E+02  0.00000000000E+00 0.  1.
         11    1    1    2    0    0 -0.13656157483E+03 -0.73394434422E+02 -0.10140269904E+03  0.18525202859E+03  0.00000000000E+00 0. -1.
</event>
<event>
 7    1  0.2394257E-009  0.1228120E+03  0.7561462E-02  0.1238529E+00
          4   -1    0    0  501    0  0.00000000000E+00  0.00000000000E+00  0.55404789346E+02  0.55404789346E+02  0.00000000000E+00 0. -1.
         -4   -1    0    0    0  501 -0.00000000000E+00 -0.00000000000E+00 -0.34197727479E+03  0.34197727479E+03  0.00000000000E+00 0.  1.
         25    2    1    2    0    0 -0.60735655120E+02 -0.30865817616E+02 -0.23157513495E+03  0.27187576078E+03  0.12509143725E+03 0.  0.
          5    1    3    3  502    0 -0.76464023596E+02  0.27091284011E+02 -0.14876807185E+03  0.16949954624E+03  0.41800000000E+01 0.  1.
         -5    1    3    3    0  502  0.15728368476E+02 -0.57957101627E+02 -0.82807063094E+02  0.10237621453E+03  0.41800000000E+01 0.  1.
        -11    1    1    2    0    0 -0.19313678570E+02  0.37142575549E+01 -0.32578944555E+02  0.38055242969E+02  0.00000000000E+00 0.  1.
         11    1    1    2    0    0  0.80049333690E+02  0.27151560061E+02 -0.22418405939E+02  0.87451060387E+02  0.00000000000E+00 0. -1.
</event>
<event>
 7    1  0.2427758E-009  0.1312923E+03  0.7561462E-02  0.1225551E+00
          1   -1    0    0  501    0  0.00000000000E+00  0.00000000000E+00  0.74769263634E+03  0.74769263634E+03  0.00000000000E+00 0.  1.
         -1   -1    0    0    0  501 -0.00000000000E+00 -0.00000000000E+00 -0.36971943094E+02  0.36971943094E+02  0.00000000000E+00 0. -1.
         25    2    1    2    0    0  0.61313888138E+02  0.10612454294E+03  0.31277799650E+03  0.35847451882E+03  0.12510832929E+03 0.  0.
          5    1    3    3  502    0  0.33243980182E+02  0.30907713846E+02  0.25606544450E+03  0.26009120181E+03  0.41800000000E+01 0.  1.
         -5    1    3    3    0  502  0.28069907956E+02  0.75216829093E+02  0.56712551996E+02  0.98383317007E+02  0.41800000000E+01 0.  1.
        -11    1    1    2    0    0  0.39137369848E+01 -0.51160857099E+02  0.25181282533E+03  0.25698725579E+03  0.00000000000E+00 0.  1.
         11    1    1    2    0    0 -0.65227625123E+02 -0.54963685840E+02  0.14612987142E+03  0.16920280483E+03  0.00000000000E+00 0. -1.
</event>
<event>
 7    1  0.2877593E-009  0.1010495E+03  0.7561462E-02  0.1278104E+00
          2   -1    0    0  501    0  0.00000000000E+00  0.00000000000E+00  0.94136703572E+02  0.94136703572E+02  0.00000000000E+00 0. -1.
         -2   -1    0    0    0  501 -0.00000000000E+00 -0.00000000000E+00 -0.29338081953E+03  0.29338081953E+03  0.00000000000E+00 0.  1.
         25    2    1    2    0    0  0.10425174523E+02  0.38797989611E+02 -0.24454773195E+03  0.27760665954E+03  0.12509155029E+03 0.  0.
          5    1    3    3  502    0  0.44901158304E+02 -0.30064647112E+02 -0.96753863889E+02  0.11089986294E+03  0.41800000000E+01 0. -1.
         -5    1    3    3    0  502 -0.34475983781E+02  0.68862636723E+02 -0.14779386807E+03  0.16670679660E+03  0.41800000000E+01 0. -1.
        -11    1    1    2    0    0 -0.31816218810E+02 -0.72033045285E+01 -0.17050980967E+02  0.36808902829E+02  0.00000000000E+00 0.  1.
         11    1    1    2    0    0  0.21391044287E+02 -0.31594685082E+02  0.62354596962E+02  0.73101960736E+02  0.00000000000E+00 0. -1.
</event>
<event>
 7    1  0.2394257E-009  0.1148460E+03  0.7561462E-02  0.1251850E+00
          1   -1    0    0  501    0  0.00000000000E+00  0.00000000000E+00  0.11570752143E+03  0.11570752143E+03  0.00000000000E+00 0. -1.
         -1   -1    0    0    0  501 -0.00000000000E+00 -0.00000000000E+00 -0.12551145174E+03  0.12551145174E+03  0.00000000000E+00 0.  1.
         25    2    1    2    0    0 -0.39901508010E+02 -0.26085853732E+02  0.12596678559E+02  0.13446093589E+03  0.12509382425E+03 0.  0.
          5    1    3    3  502    0 -0.44102179430E+02 -0.69025046938E+02 -0.14574429608E+02  0.83302735451E+02  0.41800000000E+01 0.  1.
         -5    1    3    3    0  502  0.42006714200E+01  0.42939193206E+02  0.27171108167E+02  0.51158200443E+02  0.41800000000E+01 0.  1.
        -11    1    1    2    0    0 -0.29354662574E+02 -0.23774633734E+01 -0.78685056154E+01  0.30483797788E+02  0.00000000000E+00 0.  1.
         11    1    1    2    0    0  0.69256170584E+02  0.28463317105E+02 -0.14532103247E+02  0.76274239488E+02  0.00000000000E+00 0. -1.
</event>
<event>
 7    1  0.2394257E-009  0.9775026E+02  0.7561462E-02  0.1285099E+00
          1   -1    0    0  501    0  0.00000000000E+00  0.00000000000E+00  0.53052454280E+03  0.53052454280E+03  0.00000000000E+00 0. -1.
         -1   -1    0    0    0  501 -0.00000000000E+00 -0.00000000000E+00 -0.27120973654E+02  0.27120973654E+02  0.00000000000E+00 0.  1.
         25    2    1    2    0    0  0.20407019584E+02  0.33714920392E+02  0.34777268730E+03  0.37168005775E+03  0.12508829279E+03 0.  0.
          5    1    3    3  502    0 -0.37858132383E+02 -0.20248165386E+02  0.19195001657E+03  0.19673715371E+03  0.41800000000E+01 0.  1.
         -5    1    3    3    0  502  0.58265151968E+02  0.53963085777E+02  0.15582267073E+03  0.17494290404E+03  0.41800000000E+01 0.  1.
        -11    1    1    2    0    0 -0.12929756077E+02  0.17121837070E+02  0.12352849839E+03  0.12537793192E+03  0.00000000000E+00 0. -1.
         11    1    1    2    0    0 -0.74772635071E+01 -0.50836757461E+02  0.32102383454E+02  0.60587526787E+02  0.00000000000E+00 0.  1.
</event>
<event>
 7    1  0.2394257E-009  0.9300877E+02  0.7561462E-02  0.1295725E+00
          2   -1    0    0  501    0  0.00000000000E+00  0.00000000000E+00  0.54078382500E+03  0.54078382500E+03  0.00000000000E+00 0. -1.
         -2   -1    0    0    0  501 -0.00000000000E+00 -0.00000000000E+00 -0.32543553818E+02  0.32543553818E+02  0.00000000000E+00 0.  1.
         25    2    1    2    0    0 -0.13748185336E+02  0.59493834581E+02  0.39953317751E+03  0.42308679501E+03  0.12508855753E+03 0.  0.
          5    1    3    3  502    0  0.21200601984E+02  0.20580174956E+02  0.34888689186E+03  0.35016074143E+03  0.41800000000E+01 0. -1.
         -5    1    3    3    0  502 -0.34948787320E+02  0.38913659625E+02  0.50646285649E+02  0.72926053579E+02  0.41800000000E+01 0. -1.
        -11    1    1    2    0    0  0.17285315081E+02  0.18681013994E+02  0.26837883130E+02  0.36986948673E+02  0.00000000000E+00 0. -1.
         11    1    1    2    0    0 -0.35371297450E+01 -0.78174848575E+02  0.81869210539E+02  0.11325363513E+03  0.00000000000E+00 0.  1.
</event>
<event>
 7    1  0.2394257E-009  0.9152505E+02  0.7561462E-02  0.1299200E+00
          2   -1    0    0  501    0  0.00000000000E+00  0.00000000000E+00  0.10932659394E+04  0.10932659394E+04  0.00000000000E+00 0. -1.
         -2   -1    0    0    0  501 -0.00000000000E+00 -0.00000000000E+00 -0.12122974559E+02  0.12122974559E+02  0.00000000000E+00 0.  1.
         25    2    1    2    0    0  0.77898791802E+01 -0.95724436590E-01  0.78212510976E+03  0.79210448100E+03  0.12509648328E+03 0.  0.
          5    1    3    3  502    0  0.25617524930E+02  0.38820385399E+02  0.12282345268E+03  0.13140149479E+03  0.41800000000E+01 0.  1.
         -5    1    3    3    0  502 -0.17827645749E+02 -0.38916109835E+02  0.65930165708E+03  0.66070298621E+03  0.41800000000E+01 0.  1.
        -11    1    1    2    0    0  0.41597954733E+02  0.10429263920E+02  0.14535223313E+03  0.15154679495E+03  0.00000000000E+00 0.  1.
         11    1    1    2    0    0 -0.49387833914E+02 -0.10333539483E+02  0.15366562192E+03  0.16173763797E+03  0.00000000000E+00 0. -1.
</event>
<event>
 7    1  0.2394257E-009  0.1557870E+03  0.7561462E-02  0.1193537E+00
         -1   -1    0    0    0  501 -0.00000000000E+00  0.00000000000E+00  0.33373449867E+03  0.33373449867E+03  0.00000000000E+00 0.  1.
          1   -1    0    0  501    0  0.00000000000E+00 -0.00000000000E+00 -0.98901939723E+02  0.98901939723E+02  0.00000000000E+00 0. -1.
         25    2    1    2    0    0  0.99489897767E+02 -0.89290490180E+02  0.57625888708E+02  0.19193686127E+03  0.12509190330E+03 0.  0.
          5    1    3    3  502    0  0.78489493213E+02  0.69235860548E+01  0.23768156627E+01  0.78940852804E+02  0.41800000000E+01 0. -1.
         -5    1    3    3    0  502  0.21000404554E+02 -0.96214076235E+02  0.55249073046E+02  0.11299600847E+03  0.41800000000E+01 0. -1.
        -11    1    1    2    0    0 -0.13442247354E+02  0.17309877233E+02  0.10505256639E+03  0.10731433999E+03  0.00000000000E+00 0.  1.
         11    1    1    2    0    0 -0.86047650412E+02  0.71980612948E+02  0.72154103856E+02  0.13338523713E+03  0.00000000000E+00 0. -1.
</event>
<event>
 7    1  0.2394257E-009  0.1283887E+03  0.7561462E-02  0.1229866E+00
         -3   -1    0    0    0  501 -0.00000000000E+00  0.00000000000E+00  0.44282328320E+02  0.44282328320E+02  0.00000000000E+00 0.  1.
          3   -1    0    0  501    0  0.00000000000E+00 -0.00000000000E+00 -0.41278464193E+03  0.41278464193E+03  0.00000000000E+00 0. -1.
         25    2    1    2    0    0  0.79245258632E+02  0.94747069015E+01 -0.18789155134E+03  0.23940895296E+03  0.12507529974E+03 0.  0.
          5    1    3    3  502    0 -0.22344055599E+02  0.25120847023E+02 -0.12571465393E+02  0.36136241059E+02  0.41800000000E+01 0. -1.
         -5    1    3    3    0  502  0.10158931423E+03 -0.15646140121E+02 -0.17532008595E+03  0.20327271190E+03  0.41800000000E+01 0. -1.
        -11    1    1    2    0    0  0.20191560823E+02 -0.24886398827E+01 -0.19358785480E+02  0.28083002549E+02  0.00000000000E+00 0.  1.
         11    1    1    2    0    0 -0.99436819455E+02 -0.69860670188E+01 -0.16125197679E+03  0.18957501474E+03  0.00000000000E+00 0. -1.
</event>
<event>
 7    1  0.2394257E-009  0.1145631E+03  0.7561462E-02  0.1252346E+00
          2   -1    0    0  501    0  0.00000000000E+00  0.00000000000E+00  0.16605908236E+04  0.16605908236E+04  0.00000000000E+00 0. -1.
         -2   -1    0    0    0  501 -0.00000000000E+00 -0.00000000000E+00 -0.11058884871E+02  0.11058884871E+02  0.00000000000E+00 0.  1.
         25    2    1    2    0    0 -0.77142899454E+02 -0.18402810289E+02  0.95521993578E+03  0.96663308926E+03  0.12507882786E+03 0.  0.
          5    1    3    3  502    0 -0.34993926638E+02 -0.44683413477E+02  0.82864254992E+03  0.83059444393E+03  0.41800000000E+01 0.  1.
         -5    1    3    3    0  502 -0.42148972816E+02  0.26280603189E+02  0.12657738585E+03  0.13603864533E+03  0.41800000000E+01 0.  1.
        -11    1    1    2    0    0  0.19655315916E+02  0.52134926286E+02  0.30988009787E+03  0.31484926082E+03  0.00000000000E+00 0.  1.
         11    1    1    2    0    0  0.57487583539E+02 -0.33732115998E+02  0.38443190506E+03  0.39016735837E+03  0.00000000000E+00 0. -1.
</event>
<event>
 7    1  0.2394257E-009  0.1323586E+03  0.7561462E-02  0.1223997E+00
          2   -1    0    0  501    0  0.00000000000E+00  0.00000000000E+00  0.13911759252E+04  0.13911759252E+04  0.00000000000E+00 0. -1.
         -2   -1    0    0    0  501 -0.00000000000E+00 -0.00000000000E+00 -0.28018036684E+02  0.28018036684E+02  0.00000000000E+00 0.  1.
         25    2    1    2    0    0  0.25650201146E+02 -0.11443429324E+03  0.11317457951E+04  0.11446601108E+04  0.12508031163E+03 0.  0.
          5    1    3    3  502    0  0.18921261491E+02 -0.73623089028E+02  0.23653888329E+03  0.24848840835E+03  0.41800000000E+01 0. -1.
         -5    1    3    3    0  502  0.67289396554E+01 -0.40811204208E+02  0.89520691177E+03  0.89617170247E+03  0.41800000000E+01 0. -1.
        -11    1    1    2    0    0 -0.35212576786E+02  0.31871063626E+01  0.67586532635E+02  0.76275963478E+02  0.00000000000E+00 0. -1.
         11    1    1    2    0    0  0.95623756404E+01  0.11124718687E+03  0.16382556081E+03  0.19825788759E+03  0.00000000000E+00 0.  1.
</event>
<event>
 7    1  0.4211391E-009  0.1515586E+03  0.7561462E-02  0.1198571E+00
         -2   -1    0    0    0  501 -0.00000000000E+00  0.00000000000E+00  0.39935969847E+02  0.39935969847E+02  0.00000000000E+00 0.  1.
          2   -1    0    0  501    0  0.00000000000E+00 -0.00000000000E+00 -0.70817686964E+03  0.70817686964E+03  0.00000000000E+00 0. -1.
         25    2    1    2    0    0  0.12805355663E+03  0.30935754159E+01 -0.37099348296E+03  0.41193336690E+03  0.12508257591E+03 0.  0.
          5    1    3    3  502    0  0.40285358360E+02  0.55526317235E+02 -0.21197751721E+03  0.22284080014E+03  0.41800000000E+01 0.  1.
         -5    1    3    3    0  502  0.87768198272E+02 -0.52432741819E+02 -0.15901596575E+03  0.18909256676E+03  0.41800000000E+01 0.  1.
        -11    1    1    2    0    0 -0.67482300325E+02 -0.17687677308E+02 -0.63716592196E+02  0.94480256704E+02  0.00000000000E+00 0.  1.
         11    1    1    2    0    0 -0.60571256307E+02  0.14594101892E+02 -0.23353082464E+03  0.24169921588E+03  0.00000000000E+00 0. -1.
</event>
<event>
 7    1  0.2394257E-009  0.8789631E+02  0.7561462E-02  0.1308028E+00
         -1   -1    0    0    0  501 -0.00000000000E+00  0.00000000000E+00  0.63895558075E+02  0.63895558075E+02  0.00000000000E+00 0.  1.
          1   -1    0    0  501    0  0.00000000000E+00 -0.00000000000E+00 -0.23035570403E+03  0.23035570403E+03  0.00000000000E+00 0. -1.
         25    2    1    2    0    0 -0.31164652794E+02  0.40653888054E+02 -0.75724524565E+02  0.15494780502E+03  0.12510253579E+03 0.  0.
          5    1    3    3  502    0 -0.29348196921E+02 -0.11268269560E+01 -0.10143150063E+03  0.10568068944E+03  0.41800000000E+01 0.  1.
         -5    1    3    3    0  502 -0.18164558732E+01  0.41780715010E+02  0.25706976065E+02  0.49267115575E+02  0.41800000000E+01 0.  1.
        -11    1    1    2    0    0  0.62551896396E+02 -0.17073212568E+02 -0.44460866971E+02  0.78619355263E+02  0.00000000000E+00 0.  1.
         11    1    1    2    0    0 -0.31387243602E+02 -0.23580675485E+02 -0.46274754416E+02  0.60684101819E+02  0.00000000000E+00 0. -1.
</event>
<event>
 7    1  0.2394257E-009  0.2385911E+03  0.7561462E-02  0.1120735E+00
         -2   -1    0    0    0  501 -0.00000000000E+00  0.00000000000E+00  0.74586792869E+02  0.74586792869E+02  0.00000000000E+00 0.  1.
          2   -1    0    0  501    0  0.00000000000E+00 -0.00000000000E+00 -0.84804707760E+03  0.84804707760E+03  0.00000000000E+00 0. -1.
         25    2    1    2    0    0  0.14646078914E+03 -0.16221436484E+03 -0.51978860459E+03  0.57757472743E+03  0.12509240338E+03 0.  0.
          5    1    3    3  502    0  0.89909615381E+02 -0.18462399355E+02 -0.25426452531E+03  0.27035628411E+03  0.41800000000E+01 0.  1.
         -5    1    3    3    0  502  0.56551173755E+02 -0.14375196548E+03 -0.26552407928E+03  0.30721844331E+03  0.41800000000E+01 0.  1.
        -11    1    1    2    0    0 -0.13894816836E+01  0.42935502861E+02 -0.27204867260E+02  0.50847742014E+02  0.00000000000E+00 0.  1.
         11    1    1    2    0    0 -0.14507130745E+03  0.11927886198E+03 -0.22646681288E+03  0.29421140103E+03  0.00000000000E+00 0. -1.
</event>
<event>
 7    1  0.2394257E-009  0.1163255E+03  0.7561462E-02  0.1249285E+00
          2   -1    0    0  501    0  0.00000000000E+00  0.00000000000E+00  0.69303817877E+02  0.69303817877E+02  0.00000000000E+00 0. -1.
         -2   -1    0    0    0  501 -0.00000000000E+00 -0.00000000000E+00 -0.30260897339E+03  0.30260897339E+03  0.00000000000E+00 0.  1.
         25    2    1    2    0    0 -0.88235323843E+02 -0.29408674202E+02 -0.15569134522E+03  0.22030903543E+03  0.12508370648E+03 0.  0.
          5    1    3    3  502    0 -0.91198800286E+02 -0.59595330762E+02 -0.15522525388E+03  0.18968704876E+03  0.41800000000E+01 0. -1.
         -5    1    3    3    0  502  0.29634764427E+01  0.30186656561E+02 -0.46609133386E+00  0.30621986678E+02  0.41800000000E+01 0. -1.
        -11    1    1    2    0    0  0.26399443943E+02  0.90134602598E+01 -0.81731723399E+02  0.86361147028E+02  0.00000000000E+00 0.  1.
         11    1    1    2    0    0  0.61835879900E+02  0.20395213942E+02  0.41179131080E+01  0.65242608801E+02  0.00000000000E+00 0. -1.
</event>
<event>
 7    1  0.2394257E-009  0.1082547E+03  0.7561462E-02  0.1263836E+00
         -2   -1    0    0    0  501 -0.00000000000E+00  0.00000000000E+00  0.90581357026E+02  0.90581357026E+02  0.00000000000E+00 0.  1.
          2   -1    0    0  501    0  0.00000000000E+00 -0.00000000000E+00 -0.14640304600E+03  0.14640304600E+03  0.00000000000E+00 0. -1.
         25    2    1    2    0    0  0.30104044825E+02 -0.80428547699E+01 -0.59590171688E+01  0.12905538662E+03  0.12509533125E+03 0.  0.
          5    1    3    3  502    0  0.42552539683E+02  0.48783956690E+02  0.15865409851E+02  0.66781559532E+02  0.41800000000E+01 0.  1.
         -5    1    3    3    0  502 -0.12448494858E+02 -0.56826811460E+02 -0.21824427020E+02  0.62273827084E+02  0.41800000000E+01 0.  1.
        -11    1    1    2    0    0 -0.22358529696E+02 -0.39369131711E+02 -0.12213901159E+02  0.46893621777E+02  0.00000000000E+00 0.  1.
         11    1    1    2    0    0 -0.77455151288E+01  0.47411986481E+02 -0.37648770643E+02  0.61035394630E+02  0.00000000000E+00 0. -1.
</event>
<event>
 7    1  0.2394257E-009  0.8717926E+02  0.7561462E-02  0.1309830E+00
          1   -1    0    0  501    0  0.00000000000E+00  0.00000000000E+00  0.49081793025E+03  0.49081793025E+03  0.00000000000E+00 0.  1.
         -1   -1    0    0    0  501 -0.00000000000E+00 -0.00000000000E+00 -0.28397183284E+02  0.28397183284E+02  0.00000000000E+00 0. -1.
         25    2    1    2    0    0  0.33301173132E+02 -0.31946906225E+02  0.28371494406E+03  0.31348160335E+03  0.12508786195E+03 0.  0.
          5    1    3    3  502    0  0.10871954411E+02 -0.69688840032E+02  0.87977364922E+02  0.11283715238E+03  0.41800000000E+01 0.  1.
         -5    1    3    3    0  502  0.22429218721E+02  0.37741933807E+02  0.19573757914E+03  0.20064445097E+03  0.41800000000E+01 0.  1.
        -11    1    1    2    0    0 -0.12377054011E+02 -0.78373152943E+01 -0.58557766471E+01  0.15776726440E+02  0.00000000000E+00 0. -1.
         11    1    1    2    0    0 -0.20924119121E+02  0.39784221520E+02  0.18456157956E+03  0.18995678375E+03  0.00000000000E+00 0.  1.
</event>
<event>
 7    1  0.2394257E-009  0.1981755E+03  0.7561462E-02  0.1151288E+00
          1   -1    0    0  501    0  0.00000000000E+00  0.00000000000E+00  0.66619500971E+03  0.66619500971E+03  0.00000000000E+00 0. -1.
         -1   -1    0    0    0  501 -0.00000000000E+00 -0.00000000000E+00 -0.19152173499E+03  0.19152173499E+03  0.00000000000E+00 0.  1.
         25    2    1    2    0    0 -0.13232414560E+03  0.12968291010E+03 -0.10169561654E+03  0.24559462890E+03  0.12508951450E+03 0.  0.
          5    1    3    3  502    0 -0.20202327688E+02  0.76558902541E+02  0.83134187514E+01  0.79724431221E+02  0.41800000000E+01 0. -1.
         -5    1    3    3    0  502 -0.11212181791E+03  0.53124007561E+02 -0.11000903529E+03  0.16587019767E+03  0.41800000000E+01 0. -1.
        -11    1    1    2    0    0  0.43458930687E+02 -0.11316505352E+02  0.59913989520E+02  0.74876084900E+02  0.00000000000E+00 0. -1.
         11    1    1    2    0    0  0.88865214913E+02 -0.11836640475E+03  0.51645490174E+03  0.53724603091E+03  0.00000000000E+00 0.  1.
</event>
<event>
 7    1  0.2394257E-009  0.1374726E+03  0.7561462E-02  0.1216771E+00
          2   -1    0    0  501    0  0.00000000000E+00  0.00000000000E+00  0.40824179810E+02  0.40824179810E+02  0.00000000000E+00 0. -1.
         -2   -1    0    0    0  501 -0.00000000000E+00 -0.00000000000E+00 -0.48215309860E+03  0.48215309860E+03  0.00000000000E+00 0.  1.
         25    2    1    2    0    0 -0.78852193627E+02 -0.55363602760E+02 -0.24869483949E+03  0.29458376230E+03  0.12509065861E+03 0.  0.
          5    1    3    3  502    0 -0.10141162392E+03 -0.39660109332E+01 -0.15713648534E+03  0.18710797454E+03  0.41800000000E+01 0.  1.
         -5    1    3    3    0  502  0.22559430296E+02 -0.51397591827E+02 -0.91558354144E+02  0.10747578776E+03  0.41800000000E+01 0.  1.
        -11    1    1    2    0    0  0.37919563434E+02 -0.10670573942E+02 -0.10008133333E+03  0.10755476614E+03  0.00000000000E+00 0.  1.
         11    1    1    2    0    0  0.40932630193E+02  0.66034176702E+02 -0.92552745982E+02  0.12083874998E+03  0.00000000000E+00 0. -1.
</event>
<event>
 7    1  0.2628585E-009  0.1995191E+03  0.7561462E-02  0.1150145E+00
          2   -1    0    0  501    0  0.00000000000E+00  0.00000000000E+00  0.11853101589E+04  0.11853101589E+04  0.00000000000E+00 0. -1.
         -2   -1    0    0    0  501 -0.00000000000E+00 -0.00000000000E+00 -0.39429928672E+02  0.39429928672E+02  0.00000000000E+00 0.  1.
         25    2    1    2    0    0 -0.12582348248E+03  0.13665442977E+03  0.64393496320E+03  0.68176735642E+03  0.12509400275E+03 0.  0.
          5    1    3    3  502    0 -0.13281516686E+03  0.12289704185E+03  0.42099948410E+03  0.45825930373E+03  0.41800000000E+01 0.  1.
         -5    1    3    3    0  502  0.69916843815E+01  0.13757387916E+02  0.22293547910E+03  0.22350805269E+03  0.41800000000E+01 0.  1.
        -11    1    1    2    0    0  0.43112547454E+02 -0.94621035534E+00  0.64827320942E+02  0.77859929377E+02  0.00000000000E+00 0. -1.
         11    1    1    2    0    0  0.82710935029E+02 -0.13570821942E+03  0.43711794612E+03  0.46511280182E+03  0.00000000000E+00 0.  1.
</event>
<event>
 7    1  0.2394257E-009  0.1502452E+03  0.7561462E-02  0.1200172E+00
          1   -1    0    0  501    0  0.00000000000E+00  0.00000000000E+00  0.15919352103E+03  0.15919352103E+03  0.00000000000E+00 0. -1.
         -1   -1    0    0    0  501 -0.00000000000E+00 -0.00000000000E+00 -0.19226922098E+03  0.19226922098E+03  0.00000000000E+00 0.  1.
         25    2    1    2    0    0  0.97252362560E+02 -0.93727443709E+02 -0.39721341815E+02  0.18833043709E+03  0.12509081825E+03 0.  0.
          5    1    3    3  502    0  0.42920044042E+02 -0.63494064152E+02 -0.82546160929E+02  0.11271631402E+03  0.41800000000E+01 0.  1.
         -5    1    3    3    0  502  0.54332318518E+02 -0.30233379557E+02  0.42824819114E+02  0.75614123066E+02  0.41800000000E+01 0.  1.
        -11    1    1    2    0    0 -0.28937111365E+02  0.88262972690E+02 -0.73806905731E+01  0.93178234344E+02  0.00000000000E+00 0.  1.
         11    1    1    2    0    0 -0.68315251194E+02  0.54644710197E+01  0.14026332441E+02  0.69954070582E+02  0.00000000000E+00 0. -1.
</event>
<event>
 7    1  0.3442716E-009  0.1093092E+03  0.7561462E-02  0.1261855E+00
         -2   -1    0    0    0  501 -0.00000000000E+00  0.00000000000E+00  0.55301949094E+02  0.55301949094E+02  0.00000000000E+00 0.  1.
          2   -1    0    0  501    0  0.00000000000E+00 -0.00000000000E+00 -0.29432364183E+03  0.29432364183E+03  0.00000000000E+00 0. -1.
         25    2    1    2    0    0  0.15746779944E+02  0.63515401877E+02 -0.15170024439E+03  0.20723006843E+03  0.12509664168E+03 0.  0.
          5    1    3    3  502    0 -0.24193269151E+02  0.89712576819E+02 -0.10549506757E+03  0.14064260519E+03  0.41800000000E+01 0.  1.
         -5    1    3    3    0  502  0.39940049095E+02 -0.26197174942E+02 -0.46205176816E+02  0.66587463244E+02  0.41800000000E+01 0.  1.
        -11    1    1    2    0    0 -0.27302430381E+02 -0.23546841398E+02  0.92683908702E+01  0.37226059607E+02  0.00000000000E+00 0.  1.
         11    1    1    2    0    0  0.11555650437E+02 -0.39968560479E+02 -0.96589839223E+02  0.10516946289E+03  0.00000000000E+00 0. -1.
</event>
<event>
 7    1  0.2394257E-009  0.1115010E+03  0.7561462E-02  0.1257815E+00
         -2   -1    0    0    0  501 -0.00000000000E+00  0.00000000000E+00  0.66866165264E+02  0.66866165264E+02  0.00000000000E+00 0. -1.
          2   -1    0    0  501    0  0.00000000000E+00 -0.00000000000E+00 -0.25991250720E+03  0.25991250720E+03  0.00000000000E+00 0.  1.
         25    2    1    2    0    0  0.26716105697E+02  0.62271627511E+02 -0.68150027876E+02  0.15774608589E+03  0.12509154815E+03 0.  0.
          5    1    3    3  502    0  0.64164193932E+02  0.78284893241E+02 -0.49618544277E+02  0.11280532181E+03  0.41800000000E+01 0. -1.
         -5    1    3    3    0  502 -0.37448088235E+02 -0.16013265730E+02 -0.18531483599E+02  0.44940764081E+02  0.41800000000E+01 0. -1.
        -11    1    1    2    0    0 -0.34936995509E+02 -0.25969205853E+02 -0.12441184429E+03  0.13180781581E+03  0.00000000000E+00 0.  1.
         11    1    1    2    0    0  0.82208898116E+01 -0.36302421658E+02 -0.48446976754E+00  0.37224770765E+02  0.00000000000E+00 0. -1.
</event>
<event>
 7    1  0.2394257E-009  0.9847904E+02  0.7561462E-02  0.1283527E+00
         -1   -1    0    0    0  501 -0.00000000000E+00  0.00000000000E+00  0.86150945928E+02  0.86150945928E+02  0.00000000000E+00 0.  1.
          1   -1    0    0  501    0  0.00000000000E+00 -0.00000000000E+00 -0.21560528264E+03  0.21560528264E+03  0.00000000000E+00 0. -1.
         25    2    1    2    0    0 -0.11174777183E+02 -0.91948195819E+01  0.18688944398E+02  0.12730549456E+03  0.12509193399E+03 0.  0.
          5    1    3    3  502    0 -0.17597113940E+02  0.48643508600E+02 -0.21798954270E+02  0.56289574125E+02  0.41800000000E+01 0. -1.
         -5    1    3    3    0  502  0.64223367577E+01 -0.57838328182E+02  0.40487898667E+02  0.71015920432E+02  0.41800000000E+01 0. -1.
        -11    1    1    2    0    0 -0.30752455467E+02  0.27230099954E+02 -0.41211899926E+02  0.58186016845E+02  0.00000000000E+00 0.  1.
         11    1    1    2    0    0  0.41927232650E+02 -0.18035280373E+02 -0.10693138118E+03  0.11626471716E+03  0.00000000000E+00 0. -1.
</event>
<event>
 7    1  0.2882175E-009  0.1605024E+03  0.7561462E-02  0.1188131E+00
          2   -1    0    0  501    0  0.00000000000E+00  0.00000000000E+00  0.66736317250E+03  0.66736317250E+03  0.00000000000E+00 0. -1.
         -2   -1    0    0    0  501 -0.00000000000E+00 -0.00000000000E+00 -0.48049244881E+02  0.48049244881E+02  0.00000000000E+00 0.  1.
         25    2    1    2    0    0  0.13439586187E+03  0.24403710565E+02  0.40696062334E+03  0.44712707757E+03  0.12509150958E+03 0.  0.
          5    1    3    3  502    0 -0.10581266049E+02 -0.27932876568E+02  0.51823205838E+02  0.59961036081E+02  0.41800000000E+01 0.  1.
         -5    1    3    3    0  502  0.14497712792E+03  0.52336587133E+02  0.35513741751E+03  0.38716604149E+03  0.41800000000E+01 0.  1.
        -11    1    1    2    0    0 -0.63232139925E+02 -0.94451207028E+01  0.17545575911E+03  0.18674109678E+03  0.00000000000E+00 0. -1.
         11    1    1    2    0    0 -0.71163721941E+02 -0.14958589862E+02  0.36897545173E+02  0.81544243027E+02  0.00000000000E+00 0.  1.
</event>
<event>
 7    1  0.2474453E-009  0.1192553E+03  0.7561462E-02  0.1244331E+00
         -1   -1    0    0    0  501 -0.00000000000E+00  0.00000000000E+00  0.10905780038E+03  0.10905780038E+03  0.00000000000E+00 0.  1.
          1   -1    0    0  501    0  0.00000000000E+00 -0.00000000000E+00 -0.14410852353E+03  0.14410852353E+03  0.00000000000E+00 0. -1.
         25    2    1    2    0    0  0.58046465627E+02 -0.50365707649E+01 -0.43478067420E+02  0.14468132747E+03  0.12509030720E+03 0.  0.
          5    1    3    3  502    0  0.35111137278E+02 -0.63153248641E+02 -0.82845670695E+01  0.72850746231E+02  0.41800000000E+01 0.  1.
         -5    1    3    3    0  502  0.22935328349E+02  0.58116677877E+02 -0.35193500351E+02  0.71830581237E+02  0.41800000000E+01 0.  1.
        -11    1    1    2    0    0 -0.41103049531E+02 -0.38796054297E+02  0.20230118358E+02  0.60032093072E+02  0.00000000000E+00 0.  1.
         11    1    1    2    0    0 -0.16943416096E+02  0.43832625062E+02 -0.11802774086E+02  0.48452903370E+02  0.00000000000E+00 0. -1.
</event>
<event>
 7    1  0.2902152E-009  0.8693347E+02  0.7561462E-02  0.1310452E+00
         -2   -1    0    0    0  501 -0.00000000000E+00  0.00000000000E+00  0.23766145303E+03  0.23766145303E+03  0.00000000000E+00 0. -1.
          2   -1    0    0  501    0  0.00000000000E+00 -0.00000000000E+00 -0.53531306980E+02  0.53531306980E+02  0.00000000000E+00 0.  1.
         25    2    1    2    0    0  0.30656582772E+01  0.29355610786E+02  0.11963653659E+03  0.17558724236E+03  0.12508728411E+03 0.  0.
          5    1    3    3  502    0 -0.77906264633E+01  0.70517251185E+02  0.31738947057E+02  0.77834502219E+02  0.41800000000E+01 0.  1.
         -5    1    3    3    0  502  0.10856284741E+02 -0.41161640399E+02  0.87897589538E+02  0.97752740142E+02  0.41800000000E+01 0.  1.
        -11    1    1    2    0    0  0.14402753076E+02 -0.37924086726E+02 -0.73031788176E+01  0.41219074116E+02  0.00000000000E+00 0.  1.
         11    1    1    2    0    0 -0.17468411353E+02  0.85684759402E+01  0.71796788273E+02  0.74386443532E+02  0.00000000000E+00 0. -1.
</event>
<event>
 7    1  0.2394257E-009  0.1194074E+03  0.7561462E-02  0.1244078E+00
         -3   -1    0    0    0  501 -0.00000000000E+00  0.00000000000E+00  0.15362093943E+04  0.15362093943E+04  0.00000000000E+00 0.  1.
          3   -1    0    0  501    0  0.00000000000E+00 -0.00000000000E+00 -0.14021001257E+02  0.14021001257E+02  0.00000000000E+00 0. -1.
         25    2    1    2    0    0 -0.52993739005E+02 -0.52479823676E+02  0.11675087362E+04  0.11765563731E+04  0.12508309887E+03 0.  0.
          5    1    3    3  502    0  0.20121304749E+02 -0.46907944975E+02  0.80803497681E+03  0.80965623468E+03  0.41800000000E+01 0. -1.
         -5    1    3    3    0  502 -0.73115043754E+02 -0.55718787004E+01  0.35947375941E+03  0.36690013840E+03  0.41800000000E+01 0. -1.
        -11    1    1    2    0    0  0.75283551869E+02  0.26235587128E+02  0.20207630256E+03  0.21723432342E+03  0.00000000000E+00 0. -1.
         11    1    1    2    0    0 -0.22289812864E+02  0.26244236548E+02  0.15260335429E+03  0.15643969908E+03  0.00000000000E+00 0.  1.
</event>
<event>
 7    1  0.2394257E-009  0.2028720E+03  0.7561462E-02  0.1147338E+00
          2   -1    0    0  501    0  0.00000000000E+00  0.00000000000E+00  0.71559134255E+03  0.71559134255E+03  0.00000000000E+00 0.  1.
         -2   -1    0    0    0  501 -0.00000000000E+00 -0.00000000000E+00 -0.63980644926E+02  0.63980644926E+02  0.00000000000E+00 0. -1.
         25    2    1    2    0    0 -0.14498306565E+03 -0.11104330981E+03  0.29874659764E+03  0.37181158407E+03  0.12507445168E+03 0.  0.
          5    1    3    3  502    0 -0.38659389771E+02  0.26582542039E+02  0.56195197572E+02  0.73324979297E+02  0.41800000000E+01 0.  1.
         -5    1    3    3    0  502 -0.10632367588E+03 -0.13762585185E+03  0.24255140007E+03  0.29848660477E+03  0.41800000000E+01 0.  1.
        -11    1    1    2    0    0  0.11497004327E+03  0.72864523570E+02  0.32359903064E+03  0.35106079570E+03  0.00000000000E+00 0.  1.
         11    1    1    2    0    0  0.30013022378E+02  0.38178786240E+02  0.29265069337E+02  0.56699607709E+02  0.00000000000E+00 0. -1.
</event>
<event>
 7    1  0.2394257E-009  0.2080523E+03  0.7561462E-02  0.1143118E+00
         -2   -1    0    0    0  501 -0.00000000000E+00  0.00000000000E+00  0.13773473818E+03  0.13773473818E+03  0.00000000000E+00 0.  1.
          2   -1    0    0  501    0  0.00000000000E+00 -0.00000000000E+00 -0.31800432058E+03  0.31800432058E+03  0.00000000000E+00 0. -1.
         25    2    1    2    0    0 -0.17425943433E+03 -0.35329138054E+02 -0.11488763876E+03  0.24588797361E+03  0.12508887870E+03 0.  0.
          5    1    3    3  502    0  0.19415789569E+02 -0.72703788402E-01 -0.53531252679E+01  0.20569553242E+02  0.41800000000E+01 0. -1.
         -5    1    3    3    0  502 -0.19367522390E+03 -0.35256434266E+02 -0.10953451349E+03  0.22531842037E+03  0.41800000000E+01 0. -1.
        -11    1    1    2    0    0  0.16868389262E+02  0.38377275869E+02 -0.15935553409E+02  0.44847516340E+02  0.00000000000E+00 0. -1.
         11    1    1    2    0    0  0.15739104507E+03 -0.30481378147E+01 -0.49446390229E+02  0.16500356881E+03  0.00000000000E+00 0.  1.
</event>
<event>
 7    1  0.2394257E-009  0.9381078E+02  0.7561462E-02  0.1293877E+00
         -2   -1    0    0    0  501 -0.00000000000E+00  0.00000000000E+00  0.13068873629E+03  0.13068873629E+03  0.00000000000E+00 0.  1.
          2   -1    0    0  501    0  0.00000000000E+00 -0.00000000000E+00 -0.15357965684E+03  0.15357965684E+03  0.00000000000E+00 0. -1.
         25    2    1    2    0    0  0.10662480640E+02 -0.80910628603E+02  0.33404636997E+02  0.15305143018E+03  0.12509457299E+03 0.  0.
          5    1    3    3  502    0 -0.35086260432E+00 -0.33476480909E+02  0.79192098925E+02  0.86079375060E+02  0.41800000000E+01 0. -1.
         -5    1    3    3    0  502  0.11013343244E+02 -0.47434147693E+02 -0.45787461927E+02  0.66972055117E+02  0.41800000000E+01 0. -1.
        -11    1    1    2    0    0 -0.38180065630E+02  0.56698836411E+02 -0.64138029180E+02  0.93734530718E+02  0.00000000000E+00 0. -1.
         11    1    1    2    0    0  0.27517584990E+02  0.24211792192E+02  0.78424716290E+01  0.37482432232E+02  0.00000000000E+00 0.  1.
</event>
<event>
 7    1  0.2394257E-009  0.5134651E+02  0.7561462E-02  0.1438211E+00
          2   -1    0    0  501    0  0.00000000000E+00  0.00000000000E+00  0.32488083166E+03  0.32488083166E+03  0.00000000000E+00 0. -1.
         -2   -1    0    0    0  501 -0.00000000000E+00 -0.00000000000E+00 -0.54938461410E+02  0.54938461410E+02  0.00000000000E+00 0.  1.
         25    2    1    2    0    0 -0.94780107507E+00  0.11779012245E+01  0.27906019848E+03  0.30582053288E+03  0.12509723490E+03 0.  0.
          5    1    3    3  502    0 -0.33755850765E+02  0.17874021789E+02  0.26239995099E+03  0.26519831220E+03  0.41800000000E+01 0. -1.
         -5    1    3    3    0  502  0.32808049690E+02 -0.16696120565E+02  0.16660247486E+02  0.40622220676E+02  0.41800000000E+01 0. -1.
        -11    1    1    2    0    0 -0.12580693505E+02  0.32355357231E+01  0.29828400985E+02  0.32534228834E+02  0.00000000000E+00 0. -1.
         11    1    1    2    0    0  0.13528494580E+02 -0.44134369476E+01 -0.38946229209E+02  0.41464531360E+02  0.00000000000E+00 0.  1.
</event>
<event>
 7    1  0.2394257E-009  0.8620729E+02  0.7561462E-02  0.1312305E+00
          1   -1    0    0  501    0  0.00000000000E+00  0.00000000000E+00  0.58953536820E+02  0.58953536820E+02  0.00000000000E+00 0. -1.
         -1   -1    0    0    0  501 -0.00000000000E+00 -0.00000000000E+00 -0.41427301802E+03  0.41427301802E+03  0.00000000000E+00 0.  1.
         25    2    1    2    0    0  0.68745223478E+02  0.57282919445E+00 -0.64700750568E+02  0.15671880199E+03  0.12509341265E+03 0.  0.
          5    1    3    3  502    0  0.24410450934E+02  0.14923785795E+02  0.35706630815E+02  0.45945896241E+02  0.41800000000E+01 0. -1.
         -5    1    3    3    0  502  0.44334772545E+02 -0.14350956601E+02 -0.10040738138E+03  0.11077290575E+03  0.41800000000E+01 0. -1.
        -11    1    1    2    0    0 -0.74827985599E+02 -0.19088149571E+02 -0.28631867141E+03  0.29655010788E+03  0.00000000000E+00 0.  1.
         11    1    1    2    0    0  0.60827621212E+01  0.18515320377E+02 -0.43000592252E+01  0.19957644977E+02  0.00000000000E+00 0. -1.
</event>
<event>
 7    1  0.2394257E-009  0.1646852E+03  0.7561462E-02  0.1183506E+00
          1   -1    0    0  501    0  0.00000000000E+00  0.00000000000E+00  0.41528252060E+03  0.41528252060E+03  0.00000000000E+00 0. -1.
         -1   -1    0    0    0  501 -0.00000000000E+00 -0.00000000000E+00 -0.10172329774E+03  0.10172329774E+03  0.00000000000E+00 0.  1.
         25    2    1    2    0    0  0.63193569072E+02 -0.10483393883E+03  0.18646024184E+02  0.17600938438E+03  0.12509215511E+03 0.  0.
          5    1    3    3  502    0 -0.84610102247E+01  0.23731901367E+02 -0.71513955503E+01  0.26521815451E+02  0.41800000000E+01 0. -1.
         -5    1    3    3    0  502  0.71654579297E+02 -0.12856584020E+03  0.25797419735E+02  0.14948756893E+03  0.41800000000E+01 0. -1.
        -11    1    1    2    0    0 -0.89750806886E+02  0.80202358079E+02  0.15375201991E+03  0.19526215507E+03  0.00000000000E+00 0.  1.
         11    1    1    2    0    0  0.26557237814E+02  0.24631580755E+02  0.14116117877E+03  0.14573427889E+03  0.00000000000E+00 0. -1.
</event>
<event>
 7    1  0.2394257E-009  0.1037186E+03  0.7561462E-02  0.1272665E+00
          1   -1    0    0  501    0  0.00000000000E+00  0.00000000000E+00  0.61006973538E+03  0.61006973538E+03  0.00000000000E+00 0. -1.
         -1   -1    0    0    0  501 -0.00000000000E+00 -0.00000000000E+00 -0.32202960380E+02  0.32202960380E+02  0.00000000000E+00 0.  1.
         25    2    1    2    0    0 -0.88525668431E+02  0.33530641572E+01  0.26701226923E+03  0.30788447099E+03  0.12509699655E+03 0.  0.
          5    1    3    3  502    0 -0.93457781562E+02 -0.17882590990E+02  0.95273146673E+02  0.13471669856E+03  0.41800000000E+01 0.  1.
         -5    1    3    3    0  502  0.49321131318E+01  0.21235655147E+02  0.17173912256E+03  0.17316777243E+03  0.41800000000E+01 0.  1.
        -11    1    1    2    0    0  0.13175083236E+02  0.51905777267E+01 -0.26190900125E+00  0.14163103887E+02  0.00000000000E+00 0.  1.
         11    1    1    2    0    0  0.75350585195E+02 -0.85436418839E+01  0.31111641477E+03  0.32022512089E+03  0.00000000000E+00 0. -1.
</event>
<event>
 7    1  0.2394257E-009  0.1065166E+03  0.7561462E-02  0.1267160E+00
         -1   -1    0    0    0  501 -0.00000000000E+00  0.00000000000E+00  0.35515918963E+02  0.35515918963E+02  0.00000000000E+00 0.  1.
          1   -1    0    0  501    0  0.00000000000E+00 -0.00000000000E+00 -0.39410502803E+03  0.39410502803E+03  0.00000000000E+00 0. -1.
         25    2    1    2    0    0 -0.62634960946E+01 -0.89162306549E+00 -0.11775555389E+03  0.17190908849E+03  0.12508532232E+03 0.  0.
          5    1    3    3  502    0 -0.95126830934E+01  0.60157670732E+02 -0.40325063661E+02  0.73164333161E+02  0.41800000000E+01 0.  1.
         -5    1    3    3    0  502  0.32491869988E+01 -0.61049293798E+02 -0.77430490225E+02  0.98744755333E+02  0.41800000000E+01 0.  1.
        -11    1    1    2    0    0  0.21708730072E+02 -0.40816366848E+02 -0.10349015755E+03  0.11334662533E+03  0.00000000000E+00 0.  1.
         11    1    1    2    0    0 -0.15445233977E+02  0.41707989913E+02 -0.13734339764E+03  0.14436523318E+03  0.00000000000E+00 0. -1.
</event>
<event>
 7    1  0.2394257E-009  0.1009186E+03  0.7561462E-02  0.1278376E+00
         -1   -1    0    0    0  501 -0.00000000000E+00  0.00000000000E+00  0.39411082720E+02  0.39411082720E+02  0.00000000000E+00 0.  1.
          1   -1    0    0  501    0  0.00000000000E+00 -0.00000000000E+00 -0.44342927408E+03  0.44342927408E+03  0.00000000000E+00 0. -1.
         25    2    1    2    0    0 -0.31470604426E+02 -0.49018726678E+02 -0.31656380371E+03  0.34533106563E+03  0.12509064138E+03 0.  0.
          5    1    3    3  502    0  0.32157332864E+02 -0.29617375393E+02 -0.23927690878E+03  0.24327390829E+03  0.41800000000E+01 0. -1.
         -5    1    3    3    0  502 -0.63627937290E+02 -0.19401351286E+02 -0.77286894937E+02  0.10205715734E+03  0.41800000000E+01 0. -1.
        -11    1    1    2    0    0 -0.79289644219E+01 -0.14497708056E+02 -0.52418315900E+02  0.54961185008E+02  0.00000000000E+00 0. -1.
         11    1    1    2    0    0  0.39399568848E+02  0.63516434734E+02 -0.35036071744E+02  0.82548106157E+02  0.00000000000E+00 0.  1.
</event>
<event>
 7    1  0.2394257E-009  0.1082029E+03  0.7561462E-02  0.1263934E+00
         -2   -1    0    0    0  501 -0.00000000000E+00  0.00000000000E+00  0.14140620994E+02  0.14140620994E+02  0.00000000000E+00 0.  1.
          2   -1    0    0  501    0  0.00000000000E+00 -0.00000000000E+00 -0.10228031703E+04  0.10228031703E+04  0.00000000000E+00 0. -1.
         25    2    1    2    0    0 -0.52572896136E+01 -0.47374028252E+02 -0.65484412339E+03  0.66838665894E+03  0.12509181534E+03 0.  0.
          5    1    3    3  502    0  0.31146325681E+01 -0.82246529725E+02 -0.28191315591E+03  0.29371192087E+03  0.41800000000E+01 0. -1.
         -5    1    3    3    0  502 -0.83719221817E+01  0.34872501473E+02 -0.37293096749E+03  0.37467473807E+03  0.41800000000E+01 0. -1.
        -11    1    1    2    0    0  0.72984638780E+01  0.72406072024E+02 -0.20273683597E+03  0.21540225510E+03  0.00000000000E+00 0.  1.
         11    1    1    2    0    0 -0.20411742644E+01 -0.25032043772E+02 -0.15108158999E+03  0.15315487730E+03  0.00000000000E+00 0. -1.
</event>
<event>
 7    1  0.2394257E-009  0.9701639E+02  0.7561462E-02  0.1286698E+00
          1   -1    0    0  501    0  0.00000000000E+00  0.00000000000E+00  0.54323344286E+03  0.54323344286E+03  0.00000000000E+00 0. -1.
         -1   -1    0    0    0  501 -0.00000000000E+00 -0.00000000000E+00 -0.30235434191E+02  0.30235434191E+02  0.00000000000E+00 0.  1.
         25    2    1    2    0    0  0.66279925035E+02  0.35419609203E+02  0.28398571875E+03  0.31928564185E+03  0.12509138842E+03 0.  0.
          5    1    3    3  502    0  0.79974160674E+02  0.63106092304E+01  0.82294813665E+02  0.11500260397E+03  0.41800000000E+01 0.  1.
         -5    1    3    3    0  502 -0.13694235639E+02  0.29108999973E+02  0.20169090509E+03  0.20428303788E+03  0.41800000000E+01 0.  1.
        -11    1    1    2    0    0 -0.49476924525E+02 -0.40246492038E+02  0.22791015468E+03  0.23666597725E+03  0.00000000000E+00 0. -1.
         11    1    1    2    0    0 -0.16803000510E+02  0.48268828353E+01  0.11021352357E+01  0.17517257951E+02  0.00000000000E+00 0.  1.
</event>
<event>
 7    1  0.2394257E-009  0.2054833E+03  0.7561462E-02  0.1145193E+00
         -2   -1    0    0    0  501 -0.00000000000E+00  0.00000000000E+00  0.10373518607E+03  0.10373518607E+03  0.00000000000E+00 0.  1.
          2   -1    0    0  501    0  0.00000000000E+00 -0.00000000000E+00 -0.48133186280E+03  0.48133186280E+03  0.00000000000E+00 0. -1.
         25    2    1    2    0    0 -0.15402371178E+03 -0.87883060163E+02 -0.30171084921E+03  0.37165118486E+03  0.12509368737E+03 0.  0.
          5    1    3    3  502    0 -0.63928687298E+02  0.24894994400E+02 -0.13195369265E+03  0.14878134026E+03  0.41800000000E+01 0.  1.
         -5    1    3    3    0  502 -0.90095024480E+02 -0.11277805456E+03 -0.16975715656E+03  0.22286984460E+03  0.41800000000E+01 0.  1.
        -11    1    1    2    0    0  0.10710870153E+03  0.10293903473E+03 -0.68521674466E+02  0.16359687860E+03  0.00000000000E+00 0. -1.
         11    1    1    2    0    0  0.46915010246E+02 -0.15055974570E+02 -0.73641530545E+01  0.49818985405E+02  0.00000000000E+00 0.  1.
</event>
<event>
 7    1  0.2394257E-009  0.1233629E+03  0.7561462E-02  0.1237650E+00
          1   -1    0    0  501    0  0.00000000000E+00  0.00000000000E+00  0.41849074210E+02  0.41849074210E+02  0.00000000000E+00 0. -1.
         -1   -1    0    0    0  501 -0.00000000000E+00 -0.00000000000E+00 -0.53970880457E+03  0.53970880457E+03  0.00000000000E+00 0.  1.
         25    2    1    2    0    0 -0.65904686978E+02  0.16867191170E+02 -0.42044297534E+03  0.44390129133E+03  0.12509248988E+03 0.  0.
          5    1    3    3  502    0 -0.47730877005E+02  0.67480138112E+02 -0.19021623552E+03  0.20744033917E+03  0.41800000000E+01 0.  1.
         -5    1    3    3    0  502 -0.18173809973E+02 -0.50612946942E+02 -0.23022673983E+03  0.23646095216E+03  0.41800000000E+01 0.  1.
        -11    1    1    2    0    0  0.48905901071E+02  0.31894157913E+02 -0.23325746853E+02  0.62873801657E+02  0.00000000000E+00 0. -1.
         11    1    1    2    0    0  0.16998785907E+02 -0.48761349083E+02 -0.54091008163E+02  0.74782785792E+02  0.00000000000E+00 0.  1.
</event>
<event>
 7    1  0.2394257E-009  0.1273575E+03  0.7561462E-02  0.1231430E+00
          1   -1    0    0  501    0  0.00000000000E+00  0.00000000000E+00  0.19456002266E+03  0.19456002266E+03  0.00000000000E+00 0. -1.
         -1   -1    0    0    0  501 -0.00000000000E+00 -0.00000000000E+00 -0.13149576296E+03  0.13149576296E+03  0.00000000000E+00 0.  1.
         25    2    1    2    0    0  0.58581027815E+02  0.99579737747E+02  0.48805989265E+02  0.17713730853E+03  0.12509092891E+03 0.  0.
          5    1    3    3  502    0 -0.11966901657E+02  0.24222537693E+02  0.66884677596E+02  0.72256283912E+02  0.41800000000E+01 0. -1.
         -5    1    3    3    0  502  0.70547929472E+02  0.75357200054E+02 -0.18078688332E+02  0.10488102462E+03  0.41800000000E+01 0. -1.
        -11    1    1    2    0    0 -0.40474254917E+02 -0.25575153198E+02 -0.34010150311E+02  0.58727711486E+02  0.00000000000E+00 0.  1.
         11    1    1    2    0    0 -0.18106772898E+02 -0.74004584549E+02  0.48268420752E+02  0.90190765608E+02  0.00000000000E+00 0. -1.
</event>
<event>
 7    1  0.2394257E-009  0.9590915E+02  0.7561462E-02  0.1289141E+00
         -1   -1    0    0    0  501 -0.00000000000E+00  0.00000000000E+00  0.24525289807E+02  0.24525289807E+02  0.00000000000E+00 0.  1.
          1   -1    0    0  501    0  0.00000000000E+00 -0.00000000000E+00 -0.78001601707E+03  0.78001601707E+03  0.00000000000E+00 0. -1.
         25    2    1    2    0    0 -0.51062870309E+02  0.44739440916E+02 -0.56497251369E+03  0.58262377904E+03  0.12508993713E+03 0.  0.
          5    1    3    3  502    0 -0.37544928502E+02  0.57650118915E+02 -0.55799850194E+03  0.56223923595E+03  0.41800000000E+01 0. -1.
         -5    1    3    3    0  502 -0.13517941806E+02 -0.12910677999E+02 -0.69740117517E+01  0.20384543090E+02  0.41800000000E+01 0. -1.
        -11    1    1    2    0    0  0.58790749039E+02 -0.46229751669E+00 -0.60550807949E+02  0.84397667236E+02  0.00000000000E+00 0.  1.
         11    1    1    2    0    0 -0.77278787308E+01 -0.44277143400E+02 -0.12996740562E+03  0.13751986061E+03  0.00000000000E+00 0. -1.
</event>
<event>
 7    1  0.2394257E-009  0.1324188E+03  0.7561462E-02  0.1223910E+00
         -2   -1    0    0    0  501 -0.00000000000E+00  0.00000000000E+00  0.53687449805E+02  0.53687449805E+02  0.00000000000E+00 0.  1.
          2   -1    0    0  501    0  0.00000000000E+00 -0.00000000000E+00 -0.50085786488E+03  0.50085786488E+03  0.00000000000E+00 0. -1.
         25    2    1    2    0    0  0.44418603994E+02 -0.97216189522E+02 -0.13370191846E+03  0.21200855545E+03  0.12508966663E+03 0.  0.
          5    1    3    3  502    0  0.20709907168E+02  0.65193198977E+01 -0.96816427893E+02  0.99309087685E+02  0.41800000000E+01 0.  1.
         -5    1    3    3    0  502  0.23708696825E+02 -0.10373550942E+03 -0.36885490566E+02  0.11269946776E+03  0.41800000000E+01 0.  1.
        -11    1    1    2    0    0 -0.39173489625E+02  0.29800730439E+00 -0.66510506867E+02  0.77190016332E+02  0.00000000000E+00 0. -1.
         11    1    1    2    0    0 -0.52451143691E+01  0.96918182218E+02 -0.24695798975E+03  0.26534674291E+03  0.00000000000E+00 0.  1.
</event>
<event>
 7    1  0.2394257E-009  0.1032025E+03  0.7561462E-02  0.1273702E+00
          2   -1    0    0  501    0  0.00000000000E+00  0.00000000000E+00  0.75080411636E+03  0.75080411636E+03  0.00000000000E+00 0. -1.
         -2   -1    0    0    0  501 -0.00000000000E+00 -0.00000000000E+00 -0.23788451550E+02  0.23788451550E+02  0.00000000000E+00 0.  1.
         25    2    1    2    0    0  0.40453118449E+02 -0.33791477590E+02  0.56063296280E+03  0.57683179303E+03  0.12508908715E+03 0.  0.
          5    1    3    3  502    0  0.44536657921E+02  0.36468600418E+02  0.16110386769E+03  0.17112977911E+03  0.41800000000E+01 0.  1.
         -5    1    3    3    0  502 -0.40835394728E+01 -0.70260078007E+02  0.39952909511E+03  0.40570201392E+03  0.41800000000E+01 0.  1.
        -11    1    1    2    0    0 -0.19619428058E+02 -0.15286206362E+02  0.20045742820E+01  0.24952121760E+02  0.00000000000E+00 0.  1.
         11    1    1    2    0    0 -0.20833690390E+02  0.49077683952E+02  0.16437812773E+03  0.17280865312E+03  0.00000000000E+00 0. -1.
</event>
<event>
 7    1  0.2394257E-009  0.1384977E+03  0.7561462E-02  0.1215365E+00
          1   -1    0    0  501    0  0.00000000000E+00  0.00000000000E+00  0.57371742918E+03  0.57371742918E+03  0.00000000000E+00 0. -1.
         -1   -1    0    0    0  501 -0.00000000000E+00 -0.00000000000E+00 -0.33900316047E+02  0.33900316047E+02  0.00000000000E+00 0.  1.
         25    2    1    2    0    0  0.94387571514E+01  0.85899769972E+02  0.28865345013E+03  0.32624594762E+03  0.12509094071E+03 0.  0.
          5    1    3    3  502    0  0.60974121203E+02  0.13868703767E+02  0.13516917825E+03  0.14899115258E+03  0.41800000000E+01 0.  1.
         -5    1    3    3    0  502 -0.51535364051E+02  0.72031066205E+02  0.15348427189E+03  0.17725479504E+03  0.41800000000E+01 0.  1.
        -11    1    1    2    0    0 -0.45510650517E+02 -0.18332567532E+02  0.79913783198E+02  0.93773744128E+02  0.00000000000E+00 0.  1.
         11    1    1    2    0    0  0.36071893366E+02 -0.67567202440E+02  0.17124987980E+03  0.18759805348E+03  0.00000000000E+00 0. -1.
</event>
<event>
 7    1  0.2394257E-009  0.8949509E+02  0.7561462E-02  0.1304079E+00
          2   -1    0    0  501    0  0.00000000000E+00  0.00000000000E+00  0.58591709014E+03  0.58591709014E+03  0.00000000000E+00 0. -1.
         -2   -1    0    0    0  501 -0.00000000000E+00 -0.00000000000E+00 -0.24392163707E+02  0.24392163707E+02  0.00000000000E+00 0.  1.
         25    2    1    2    0    0 -0.39414856883E+02  0.28065002666E+02  0.33013649382E+03  0.35634056506E+03  0.12508924188E+03 0.  0.
          5    1    3    3  502    0  0.36099169241E+02  0.19154290948E+02  0.43796208716E+02  0.60046791584E+02  0.41800000000E+01 0. -1.
         -5    1    3    3    0  502 -0.75514026125E+02  0.89107117182E+01  0.28634028510E+03  0.29629377347E+03  0.41800000000E+01 0. -1.
        -11    1    1    2    0    0  0.24897187210E+02 -0.37084428762E+02  0.23258533965E+03  0.23683552311E+03  0.00000000000E+00 0. -1.
         11    1    1    2    0    0  0.14517669674E+02  0.90194260961E+01 -0.11969070329E+01  0.17133165682E+02  0.00000000000E+00 0.  1.
</event>
<event>
 7    1  0.2394257E-009  0.1018222E+03  0.7561462E-02  0.1276510E+00
          1   -1    0    0  501    0  0.00000000000E+00  0.00000000000E+00  0.29015959177E+03  0.29015959177E+03  0.00000000000E+00 0. -1.
         -1   -1    0    0    0  501 -0.00000000000E+00 -0.00000000000E+00 -0.46383489131E+02  0.46383489131E+02  0.00000000000E+00 0.  1.
         25    2    1    2    0    0  0.18106161391E+02 -0.26606685994E+02  0.10242504280E+03  0.16484622904E+03  0.12509053128E+03 0.  0.
          5    1    3    3  502    0 -0.36202792834E+02  0.13318173990E+02  0.87449942454E+02  0.95671211985E+02  0.41800000000E+01 0.  1.
         -5    1    3    3    0  502  0.54308954225E+02 -0.39924859984E+02  0.14975100344E+02  0.69175017051E+02  0.41800000000E+01 0.  1.
        -11    1    1    2    0    0  0.26705788076E+02 -0.19458691476E+02  0.52689082571E+02  0.62193080105E+02  0.00000000000E+00 0.  1.
         11    1    1    2    0    0 -0.44811949467E+02  0.46065377470E+02  0.88661977272E+02  0.10950377176E+03  0.00000000000E+00 0. -1.
</event>
<event>
 7    1  0.2394257E-009  0.1772157E+03  0.7561462E-02  0.1170525E+00
         -1   -1    0    0    0  501 -0.00000000000E+00  0.00000000000E+00  0.30750557491E+02  0.30750557491E+02  0.00000000000E+00 0.  1.
          1   -1    0    0  501    0  0.00000000000E+00 -0.00000000000E+00 -0.12413135932E+04  0.12413135932E+04  0.00000000000E+00 0. -1.
         25    2    1    2    0    0 -0.47850784796E+02 -0.15482116655E+03 -0.60544415250E+03  0.63911591146E+03  0.12508890943E+03 0.  0.
          5    1    3    3  502    0 -0.72485742743E+02 -0.94974518447E+02 -0.24185599101E+03  0.26978905619E+03  0.41800000000E+01 0.  1.
         -5    1    3    3    0  502  0.24634957947E+02 -0.59846648108E+02 -0.36358816149E+03  0.36932685526E+03  0.41800000000E+01 0.  1.
        -11    1    1    2    0    0 -0.24337129484E+01  0.79072124175E+02 -0.41162248811E+03  0.41915557553E+03  0.00000000000E+00 0.  1.
         11    1    1    2    0    0  0.50284497744E+02  0.75749042380E+02 -0.19349639506E+03  0.21379266367E+03  0.00000000000E+00 0. -1.
</event>
<event>
 7    1  0.2394257E-009  0.1415980E+03  0.7561462E-02  0.1211195E+00
          1   -1    0    0  501    0  0.00000000000E+00  0.00000000000E+00  0.18090038942E+03  0.18090038942E+03  0.00000000000E+00 0. -1.
         -1   -1    0    0    0  501 -0.00000000000E+00 -0.00000000000E+00 -0.14403446896E+03  0.14403446896E+03  0.00000000000E+00 0.  1.
         25    2    1    2    0    0  0.50384778678E+02  0.95306598742E+02  0.60606789132E+02  0.17590504277E+03  0.12508967782E+03 0.  0.
          5    1    3    3  502    0  0.91351608602E+02  0.78883823757E+02  0.45851901592E+02  0.12918066157E+03  0.41800000000E+01 0.  1.
         -5    1    3    3    0  502 -0.40966829924E+02  0.16422774985E+02  0.14754887540E+02  0.46724381201E+02  0.41800000000E+01 0.  1.
        -11    1    1    2    0    0 -0.60050188774E+02 -0.82978740702E+02  0.18403549208E+02  0.10406818536E+03  0.00000000000E+00 0. -1.
         11    1    1    2    0    0  0.96654100959E+01 -0.12327858040E+02 -0.42144417884E+02  0.44961630252E+02  0.00000000000E+00 0.  1.
</event>
<event>
 7    1  0.2394257E-009  0.1470708E+03  0.7561462E-02  0.1204119E+00
          2   -1    0    0  501    0  0.00000000000E+00  0.00000000000E+00  0.40077790433E+03  0.40077790433E+03  0.00000000000E+00 0. -1.
         -2   -1    0    0    0  501 -0.00000000000E+00 -0.00000000000E+00 -0.75793403411E+02  0.75793403411E+02  0.00000000000E+00 0.  1.
         25    2    1    2    0    0  0.71900096797E+02  0.11377850506E+03  0.14500433788E+03  0.23407051131E+03  0.12509026392E+03 0.  0.
          5    1    3    3  502    0  0.59851006059E+02  0.69263260739E+02  0.11002500253E+02  0.92293388854E+02  0.41800000000E+01 0.  1.
         -5    1    3    3    0  502  0.12049090738E+02  0.44515244320E+02  0.13400183762E+03  0.14177712245E+03  0.41800000000E+01 0.  1.
        -11    1    1    2    0    0 -0.81216377654E+01 -0.86421169134E+02  0.13255068517E+03  0.15844325045E+03  0.00000000000E+00 0. -1.
         11    1    1    2    0    0 -0.63778459032E+02 -0.27357335925E+02  0.47429477871E+02  0.84057545982E+02  0.00000000000E+00 0.  1.
</event>
<event>
 7    1  0.2394257E-009  0.1311303E+03  0.7561462E-02  0.1225788E+00
          1   -1    0    0  501    0  0.00000000000E+00  0.00000000000E+00  0.11555052701E+03  0.11555052701E+03  0.00000000000E+00 0. -1.
         -1   -1    0    0    0  501 -0.00000000000E+00 -0.00000000000E+00 -0.31941609844E+03  0.31941609844E+03  0.00000000000E+00 0.  1.
         25    2    1    2    0    0  0.39892177436E+02 -0.80190149027E+02  0.41528909021E+02  0.15935502441E+03  0.12509007834E+03 0.  0.
          5    1    3    3  502    0  0.35857443089E+02  0.24645459391E+02 -0.59661008244E+01  0.44116002227E+02  0.41800000000E+01 0. -1.
         -5    1    3    3    0  502  0.40347343476E+01 -0.10483560842E+03  0.47495009845E+02  0.11523902218E+03  0.41800000000E+01 0. -1.
        -11    1    1    2    0    0 -0.19532257779E+02  0.89182353676E+02 -0.23274599953E+03  0.25001140293E+03  0.00000000000E+00 0.  1.
         11    1    1    2    0    0 -0.20359919657E+02 -0.89922046490E+01 -0.12648480923E+02  0.25600198096E+02  0.00000000000E+00 0. -1.
</event>
<event>
 7    1  0.2394257E-009  0.8675409E+02  0.7561462E-02  0.1310908E+00
          2   -1    0    0  501    0  0.00000000000E+00  0.00000000000E+00  0.25020703514E+03  0.25020703514E+03  0.00000000000E+00 0. -1.
         -2   -1    0    0    0  501 -0.00000000000E+00 -0.00000000000E+00 -0.80460803094E+02  0.80460803094E+02  0.00000000000E+00 0.  1.
         25    2    1    2    0    0 -0.84517241092E+02 -0.73353400006E+01  0.41748294114E+02  0.15680562991E+03  0.12509242286E+03 0.  0.
          5    1    3    3  502    0 -0.32874242255E+02 -0.73888246698E+00 -0.44793436530E+02  0.55724196785E+02  0.41800000000E+01 0.  1.
         -5    1    3    3    0  502 -0.51642998837E+02 -0.65964575337E+01  0.86541730643E+02  0.10108143313E+03  0.41800000000E+01 0.  1.
        -11    1    1    2    0    0  0.68607714424E+02 -0.37980117231E+01  0.13638016101E+03  0.15271212030E+03  0.00000000000E+00 0. -1.
         11    1    1    2    0    0  0.15909526668E+02  0.11133351724E+02 -0.83822230735E+01  0.21150088016E+02  0.00000000000E+00 0.  1.
</event>
<event>
 7    1  0.2394257E-009  0.1129721E+03  0.7561462E-02  0.1255163E+00
          3   -1    0    0  501    0  0.00000000000E+00  0.00000000000E+00  0.82566911971E+02  0.82566911971E+02  0.00000000000E+00 0. -1.
         -3   -1    0    0    0  501 -0.00000000000E+00 -0.00000000000E+00 -0.27541080438E+03  0.27541080438E+03  0.00000000000E+00 0.  1.
         25    2    1    2    0    0 -0.91677657577E+02  0.35367988046E+02 -0.66228647472E+02  0.17230593327E+03  0.12508962155E+03 0.  0.
          5    1    3    3  502    0 -0.19018639998E+01 -0.86194473007E+01 -0.71445313410E+02  0.72109757777E+02  0.41800000000E+01 0.  1.
         -5    1    3    3    0  502 -0.89775793577E+02  0.43987435347E+02  0.52166659376E+01  0.10019617550E+03  0.41800000000E+01 0.  1.
        -11    1    1    2    0    0  0.69392931252E+02 -0.53311132106E+02 -0.13016157657E+03  0.15684225110E+03  0.00000000000E+00 0.  1.
         11    1    1    2    0    0  0.22284726325E+02  0.17943144059E+02  0.35463316323E+01  0.28829531980E+02  0.00000000000E+00 0. -1.
</event>
<event>
 7    1  0.2394257E-009  0.1467290E+03  0.7561462E-02  0.1204551E+00
          2   -1    0    0  501    0  0.00000000000E+00  0.00000000000E+00  0.40610882497E+03  0.40610882497E+03  0.00000000000E+00 0. -1.
         -2   -1    0    0    0  501 -0.00000000000E+00 -0.00000000000E+00 -0.67216981878E+02  0.67216981878E+02  0.00000000000E+00 0.  1.
         25    2    1    2    0    0  0.66689026513E+02  0.96525446087E+02  0.12324253768E+03  0.21117779728E+03  0.12507098373E+03 0.  0.
          5    1    3    3  502    0 -0.33993143050E+02  0.48862789305E+02  0.49404275117E+02  0.77468450048E+02  0.41800000000E+01 0. -1.
         -5    1    3    3    0  502  0.10068216956E+03  0.47662656782E+02  0.73838262559E+02  0.13370934723E+03  0.41800000000E+01 0. -1.
        -11    1    1    2    0    0 -0.24398102623E+02 -0.10711388615E+02  0.45908622527E+00  0.26649803335E+02  0.00000000000E+00 0.  1.
         11    1    1    2    0    0 -0.42290923890E+02 -0.85814057472E+02  0.21519021919E+03  0.23549820623E+03  0.00000000000E+00 0. -1.
</event>
<event>
 7    1  0.2394257E-009  0.8438561E+02  0.7561462E-02  0.1317047E+00
         -1   -1    0    0    0  501 -0.00000000000E+00  0.00000000000E+00  0.91650396145E+02  0.91650396145E+02  0.00000000000E+00 0.  1.
          1   -1    0    0  501    0  0.00000000000E+00 -0.00000000000E+00 -0.30349656763E+03  0.30349656763E+03  0.00000000000E+00 0. -1.
         25    2    1    2    0    0  0.48468201277E+02 -0.13026470979E+01 -0.25074050462E+03  0.28437507485E+03  0.12509004401E+03 0.  0.
          5    1    3    3  502    0 -0.32103616799E+02  0.16178646722E+02 -0.24928720102E+02  0.43946607460E+02  0.41800000000E+01 0.  1.
         -5    1    3    3    0  502  0.80571818076E+02 -0.17481293820E+02 -0.22581178452E+03  0.24042846739E+03  0.41800000000E+01 0.  1.
        -11    1    1    2    0    0 -0.14987208439E+02  0.61439162072E+01  0.65663972357E+02  0.67632251100E+02  0.00000000000E+00 0.  1.
         11    1    1    2    0    0 -0.33480992838E+02 -0.48412691094E+01 -0.26769639217E+02  0.43139637826E+02  0.00000000000E+00 0. -1.
</event>
<event>
 7    1  0.2394257E-009  0.1500320E+03  0.7561462E-02  0.1200434E+00
         -2   -1    0    0    0  501 -0.00000000000E+00  0.00000000000E+00  0.75015126488E+02  0.75015126488E+02  0.00000000000E+00 0.  1.
          2   -1    0    0  501    0  0.00000000000E+00 -0.00000000000E+00 -0.46347253179E+03  0.46347253179E+03  0.00000000000E+00 0. -1.
         25    2    1    2    0    0  0.14032214804E+03  0.30913868267E+02 -0.15745312373E+03  0.24715358434E+03  0.12508971020E+03 0.  0.
          5    1    3    3  502    0  0.63067095019E+02 -0.23459036728E+01 -0.14978447323E+03  0.16259096703E+03  0.41800000000E+01 0. -1.
         -5    1    3    3    0  502  0.77255053017E+02  0.33259771940E+02 -0.76686505029E+01  0.84562617312E+02  0.41800000000E+01 0. -1.
        -11    1    1    2    0    0 -0.44763560933E+02  0.14153698172E+02 -0.12432136788E+02  0.48566053828E+02  0.00000000000E+00 0.  1.
         11    1    1    2    0    0 -0.95558587103E+02 -0.45067566439E+02 -0.21857214478E+03  0.24276802011E+03  0.00000000000E+00 0. -1.
</event>
<event>
 7    1  0.2394257E-009  0.9918319E+02  0.7561462E-02  0.1282023E+00
          1   -1    0    0  501    0  0.00000000000E+00  0.00000000000E+00  0.67387975629E+03  0.67387975629E+03  0.00000000000E+00 0. -1.
         -1   -1    0    0    0  501 -0.00000000000E+00 -0.00000000000E+00 -0.23311094934E+02  0.23311094934E+02  0.00000000000E+00 0.  1.
         25    2    1    2    0    0  0.59713620939E+02  0.15231083275E+02  0.32777809668E+03  0.35620827739E+03  0.12509258089E+03 0.  0.
          5    1    3    3  502    0  0.74814788570E+02 -0.51261629875E+01  0.32095874150E+03  0.32962936198E+03  0.41800000000E+01 0.  1.
         -5    1    3    3    0  502 -0.15101167630E+02  0.20357246262E+02  0.68193551828E+01  0.26578915408E+02  0.41800000000E+01 0.  1.
        -11    1    1    2    0    0 -0.39805838311E+02 -0.46057130931E+02  0.26943450552E+03  0.27622584390E+03  0.00000000000E+00 0. -1.
         11    1    1    2    0    0 -0.19907782629E+02  0.30826047656E+02  0.53356059159E+02  0.64756729938E+02  0.00000000000E+00 0.  1.
</event>
<event>
 7    1  0.2394257E-009  0.1122568E+03  0.7561462E-02  0.1256447E+00
         -2   -1    0    0    0  501 -0.00000000000E+00  0.00000000000E+00  0.89202269678E+02  0.89202269678E+02  0.00000000000E+00 0.  1.
          2   -1    0    0  501    0  0.00000000000E+00 -0.00000000000E+00 -0.15559953858E+03  0.15559953858E+03  0.00000000000E+00 0. -1.
         25    2    1    2    0    0 -0.15034636075E+02 -0.40976452065E+02 -0.21610161175E+02  0.13424390406E+03  0.12509722941E+03 0.  0.
          5    1    3    3  502    0 -0.27980704466E+02  0.36716889897E+02  0.12953102504E+02  0.48128007341E+02  0.41800000000E+01 0. -1.
         -5    1    3    3    0  502  0.12946068391E+02 -0.77693341962E+02 -0.34563263679E+02  0.86115896721E+02  0.41800000000E+01 0. -1.
        -11    1    1    2    0    0  0.51947478686E+02  0.14737207053E+02 -0.13958861040E+02  0.55772534594E+02  0.00000000000E+00 0.  1.
         11    1    1    2    0    0 -0.36912842611E+02  0.26239245012E+02 -0.30828246684E+02  0.54785369598E+02  0.00000000000E+00 0. -1.
</event>
<event>
 7    1  0.2394257E-009  0.1632331E+03  0.7561462E-02  0.1185094E+00
         -2   -1    0    0    0  501 -0.00000000000E+00  0.00000000000E+00  0.67543781572E+03  0.67543781572E+03  0.00000000000E+00 0.  1.
          2   -1    0    0  501    0  0.00000000000E+00 -0.00000000000E+00 -0.50471466484E+02  0.50471466484E+02  0.00000000000E+00 0. -1.
         25    2    1    2    0    0 -0.14750282138E+03  0.21788232731E+02  0.31180113048E+03  0.36755699950E+03  0.12508554477E+03 0.  0.
          5    1    3    3  502    0 -0.67768506081E+02 -0.36182063625E+02  0.21893218129E+03  0.23205707175E+03  0.41800000000E+01 0. -1.
         -5    1    3    3    0  502 -0.79734315300E+02  0.57970296355E+02  0.92868949187E+02  0.13549992775E+03  0.41800000000E+01 0. -1.
        -11    1    1    2    0    0  0.53605326422E+02 -0.19160180747E+02  0.21530951711E+03  0.22270795160E+03  0.00000000000E+00 0.  1.
         11    1    1    2    0    0  0.93897494959E+02 -0.26280519836E+01  0.97855701644E+02  0.13564433111E+03  0.00000000000E+00 0. -1.
</event>
<event>
 7    1  0.2394257E-009  0.1080185E+03  0.7561462E-02  0.1264284E+00
         -1   -1    0    0    0  501 -0.00000000000E+00  0.00000000000E+00  0.17386605119E+02  0.17386605119E+02  0.00000000000E+00 0.  1.
          1   -1    0    0  501    0  0.00000000000E+00 -0.00000000000E+00 -0.73312469529E+03  0.73312469529E+03  0.00000000000E+00 0. -1.
         25    2    1    2    0    0  0.13242870053E+02 -0.21545186530E+02 -0.35966697906E+03  0.38163849155E+03  0.12509210103E+03 0.  0.
          5    1    3    3  502    0  0.11600491332E+02  0.50536597802E+02 -0.10903187059E+03  0.12080538200E+03  0.41800000000E+01 0. -1.
         -5    1    3    3    0  502  0.16423787208E+01 -0.72081784332E+02 -0.25063510847E+03  0.26083310955E+03  0.41800000000E+01 0. -1.
        -11    1    1    2    0    0 -0.29641854729E+02  0.50478830882E+02 -0.27654122204E+03  0.28266906341E+03  0.00000000000E+00 0. -1.
         11    1    1    2    0    0  0.16398984676E+02 -0.28933644351E+02 -0.79529889066E+02  0.86203745445E+02  0.00000000000E+00 0.  1.
</event>
<event>
 7    1  0.2394257E-009  0.1161669E+03  0.7561462E-02  0.1249558E+00
          2   -1    0    0  501    0  0.00000000000E+00  0.00000000000E+00  0.25654359923E+03  0.25654359923E+03  0.00000000000E+00 0. -1.
         -2   -1    0    0    0  501 -0.00000000000E+00 -0.00000000000E+00 -0.76882426802E+02  0.76882426802E+02  0.00000000000E+00 0.  1.
         25    2    1    2    0    0 -0.52550846794E+02  0.69250393292E+02  0.12445830823E+03  0.19670930091E+03  0.12508984814E+03 0.  0.
          5    1    3    3  502    0 -0.30930155941E+02 -0.28410030179E+02  0.72566403300E+02  0.83947362372E+02  0.41800000000E+01 0. -1.
         -5    1    3    3    0  502 -0.21620690853E+02  0.97660423471E+02  0.51891904931E+02  0.11276193854E+03  0.41800000000E+01 0. -1.
        -11    1    1    2    0    0  0.32397449125E+02 -0.23497891521E+02 -0.21292175479E+02  0.45333236730E+02  0.00000000000E+00 0. -1.
         11    1    1    2    0    0  0.20153397669E+02 -0.45752501771E+02  0.76495039677E+02  0.91383488394E+02  0.00000000000E+00 0.  1.
</event>
<event>
 7    1  0.2394257E-009  0.1155835E+03  0.7561462E-02  0.1250566E+00
         -1   -1    0    0    0  501 -0.00000000000E+00  0.00000000000E+00  0.10137087788E+02  0.10137087788E+02  0.00000000000E+00 0.  1.
          1   -1    0    0  501    0  0.00000000000E+00 -0.00000000000E+00 -0.13534697623E+04  0.13534697623E+04  0.00000000000E+00 0. -1.
         25    2    1    2    0    0  0.29398950586E+01 -0.41641392324E+02 -0.85247687810E+03  0.86261660651E+03  0.12509170072E+03 0.  0.
          5    1    3    3  502    0 -0.18552577161E+02 -0.82757044480E+02 -0.51859075572E+03  0.52549668966E+03  0.41800000000E+01 0. -1.
         -5    1    3    3    0  502  0.21492472220E+02  0.41115652155E+02 -0.33388612238E+03  0.33711991685E+03  0.41800000000E+01 0. -1.
        -11    1    1    2    0    0 -0.46674823222E+02  0.24319150179E+02 -0.28607592295E+03  0.29087693941E+03  0.00000000000E+00 0.  1.
         11    1    1    2    0    0  0.43734928164E+02  0.17322242145E+02 -0.20477987343E+03  0.21011330414E+03  0.00000000000E+00 0. -1.
</event>
<event>
 7    1  0.2394257E-009  0.1108017E+03  0.7561462E-02  0.1259092E+00
          2   -1    0    0  501    0  0.00000000000E+00  0.00000000000E+00  0.26063088029E+02  0.26063088029E+02  0.00000000000E+00 0. -1.
         -2   -1    0    0    0  501 -0.00000000000E+00 -0.00000000000E+00 -0.71278232335E+03  0.71278232335E+03  0.00000000000E+00 0.  1.
         25    2    1    2    0    0  0.45226587692E+02 -0.12971164282E+02 -0.56498094526E+03  0.58057188118E+03  0.12508615178E+03 0.  0.
          5    1    3    3  502    0  0.80930576520E+02 -0.24388966372E+02 -0.48263916111E+03  0.49000266544E+03  0.41800000000E+01 0. -1.
         -5    1    3    3    0  502 -0.35703988828E+02  0.11417802090E+02 -0.82341784152E+02  0.90569215742E+02  0.41800000000E+01 0. -1.
        -11    1    1    2    0    0 -0.44375335528E+02 -0.31727046424E+02 -0.81829460322E+02  0.98345495345E+02  0.00000000000E+00 0. -1.
         11    1    1    2    0    0 -0.85125216348E+00  0.44698210706E+02 -0.39908829732E+02  0.59928034851E+02  0.00000000000E+00 0.  1.
</event>
<event>
 7    1  0.2394257E-009  0.8833727E+02  0.7561462E-02  0.1306929E+00
          1   -1    0    0  501    0  0.00000000000E+00  0.00000000000E+00  0.27353998271E+02  0.27353998271E+02  0.00000000000E+00 0. -1.
         -1   -1    0    0    0  501 -0.00000000000E+00 -0.00000000000E+00 -0.76228430347E+03  0.76228430347E+03  0.00000000000E+00 0.  1.
         25    2    1    2    0    0  0.17653799821E+02  0.51883608979E+02 -0.18744560860E+03  0.23191949772E+03  0.12508889523E+03 0.  0.
          5    1    3    3  502    0 -0.16061003832E+01  0.50455568975E+02 -0.20143665568E+03  0.20770783002E+03  0.41800000000E+01 0.  1.
         -5    1    3    3    0  502  0.19259900204E+02  0.14280400036E+01  0.13991047083E+02  0.24211667696E+02  0.41800000000E+01 0.  1.
        -11    1    1    2    0    0 -0.34594939801E+02  0.14675832750E+02 -0.18270240855E+03  0.18652710264E+03  0.00000000000E+00 0. -1.
         11    1    1    2    0    0  0.16941139980E+02 -0.66559441729E+02 -0.36478228805E+03  0.37119170139E+03  0.00000000000E+00 0.  1.
</event>
<event>
 7    1  0.2394257E-009  0.1400224E+03  0.7561462E-02  0.1213299E+00
         -2   -1    0    0    0  501 -0.00000000000E+00  0.00000000000E+00  0.97122238778E+02  0.97122238778E+02  0.00000000000E+00 0. -1.
          2   -1    0    0  501    0  0.00000000000E+00 -0.00000000000E+00 -0.22807942435E+03  0.22807942435E+03  0.00000000000E+00 0.  1.
         25    2    1    2    0    0  0.64480925706E+02 -0.76461653658E+02 -0.53021989036E+02  0.16870919858E+03  0.12508912065E+03 0.  0.
          5    1    3    3  502    0  0.83420861866E+02 -0.21764743209E+02 -0.66702461536E+02  0.10908453152E+03  0.41800000000E+01 0.  1.
         -5    1    3    3    0  502 -0.18939936160E+02 -0.54696910449E+02  0.13680472499E+02  0.59624667062E+02  0.41800000000E+01 0.  1.
        -11    1    1    2    0    0 -0.73884168156E+02  0.17419492360E+02 -0.44512020442E+02  0.87997891918E+02  0.00000000000E+00 0. -1.
         11    1    1    2    0    0  0.94032424501E+01  0.59042161298E+02 -0.33423176089E+02  0.68494572626E+02  0.00000000000E+00 0.  1.
</event>
<event>
 7    1  0.2394257E-009  0.1098785E+03  0.7561462E-02  0.1260795E+00
          2   -1    0    0  501    0  0.00000000000E+00  0.00000000000E+00  0.11717798111E+03  0.11717798111E+03  0.00000000000E+00 0. -1.
         -2   -1    0    0    0  501 -0.00000000000E+00 -0.00000000000E+00 -0.17823378952E+03  0.17823378952E+03  0.00000000000E+00 0.  1.
         25    2    1    2    0    0 -0.24348745288E+02  0.90564896341E+02 -0.29565487257E+02  0.15911328432E+03  0.12509219545E+03 0.  0.
          5    1    3    3  502    0  0.21137566501E+02  0.82631646418E+01 -0.56646858544E+02  0.61167112000E+02  0.41800000000E+01 0.  1.
         -5    1    3    3    0  502 -0.45486311789E+02  0.82301731700E+02  0.27081371287E+02  0.97946172318E+02  0.41800000000E+01 0.  1.
        -11    1    1    2    0    0  0.36055188053E+02 -0.62690441873E+02 -0.60582614301E+02  0.94341513891E+02  0.00000000000E+00 0.  1.
         11    1    1    2    0    0 -0.11706442765E+02 -0.27874454468E+02  0.29092293148E+02  0.41956972421E+02  0.00000000000E+00 0. -1.
</event>
<event>
 7    1  0.2785677E-009  0.1508062E+03  0.7561462E-02  0.1199486E+00
          2   -1    0    0  501    0  0.00000000000E+00  0.00000000000E+00  0.30675791803E+03  0.30675791803E+03  0.00000000000E+00 0. -1.
         -2   -1    0    0    0  501 -0.00000000000E+00 -0.00000000000E+00 -0.97847002687E+02  0.97847002687E+02  0.00000000000E+00 0.  1.
         25    2    1    2    0    0  0.56794248907E+02  0.11312998497E+03  0.56835654988E+02  0.18681986658E+03  0.12508953059E+03 0.  0.
          5    1    3    3  502    0  0.29915047917E+02 -0.29870677629E+00 -0.29094926395E+02  0.41940272526E+02  0.41800000000E+01 0. -1.
         -5    1    3    3    0  502  0.26879200990E+02  0.11342869174E+03  0.85930581382E+02  0.14487959405E+03  0.41800000000E+01 0. -1.
        -11    1    1    2    0    0 -0.45890584599E+02 -0.50905492435E+01  0.33795522958E+02  0.57218850202E+02  0.00000000000E+00 0.  1.
         11    1    1    2    0    0 -0.10903664308E+02 -0.10803943572E+03  0.11827973740E+03  0.16056620393E+03  0.00000000000E+00 0. -1.
</event>
<event>
 7    1  0.2394257E-009  0.2619390E+03  0.7561462E-02  0.1105984E+00
         -1   -1    0    0    0  501 -0.00000000000E+00  0.00000000000E+00  0.15848648653E+04  0.15848648653E+04  0.00000000000E+00 0.  1.
          1   -1    0    0  501    0  0.00000000000E+00 -0.00000000000E+00 -0.48997394621E+02  0.48997394621E+02  0.00000000000E+00 0. -1.
         25    2    1    2    0    0  0.23723201900E+03  0.85347528745E+02  0.65313381925E+03  0.71119252658E+03  0.12509113687E+03 0.  0.
          5    1    3    3  502    0  0.10992953751E+03  0.64332613471E+02  0.17854978763E+03  0.21936428021E+03  0.41800000000E+01 0.  1.
         -5    1    3    3    0  502  0.12730248149E+03  0.21014915275E+02  0.47458403162E+03  0.49182824637E+03  0.41800000000E+01 0.  1.
        -11    1    1    2    0    0 -0.12048822356E+03 -0.90185673098E+02  0.53912611680E+03  0.55973907981E+03  0.00000000000E+00 0.  1.
         11    1    1    2    0    0 -0.11674379544E+03  0.48381443530E+01  0.34360753463E+03  0.36293065353E+03  0.00000000000E+00 0. -1.
</event>
<event>
 7    1  0.2394257E-009  0.1244575E+03  0.7561462E-02  0.1235920E+00
          2   -1    0    0  501    0  0.00000000000E+00  0.00000000000E+00  0.21673886226E+02  0.21673886226E+02  0.00000000000E+00 0. -1.
         -2   -1    0    0    0  501 -0.00000000000E+00 -0.00000000000E+00 -0.79574274355E+03  0.79574274355E+03  0.00000000000E+00 0.  1.
         25    2    1    2    0    0 -0.35570515718E+02 -0.57373631430E+02 -0.52560265225E+03  0.54448460555E+03  0.12509333498E+03 0.  0.
          5    1    3    3  502    0 -0.23156217488E+02  0.36734817252E+02 -0.22614994130E+03  0.23031918191E+03  0.41800000000E+01 0. -1.
         -5    1    3    3    0  502 -0.12414298230E+02 -0.94108448681E+02 -0.29945271094E+03  0.31416542363E+03  0.41800000000E+01 0. -1.
        -11    1    1    2    0    0 -0.24119614081E+02  0.42327155818E+02 -0.13974948631E+03  0.14799750953E+03  0.00000000000E+00 0. -1.
         11    1    1    2    0    0  0.59690129799E+02  0.15046475612E+02 -0.10871671876E+03  0.12493451470E+03  0.00000000000E+00 0.  1.
</event>
<event>
 7    1  0.2394257E-009  0.9458648E+02  0.7561462E-02  0.1292110E+00
          1   -1    0    0  501    0  0.00000000000E+00  0.00000000000E+00  0.17098446959E+03  0.17098446959E+03  0.00000000000E+00 0. -1.
         -1   -1    0    0    0  501 -0.00000000000E+00 -0.00000000000E+00 -0.97624965594E+02  0.97624965594E+02  0.00000000000E+00 0.  1.
         25    2    1    2    0    0 -0.46041707207E+02  0.51602430933E+02  0.32350455472E+02  0.14654050626E+03  0.12507964792E+03 0.  0.
          5    1    3    3  502    0 -0.47168646226E+02  0.15204963959E+02 -0.41056125118E+02  0.64491471727E+02  0.41800000000E+01 0. -1.
         -5    1    3    3    0  502  0.11269390189E+01  0.36397466974E+02  0.73406580591E+02  0.82049034532E+02  0.41800000000E+01 0. -1.
        -11    1    1    2    0    0  0.46292156106E+01  0.19749698103E+02 -0.12414766864E+02  0.23782486174E+02  0.00000000000E+00 0.  1.
         11    1    1    2    0    0  0.41412491597E+02 -0.71352129036E+02  0.53423815388E+02  0.98286442752E+02  0.00000000000E+00 0. -1.
</event>
<event>
 7    1  0.2394257E-009  0.1186370E+03  0.7561462E-02  0.1245363E+00
          3   -1    0    0  501    0  0.00000000000E+00  0.00000000000E+00  0.25565720785E+02  0.25565720785E+02  0.00000000000E+00 0. -1.
         -3   -1    0    0    0  501 -0.00000000000E+00 -0.00000000000E+00 -0.77700125558E+03  0.77700125558E+03  0.00000000000E+00 0.  1.
         25    2    1    2    0    0 -0.42983554046E+02 -0.65106479694E+02 -0.53489423581E+03  0.55483855970E+03  0.12509014434E+03 0.  0.
          5    1    3    3  502    0  0.28813462305E+02 -0.16427850130E+02 -0.38865337762E+02  0.51264771035E+02  0.41800000000E+01 0. -1.
         -5    1    3    3    0  502 -0.71797016351E+02 -0.48678629564E+02 -0.49602889804E+03  0.50357378866E+03  0.41800000000E+01 0. -1.
        -11    1    1    2    0    0  0.84422192580E+01 -0.21855393551E+02 -0.70417523049E+02  0.74212915626E+02  0.00000000000E+00 0. -1.
         11    1    1    2    0    0  0.34541334788E+02  0.86961873245E+02 -0.14612377595E+03  0.17351550105E+03  0.00000000000E+00 0.  1.
</event>
<event>
 7    1  0.2394257E-009  0.1117312E+03  0.7561462E-02  0.1257397E+00
         -3   -1    0    0    0  501 -0.00000000000E+00  0.00000000000E+00  0.15110112232E+03  0.15110112232E+03  0.00000000000E+00 0.  1.
          3   -1    0    0  501    0  0.00000000000E+00 -0.00000000000E+00 -0.11005090250E+03  0.11005090250E+03  0.00000000000E+00 0. -1.
         25    2    1    2    0    0  0.18672796983E+02  0.51345004807E+02 -0.16822549641E+02  0.13751700765E+03  0.12507176480E+03 0.  0.
          5    1    3    3  502    0 -0.29597975966E+02  0.76064247908E+02 -0.51715637347E+01  0.81890338029E+02  0.41800000000E+01 0.  1.
         -5    1    3    3    0  502  0.48270772949E+02 -0.24719243100E+02 -0.11650985907E+02  0.55626669621E+02  0.41800000000E+01 0.  1.
        -11    1    1    2    0    0 -0.32212533723E+02  0.20306508006E+01  0.60429948896E+02  0.68509485439E+02  0.00000000000E+00 0.  1.
         11    1    1    2    0    0  0.13539736740E+02 -0.53375655608E+02 -0.25571794365E+01  0.55125531737E+02  0.00000000000E+00 0. -1.
</event>
<event>
 7    1  0.2394257E-009  0.2073870E+03  0.7561462E-02  0.1143652E+00
         -1   -1    0    0    0  501 -0.00000000000E+00  0.00000000000E+00  0.26115470565E+03  0.26115470565E+03  0.00000000000E+00 0.  1.
          1   -1    0    0  501    0  0.00000000000E+00 -0.00000000000E+00 -0.17501956486E+03  0.17501956486E+03  0.00000000000E+00 0. -1.
         25    2    1    2    0    0  0.15439752793E+03 -0.96682750547E+02  0.23136734827E+02  0.22219112190E+03  0.12508970888E+03 0.  0.
          5    1    3    3  502    0  0.16903350000E+03 -0.58918535368E+02  0.97153685433E+01  0.17931976667E+03  0.41800000000E+01 0. -1.
         -5    1    3    3    0  502 -0.14635972066E+02 -0.37764215179E+02  0.13421366284E+02  0.42871355231E+02  0.41800000000E+01 0. -1.
        -11    1    1    2    0    0 -0.34483583612E+02 -0.84751447692E+01 -0.12340489547E+02  0.37592995356E+02  0.00000000000E+00 0. -1.
         11    1    1    2    0    0 -0.11991394432E+03  0.10515789532E+03  0.75338895506E+02  0.17639015326E+03  0.00000000000E+00 0.  1.
</event>
<event>
 7    1  0.2394257E-009  0.1039317E+03  0.7561462E-02  0.1272239E+00
         -2   -1    0    0    0  501 -0.00000000000E+00  0.00000000000E+00  0.54016970853E+02  0.54016970853E+02  0.00000000000E+00 0.  1.
          2   -1    0    0  501    0  0.00000000000E+00 -0.00000000000E+00 -0.39866190512E+03  0.39866190512E+03  0.00000000000E+00 0. -1.
         25    2    1    2    0    0  0.42076282848E+02 -0.90045148115E+02 -0.17321387239E+03  0.23564725866E+03  0.12509213663E+03 0.  0.
          5    1    3    3  502    0  0.83484995401E+01 -0.61724359814E+02 -0.60389348607E+01  0.62717901538E+02  0.41800000000E+01 0. -1.
         -5    1    3    3    0  502  0.33727783308E+02 -0.28320788301E+02 -0.16717493753E+03  0.17292935712E+03  0.41800000000E+01 0. -1.
        -11    1    1    2    0    0 -0.39520016825E+02  0.65348954284E+02 -0.45970856298E+02  0.89138303689E+02  0.00000000000E+00 0. -1.
         11    1    1    2    0    0 -0.25562660226E+01  0.24696193831E+02 -0.12546020558E+03  0.12789331363E+03  0.00000000000E+00 0.  1.
</event>
<event>
 7    1  0.2394257E-009  0.1501168E+03  0.7561462E-02  0.1200330E+00
         -1   -1    0    0    0  501 -0.00000000000E+00  0.00000000000E+00  0.86436023157E+02  0.86436023157E+02  0.00000000000E+00 0.  1.
          1   -1    0    0  501    0  0.00000000000E+00 -0.00000000000E+00 -0.28535318376E+03  0.28535318376E+03  0.00000000000E+00 0. -1.
         25    2    1    2    0    0 -0.45637565664E+02 -0.10372627913E+03 -0.11835796918E+03  0.20614650340E+03  0.12508334667E+03 0.  0.
          5    1    3    3  502    0 -0.17732031103E+02  0.26402640431E+02 -0.76393530182E+01  0.32975088526E+02  0.41800000000E+01 0. -1.
         -5    1    3    3    0  502 -0.27905534560E+02 -0.13012891956E+03 -0.11071861616E+03  0.17317141487E+03  0.41800000000E+01 0. -1.
        -11    1    1    2    0    0  0.65972961905E+02  0.76453505074E+02 -0.31195188967E+02  0.10569157940E+03  0.00000000000E+00 0. -1.
         11    1    1    2    0    0 -0.20335396241E+02  0.27272774053E+02 -0.49364002457E+02  0.59951124121E+02  0.00000000000E+00 0.  1.
</event>
<event>
 7    1  0.2394257E-009  0.4946802E+02  0.7561462E-02  0.1448232E+00
         -1   -1    0    0    0  501 -0.00000000000E+00  0.00000000000E+00  0.18789021844E+03  0.18789021844E+03  0.00000000000E+00 0.  1.
          1   -1    0    0  501    0  0.00000000000E+00 -0.00000000000E+00 -0.66725572944E+02  0.66725572944E+02  0.00000000000E+00 0. -1.
         25    2    1    2    0    0 -0.25483783229E+02  0.99928000173E+01  0.84706804819E+02  0.15353225679E+03  0.12509049457E+03 0.  0.
          5    1    3    3  502    0 -0.32019361559E+02 -0.10439727712E+02  0.11288253034E+03  0.11787351477E+03  0.41800000000E+01 0. -1.
         -5    1    3    3    0  502  0.65355783299E+01  0.20432527729E+02 -0.28175725519E+02  0.35658742014E+02  0.41800000000E+01 0. -1.
        -11    1    1    2    0    0  0.27567025191E+02  0.49913878805E+01  0.63886674799E+02  0.69759315132E+02  0.00000000000E+00 0.  1.
         11    1    1    2    0    0 -0.20832419620E+01 -0.14984187898E+02 -0.27428834120E+02  0.31324219467E+02  0.00000000000E+00 0. -1.
</event>
<event>
 7    1  0.2394257E-009  0.2078082E+03  0.7561462E-02  0.1143313E+00
         -2   -1    0    0    0  501 -0.00000000000E+00  0.00000000000E+00  0.70666712804E+02  0.70666712804E+02  0.00000000000E+00 0.  1.
          2   -1    0    0  501    0  0.00000000000E+00 -0.00000000000E+00 -0.80711938137E+03  0.80711938137E+03  0.00000000000E+00 0. -1.
         25    2    1    2    0    0 -0.20605121768E+03 -0.10787072798E+02 -0.47594128075E+03  0.53361121780E+03  0.12508942319E+03 0.  0.
          5    1    3    3  502    0 -0.87363052916E+02  0.11800693537E+02 -0.78242969953E+02  0.11794487751E+03  0.41800000000E+01 0.  1.
         -5    1    3    3    0  502 -0.11868816476E+03 -0.22587766335E+02 -0.39769831079E+03  0.41566634029E+03  0.41800000000E+01 0.  1.
        -11    1    1    2    0    0  0.16272600140E+03  0.54458986714E+01 -0.13570935613E+03  0.21195857776E+03  0.00000000000E+00 0.  1.
         11    1    1    2    0    0  0.43325216273E+02  0.53411741266E+01 -0.12480203170E+03  0.13221629862E+03  0.00000000000E+00 0. -1.
</event>
<event>
 7    1  0.2394257E-009  0.1165499E+03  0.7561462E-02  0.1248900E+00
         -1   -1    0    0    0  501 -0.00000000000E+00  0.00000000000E+00  0.17365397337E+03  0.17365397337E+03  0.00000000000E+00 0.  1.
          1   -1    0    0  501    0  0.00000000000E+00 -0.00000000000E+00 -0.12552470412E+03  0.12552470412E+03  0.00000000000E+00 0. -1.
         25    2    1    2    0    0  0.68825706544E+00 -0.69316804498E+02  0.10003698270E+03  0.17452879375E+03  0.12509040273E+03 0.  0.
          5    1    3    3  502    0  0.14383249870E+02 -0.99796066198E+02  0.98193501304E+02  0.14080329827E+03  0.41800000000E+01 0.  1.
         -5    1    3    3    0  502 -0.13694992804E+02  0.30479261700E+02  0.18434813968E+01  0.33725495480E+02  0.41800000000E+01 0.  1.
        -11    1    1    2    0    0  0.11774433182E+02  0.80746556035E+02 -0.13533783065E+02  0.82715215483E+02  0.00000000000E+00 0.  1.
         11    1    1    2    0    0 -0.12462690248E+02 -0.11429751537E+02 -0.38373930388E+02  0.41934668257E+02  0.00000000000E+00 0. -1.
</event>
<event>
 7    1  0.2394257E-009  0.1447182E+03  0.7561462E-02  0.1207118E+00
          1   -1    0    0  501    0  0.00000000000E+00  0.00000000000E+00  0.12361652742E+03  0.12361652742E+03  0.00000000000E+00 0. -1.
         -1   -1    0    0    0  501 -0.00000000000E+00 -0.00000000000E+00 -0.26263797999E+03  0.26263797999E+03  0.00000000000E+00 0.  1.
         25    2    1    2    0    0 -0.11294129658E+03  0.61010376114E+02 -0.14608060310E+03  0.23122563264E+03  0.12509095939E+03 0.  0.
          5    1    3    3  502    0 -0.40717129808E+02  0.63645596947E+00 -0.12915878148E+03  0.13549078555E+03  0.41800000000E+01 0.  1.
         -5    1    3    3    0  502 -0.72224166771E+02  0.60373920145E+02 -0.16921821620E+02  0.95734847085E+02  0.41800000000E+01 0.  1.
        -11    1    1    2    0    0 -0.23541404352E+01 -0.36278357905E+02  0.74491852253E+01  0.37109993128E+02  0.00000000000E+00 0. -1.
         11    1    1    2    0    0  0.11529543701E+03 -0.24732018209E+02 -0.39003469538E+00  0.11791888164E+03  0.00000000000E+00 0.  1.
</event>
<event>
 7    1  0.2394257E-009  0.1333997E+03  0.7561462E-02  0.1222497E+00
          1   -1    0    0  501    0  0.00000000000E+00  0.00000000000E+00  0.14174817400E+04  0.14174817400E+04  0.00000000000E+00 0. -1.
         -1   -1    0    0    0  501 -0.00000000000E+00 -0.00000000000E+00 -0.24775905850E+02  0.24775905850E+02  0.00000000000E+00 0.  1.
         25    2    1    2    0    0  0.11575555985E+03  0.55623613672E+02  0.10528605700E+04  0.10680153439E+04  0.12509220164E+03 0.  0.
          5    1    3    3  502    0  0.45069350837E+02  0.24475225753E+02  0.10426760654E+03  0.11627333845E+03  0.41800000000E+01 0. -1.
         -5    1    3    3    0  502  0.70686209017E+02  0.31148387919E+02  0.94859296342E+03  0.95174200541E+03  0.41800000000E+01 0. -1.
        -11    1    1    2    0    0 -0.51297529608E+02 -0.52576023536E+02  0.89859266034E+02  0.11606189076E+03  0.00000000000E+00 0.  1.
         11    1    1    2    0    0 -0.64458030246E+02 -0.30475901364E+01  0.24998599817E+03  0.25818041124E+03  0.00000000000E+00 0. -1.
</event>
<event>
 7    1  0.2394257E-009  0.1412000E+03  0.7561462E-02  0.1211723E+00
         -2   -1    0    0    0  501 -0.00000000000E+00  0.00000000000E+00  0.13970369194E+02  0.13970369194E+02  0.00000000000E+00 0.  1.
          2   -1    0    0  501    0  0.00000000000E+00 -0.00000000000E+00 -0.25613891565E+04  0.25613891565E+04  0.00000000000E+00 0. -1.
         25    2    1    2    0    0 -0.87667573895E+02  0.31075628041E+02 -0.21747619498E+04  0.21803413716E+04  0.12509060820E+03 0.  0.
          5    1    3    3  502    0 -0.95394433319E+02 -0.23187489651E+02 -0.11919259257E+04  0.11959693316E+04  0.41800000000E+01 0. -1.
         -5    1    3    3    0  502  0.77268594237E+01  0.54263117691E+02 -0.98283602411E+03  0.98437203992E+03  0.41800000000E+01 0. -1.
        -11    1    1    2    0    0 -0.16052975027E+02  0.84884728921E+01 -0.79484756713E+02  0.81532685034E+02  0.00000000000E+00 0. -1.
         11    1    1    2    0    0  0.10372054892E+03 -0.39564100933E+02 -0.29317208078E+03  0.31348546905E+03  0.00000000000E+00 0.  1.
</event>
<event>
 7    1  0.2394257E-009  0.1099222E+03  0.7561462E-02  0.1260714E+00
         -1   -1    0    0    0  501 -0.00000000000E+00  0.00000000000E+00  0.16724833029E+03  0.16724833029E+03  0.00000000000E+00 0.  1.
          1   -1    0    0  501    0  0.00000000000E+00 -0.00000000000E+00 -0.96650532117E+02  0.96650532117E+02  0.00000000000E+00 0. -1.
         25    2    1    2    0    0  0.12060703520E+02  0.64866829696E+02  0.42390451933E+02  0.14764013850E+03  0.12508994331E+03 0.  0.
          5    1    3    3  502    0  0.21054433028E+02 -0.16236963460E+02  0.58468032777E+02  0.64365451831E+02  0.41800000000E+01 0. -1.
         -5    1    3    3    0  502 -0.89937295078E+01  0.81103793155E+02 -0.16077580844E+02  0.83274686673E+02  0.41800000000E+01 0. -1.
        -11    1    1    2    0    0  0.11313079326E+02 -0.81660605627E+02  0.12238013728E+02  0.83343921525E+02  0.00000000000E+00 0.  1.
         11    1    1    2    0    0 -0.23373782846E+02  0.16793775931E+02  0.15969332508E+02  0.32914802374E+02  0.00000000000E+00 0. -1.
</event>
<event>
 7    1  0.2394257E-009  0.1401081E+03  0.7561462E-02  0.1213184E+00
          1   -1    0    0  501    0  0.00000000000E+00  0.00000000000E+00  0.16522171454E+02  0.16522171454E+02  0.00000000000E+00 0. -1.
         -1   -1    0    0    0  501 -0.00000000000E+00 -0.00000000000E+00 -0.13094149674E+04  0.13094149674E+04  0.00000000000E+00 0.  1.
         25    2    1    2    0    0  0.62609382869E+00  0.92207593714E+02 -0.87903155943E+03  0.89266458419E+03  0.12510373718E+03 0.  0.
          5    1    3    3  502    0  0.59095918185E+02  0.63060923523E+02 -0.40544093145E+03  0.41457065612E+03  0.41800000000E+01 0. -1.
         -5    1    3    3    0  502 -0.58469824356E+02  0.29146670191E+02 -0.47359062798E+03  0.47809392807E+03  0.41800000000E+01 0. -1.
        -11    1    1    2    0    0  0.81833029385E+01  0.16892954668E+02 -0.58913718982E+02  0.61831744668E+02  0.00000000000E+00 0. -1.
         11    1    1    2    0    0 -0.88093967672E+01 -0.10910054838E+03 -0.35494751754E+03  0.37144081000E+03  0.00000000000E+00 0.  1.
</event>
<event>
 7    1  0.2394257E-009  0.1894118E+03  0.7561462E-02  0.1158993E+00
          2   -1    0    0  501    0  0.00000000000E+00  0.00000000000E+00  0.17419647912E+04  0.17419647912E+04  0.00000000000E+00 0. -1.
         -2   -1    0    0    0  501 -0.00000000000E+00 -0.00000000000E+00 -0.25341304581E+02  0.25341304581E+02  0.00000000000E+00 0.  1.
         25    2    1    2    0    0 -0.17554820573E+01  0.17213698210E+03  0.11534752389E+04  0.11729398215E+04  0.12509386794E+03 0.  0.
          5    1    3    3  502    0 -0.29575554170E+01 -0.81784135010E+01  0.59720316457E+01  0.11347737370E+02  0.41800000000E+01 0. -1.
         -5    1    3    3    0  502  0.12020733597E+01  0.18031539560E+03  0.11475032072E+04  0.11615920841E+04  0.41800000000E+01 0. -1.
        -11    1    1    2    0    0  0.36848104217E+02 -0.52582891547E+02  0.16000226707E+03  0.17240495566E+03  0.00000000000E+00 0.  1.
         11    1    1    2    0    0 -0.35092622159E+02 -0.11955409055E+03  0.40314598074E+03  0.42196131871E+03  0.00000000000E+00 0. -1.
</event>
<event>
 7    1  0.2394257E-009  0.1093831E+03  0.7561462E-02  0.1261717E+00
         -2   -1    0    0    0  501 -0.00000000000E+00  0.00000000000E+00  0.23928841071E+03  0.23928841071E+03  0.00000000000E+00 0.  1.
          2   -1    0    0  501    0  0.00000000000E+00 -0.00000000000E+00 -0.68539124382E+02  0.68539124382E+02  0.00000000000E+00 0. -1.
         25    2    1    2    0    0 -0.27363600120E+02 -0.62522281088E+02  0.10969187597E+03  0.17982487024E+03  0.12508746564E+03 0.  0.
          5    1    3    3  502    0  0.16325556238E+02 -0.81354388903E+02  0.10183192753E+03  0.13142402461E+03  0.41800000000E+01 0. -1.
         -5    1    3    3    0  502 -0.43689156359E+02  0.18832107814E+02  0.78599484358E+01  0.48400845628E+02  0.41800000000E+01 0. -1.
        -11    1    1    2    0    0  0.33095649274E+02  0.92740447531E+01  0.65801345617E+02  0.74237099835E+02  0.00000000000E+00 0.  1.
         11    1    1    2    0    0 -0.57320491534E+01  0.53248236335E+02 -0.47439352548E+01  0.53765565021E+02  0.00000000000E+00 0. -1.
</event>
<event>
 7    1  0.2394257E-009  0.1102666E+03  0.7561462E-02  0.1260077E+00
          1   -1    0    0  501    0  0.00000000000E+00  0.00000000000E+00  0.47808737712E+03  0.47808737712E+03  0.00000000000E+00 0. -1.
         -1   -1    0    0    0  501 -0.00000000000E+00 -0.00000000000E+00 -0.44773509897E+02  0.44773509897E+02  0.00000000000E+00 0.  1.
         25    2    1    2    0    0 -0.32396731073E+02 -0.56000926256E+02  0.36577231961E+03  0.39194562049E+03  0.12508528170E+03 0.  0.
          5    1    3    3  502    0  0.16473728336E+02 -0.82754073089E+02  0.23564948548E+03  0.25033532061E+03  0.41800000000E+01 0.  1.
         -5    1    3    3    0  502 -0.48870459409E+02  0.26753146833E+02  0.13012283413E+03  0.14161029988E+03  0.41800000000E+01 0.  1.
        -11    1    1    2    0    0 -0.79068123762E+01  0.32667230741E+02 -0.14478221053E+02  0.36596236570E+02  0.00000000000E+00 0.  1.
         11    1    1    2    0    0  0.40303543449E+02  0.23333695516E+02  0.82019768660E+02  0.94319029957E+02  0.00000000000E+00 0. -1.
</event>
<event>
 7    1  0.2394257E-009  0.1358329E+03  0.7561462E-02  0.1219049E+00
         -1   -1    0    0    0  501 -0.00000000000E+00  0.00000000000E+00  0.32072027925E+03  0.32072027925E+03  0.00000000000E+00 0.  1.
          1   -1    0    0  501    0  0.00000000000E+00 -0.00000000000E+00 -0.65718333598E+02  0.65718333598E+02  0.00000000000E+00 0. -1.
         25    2    1    2    0    0  0.34482637640E+02 -0.89352597661E+02  0.12304676916E+03  0.19990306770E+03  0.12509112705E+03 0.  0.
          5    1    3    3  502    0 -0.25626676623E+02 -0.82574561410E+02  0.10612833131E+03  0.13695247297E+03  0.41800000000E+01 0.  1.
         -5    1    3    3    0  502  0.60109314263E+02 -0.67780362513E+01  0.16918437846E+02  0.62950594722E+02  0.41800000000E+01 0.  1.
        -11    1    1    2    0    0  0.22479188103E+02  0.51185356232E+02  0.29380786762E+02  0.63154455275E+02  0.00000000000E+00 0. -1.
         11    1    1    2    0    0 -0.56961825743E+02  0.38167241430E+02  0.10257438973E+03  0.12338108988E+03  0.00000000000E+00 0.  1.
</event>
<event>
 7    1  0.2394257E-009  0.4572361E+03  0.7561462E-02  0.1025586E+00
         -2   -1    0    0    0  501 -0.00000000000E+00  0.00000000000E+00  0.18868388509E+03  0.18868388509E+03  0.00000000000E+00 0.  1.
          2   -1    0    0  501    0  0.00000000000E+00 -0.00000000000E+00 -0.12591084855E+04  0.12591084855E+04  0.00000000000E+00 0. -1.
         25    2    1    2    0    0  0.33271218101E+03 -0.30113828428E+03 -0.30779166019E+03  0.55835836766E+03  0.12508676591E+03 0.  0.
          5    1    3    3  502    0  0.77854524714E+02 -0.10026266232E+02 -0.59901578347E+02  0.98830787316E+02  0.41800000000E+01 0. -1.
         -5    1    3    3    0  502  0.25485765630E+03 -0.29111201805E+03 -0.24789008184E+03  0.45952758035E+03  0.41800000000E+01 0. -1.
        -11    1    1    2    0    0 -0.12834758483E+03  0.12447159713E+03 -0.22180816426E+03  0.28489496793E+03  0.00000000000E+00 0. -1.
         11    1    1    2    0    0 -0.20436459619E+03  0.17666668715E+03 -0.54082477595E+03  0.60453903497E+03  0.00000000000E+00 0.  1.
</event>
<event>
 7    1  0.2394257E-009  0.9421139E+02  0.7561462E-02  0.1292962E+00
          1   -1    0    0  501    0  0.00000000000E+00  0.00000000000E+00  0.76543325381E+02  0.76543325381E+02  0.00000000000E+00 0. -1.
         -1   -1    0    0    0  501 -0.00000000000E+00 -0.00000000000E+00 -0.17824275231E+03  0.17824275231E+03  0.00000000000E+00 0.  1.
         25    2    1    2    0    0  0.45821133204E+02  0.27853137067E+02 -0.99087448995E+01  0.13645966595E+03  0.12509070194E+03 0.  0.
          5    1    3    3  502    0  0.59144737109E+02  0.69168893529E+02  0.24294961362E+01  0.91136220084E+02  0.41800000000E+01 0. -1.
         -5    1    3    3    0  502 -0.13323603904E+02 -0.41315756462E+02 -0.12338241036E+02  0.45323445863E+02  0.41800000000E+01 0. -1.
        -11    1    1    2    0    0 -0.16594701630E+02 -0.84085478262E+01  0.14862059322E+01  0.18662706309E+02  0.00000000000E+00 0. -1.
         11    1    1    2    0    0 -0.29226431575E+02 -0.19444589240E+02 -0.93276887958E+02  0.99663705432E+02  0.00000000000E+00 0.  1.
</event>
<event>
 7    1  0.2786624E-009  0.2385794E+03  0.7561462E-02  0.1120743E+00
         -1   -1    0    0    0  501 -0.00000000000E+00  0.00000000000E+00  0.29809366530E+03  0.29809366530E+03  0.00000000000E+00 0.  1.
          1   -1    0    0  501    0  0.00000000000E+00 -0.00000000000E+00 -0.19803964528E+03  0.19803964528E+03  0.00000000000E+00 0. -1.
         25    2    1    2    0    0  0.37041934509E+02  0.21167671242E+03  0.19596685890E+02  0.24942089103E+03  0.12509042847E+03 0.  0.
          5    1    3    3  502    0 -0.42576562930E+02  0.97964039843E+02  0.27300890830E+02  0.11032917952E+03  0.41800000000E+01 0.  1.
         -5    1    3    3    0  502  0.79618497439E+02  0.11371267257E+03 -0.77042049396E+01  0.13909171152E+03  0.41800000000E+01 0.  1.
        -11    1    1    2    0    0  0.21492959943E+02 -0.12472991743E+03  0.59355899818E+02  0.13979493007E+03  0.00000000000E+00 0.  1.
         11    1    1    2    0    0 -0.58534894453E+02 -0.86946794989E+02  0.21101434311E+02  0.10691748948E+03  0.00000000000E+00 0. -1.
</event>
<event>
 7    1  0.2394257E-009  0.1329307E+03  0.7561462E-02  0.1223171E+00
         -2   -1    0    0    0  501 -0.00000000000E+00  0.00000000000E+00  0.35054823664E+03  0.35054823664E+03  0.00000000000E+00 0.  1.
          2   -1    0    0  501    0  0.00000000000E+00 -0.00000000000E+00 -0.63262059214E+02  0.63262059214E+02  0.00000000000E+00 0. -1.
         25    2    1    2    0    0  0.82943704255E+02 -0.16281106828E+02  0.23246313139E+03  0.27718303604E+03  0.12508635217E+03 0.  0.
          5    1    3    3  502    0  0.68865111617E+02  0.42048502916E+02  0.81883400925E+02  0.11503409904E+03  0.41800000000E+01 0. -1.
         -5    1    3    3    0  502  0.14078592638E+02 -0.58329609744E+02  0.15057973046E+03  0.16214893700E+03  0.41800000000E+01 0. -1.
        -11    1    1    2    0    0 -0.40978053900E+02  0.54478174226E+02  0.25786176891E+02  0.72883463743E+02  0.00000000000E+00 0.  1.
         11    1    1    2    0    0 -0.41965650355E+02 -0.38197067398E+02  0.29036869146E+02  0.63743796069E+02  0.00000000000E+00 0. -1.
</event>
<event>
 7    1  0.2490588E-009  0.1213088E+03  0.7561462E-02  0.1240953E+00
         -1   -1    0    0    0  501 -0.00000000000E+00  0.00000000000E+00  0.29148724804E+03  0.29148724804E+03  0.00000000000E+00 0.  1.
          1   -1    0    0  501    0  0.00000000000E+00 -0.00000000000E+00 -0.75740030295E+02  0.75740030295E+02  0.00000000000E+00 0. -1.
         25    2    1    2    0    0  0.14686284520E+02 -0.10025606594E+03  0.11074314378E+03  0.19539575865E+03  0.12509393627E+03 0.  0.
          5    1    3    3  502    0 -0.21685176405E+02 -0.37149630212E+02 -0.18477007223E+02  0.47002277567E+02  0.41800000000E+01 0. -1.
         -5    1    3    3    0  502  0.36371460925E+02 -0.63106435732E+02  0.12922015101E+03  0.14839348108E+03  0.41800000000E+01 0. -1.
        -11    1    1    2    0    0  0.31171096661E+02  0.41947824162E+02  0.13387756004E+02  0.53948950219E+02  0.00000000000E+00 0. -1.
         11    1    1    2    0    0 -0.45857381181E+02  0.58308241782E+02  0.91616317959E+02  0.11788256947E+03  0.00000000000E+00 0.  1.
</event>
<event>
 7    1  0.2706374E-009  0.2073073E+03  0.7561462E-02  0.1143716E+00
          1   -1    0    0  501    0  0.00000000000E+00  0.00000000000E+00  0.14618049757E+04  0.14618049757E+04  0.00000000000E+00 0. -1.
         -1   -1    0    0    0  501 -0.00000000000E+00 -0.00000000000E+00 -0.35038743051E+02  0.35038743051E+02  0.00000000000E+00 0.  1.
         25    2    1    2    0    0  0.18553214677E+03  0.61110951083E+02  0.62937293885E+03  0.67075611519E+03  0.12508694605E+03 0.  0.
          5    1    3    3  502    0 -0.24276627588E+01  0.27224163072E+02  0.18507228296E+03  0.18712635015E+03  0.41800000000E+01 0.  1.
         -5    1    3    3    0  502  0.18795980953E+03  0.33886788011E+02  0.44430065589E+03  0.48362976504E+03  0.41800000000E+01 0.  1.
        -11    1    1    2    0    0 -0.82076490255E+02 -0.35010478018E+02  0.19672078252E+03  0.21601238413E+03  0.00000000000E+00 0.  1.
         11    1    1    2    0    0 -0.10345565652E+03 -0.26100473065E+02  0.60067251125E+03  0.61007521940E+03  0.00000000000E+00 0. -1.
</event>
<event>
 7    1  0.2394257E-009  0.8488115E+02  0.7561462E-02  0.1315744E+00
         -2   -1    0    0    0  501 -0.00000000000E+00  0.00000000000E+00  0.13120205803E+02  0.13120205803E+02  0.00000000000E+00 0. -1.
          2   -1    0    0  501    0  0.00000000000E+00 -0.00000000000E+00 -0.11019125146E+04  0.11019125146E+04  0.00000000000E+00 0.  1.
         25    2    1    2    0    0 -0.42136053210E+02 -0.96754394972E+01 -0.74462685926E+03  0.75629763832E+03  0.12509155484E+03 0.  0.
          5    1    3    3  502    0  0.23916711821E+02  0.59298744027E+00 -0.30273416660E+02  0.38811247013E+02  0.41800000000E+01 0. -1.
         -5    1    3    3    0  502 -0.66052765031E+02 -0.10268426938E+02 -0.71435344260E+03  0.71748639131E+03  0.41800000000E+01 0. -1.
        -11    1    1    2    0    0 -0.17837568319E+02  0.64329074405E+00 -0.13050248040E+02  0.22111120289E+02  0.00000000000E+00 0. -1.
         11    1    1    2    0    0  0.59973621528E+02  0.90321487532E+01 -0.33111520152E+03  0.33662396182E+03  0.00000000000E+00 0.  1.
</event>
<event>
 7    1  0.2394257E-009  0.9471363E+02  0.7561462E-02  0.1291822E+00
         -2   -1    0    0    0  501 -0.00000000000E+00  0.00000000000E+00  0.18114073631E+02  0.18114073631E+02  0.00000000000E+00 0. -1.
          2   -1    0    0  501    0  0.00000000000E+00 -0.00000000000E+00 -0.59310859181E+03  0.59310859181E+03  0.00000000000E+00 0.  1.
         25    2    1    2    0    0  0.14628767046E+02  0.27431062722E+01 -0.38379260190E+03  0.40393744968E+03  0.12508867464E+03 0.  0.
          5    1    3    3  502    0 -0.29361826452E+02 -0.49400193185E+02 -0.17693988669E+03  0.18608517362E+03  0.41800000000E+01 0.  1.
         -5    1    3    3    0  502  0.43990593498E+02  0.52143299457E+02 -0.20685271521E+03  0.21785227606E+03  0.41800000000E+01 0.  1.
        -11    1    1    2    0    0 -0.18018896636E+02 -0.30538335911E+02 -0.39750324677E+02  0.53266865011E+02  0.00000000000E+00 0. -1.
         11    1    1    2    0    0  0.33901295902E+01  0.27795229638E+02 -0.15145159161E+03  0.15401835076E+03  0.00000000000E+00 0.  1.
</event>
<event>
 7    1  0.2394257E-009  0.1219161E+03  0.7561462E-02  0.1239969E+00
          2   -1    0    0  501    0  0.00000000000E+00  0.00000000000E+00  0.12359794476E+03  0.12359794476E+03  0.00000000000E+00 0. -1.
         -2   -1    0    0    0  501 -0.00000000000E+00 -0.00000000000E+00 -0.16949196621E+03  0.16949196621E+03  0.00000000000E+00 0.  1.
         25    2    1    2    0    0 -0.12479676173E+02  0.87062128118E+02  0.70247711196E+01  0.15307542451E+03  0.12508869537E+03 0.  0.
          5    1    3    3  502    0  0.34081876805E+02 -0.17150350742E+02 -0.24855165227E+01  0.38462436864E+02  0.41800000000E+01 0. -1.
         -5    1    3    3    0  502 -0.46561552978E+02  0.10421247886E+03  0.95102876422E+01  0.11461298764E+03  0.41800000000E+01 0. -1.
        -11    1    1    2    0    0  0.21197246924E+01 -0.76172338819E+02 -0.79094618546E+02  0.10983021951E+03  0.00000000000E+00 0.  1.
         11    1    1    2    0    0  0.10359951480E+02 -0.10889789299E+02  0.26175825984E+02  0.30184266955E+02  0.00000000000E+00 0. -1.
</event>
<event>
 7    1  0.2394257E-009  0.1095580E+03  0.7561462E-02  0.1261391E+00
         -2   -1    0    0    0  501 -0.00000000000E+00  0.00000000000E+00  0.17172614311E+02  0.17172614311E+02  0.00000000000E+00 0.  1.
          2   -1    0    0  501    0  0.00000000000E+00 -0.00000000000E+00 -0.73722517741E+03  0.73722517741E+03  0.00000000000E+00 0. -1.
         25    2    1    2    0    0 -0.30183223966E+02 -0.12036395327E+02 -0.43203046145E+03  0.45094797023E+03  0.12509136825E+03 0.  0.
          5    1    3    3  502    0 -0.73320045070E+02  0.11683822379E+02 -0.19225403493E+03  0.20613448780E+03  0.41800000000E+01 0. -1.
         -5    1    3    3    0  502  0.43136821105E+02 -0.23720217706E+02 -0.23977642652E+03  0.24481348243E+03  0.41800000000E+01 0. -1.
        -11    1    1    2    0    0  0.57643904090E+02 -0.11969603646E+02 -0.16873330912E+03  0.17870931900E+03  0.00000000000E+00 0. -1.
         11    1    1    2    0    0 -0.27460680124E+02  0.24005998973E+02 -0.11928879253E+03  0.12474050250E+03  0.00000000000E+00 0.  1.
</event>
<event>
 7    1  0.2394257E-009  0.2114138E+03  0.7561462E-02  0.1140451E+00
         -1   -1    0    0    0  501 -0.00000000000E+00  0.00000000000E+00  0.51389522055E+02  0.51389522055E+02  0.00000000000E+00 0.  1.
          1   -1    0    0  501    0  0.00000000000E+00 -0.00000000000E+00 -0.11375374894E+04  0.11375374894E+04  0.00000000000E+00 0. -1.
         25    2    1    2    0    0  0.11491185328E+03 -0.15561249161E+03 -0.79239049827E+03  0.82519719968E+03  0.12509090709E+03 0.  0.
          5    1    3    3  502    0 -0.15296883929E+02 -0.72282833222E+02 -0.30561208965E+03  0.31444399243E+03  0.41800000000E+01 0.  1.
         -5    1    3    3    0  502  0.13020873721E+03 -0.83329658389E+02 -0.48677840862E+03  0.51075320725E+03  0.41800000000E+01 0.  1.
        -11    1    1    2    0    0 -0.17776188710E+02  0.35522273241E+02 -0.10482285597E+02  0.41081663703E+02  0.00000000000E+00 0.  1.
         11    1    1    2    0    0 -0.97135664568E+02  0.12009021837E+03 -0.28327518345E+03  0.32264814805E+03  0.00000000000E+00 0. -1.
</event>
<event>
 7    1  0.2394257E-009  0.1488603E+03  0.7561462E-02  0.1201880E+00
         -2   -1    0    0    0  501 -0.00000000000E+00  0.00000000000E+00  0.15189522848E+02  0.15189522848E+02  0.00000000000E+00 0.  1.
          2   -1    0    0  501    0  0.00000000000E+00 -0.00000000000E+00 -0.19097759514E+04  0.19097759514E+04  0.00000000000E+00 0. -1.
         25    2    1    2    0    0  0.77273945985E+02 -0.91509172941E+02 -0.13239376829E+04  0.13352160662E+04  0.12508302693E+03 0.  0.
          5    1    3    3  502    0  0.97318309456E+01  0.20328417554E+02 -0.53752153982E+03  0.53801006614E+03  0.41800000000E+01 0. -1.
         -5    1    3    3    0  502  0.67542115040E+02 -0.11183759050E+03 -0.78641614312E+03  0.79720600005E+03  0.41800000000E+01 0. -1.
        -11    1    1    2    0    0 -0.88462541744E+02  0.51120091174E+02 -0.32920538480E+03  0.34469561992E+03  0.00000000000E+00 0.  1.
         11    1    1    2    0    0  0.11188595759E+02  0.40389081767E+02 -0.24144336079E+03  0.24505378812E+03  0.00000000000E+00 0. -1.
</event>
<event>
 7    1  0.2394257E-009  0.1539530E+03  0.7561462E-02  0.1195698E+00
          1   -1    0    0  501    0  0.00000000000E+00  0.00000000000E+00  0.72963171866E+03  0.72963171866E+03  0.00000000000E+00 0. -1.
         -1   -1    0    0    0  501 -0.00000000000E+00 -0.00000000000E+00 -0.37979067421E+02  0.37979067421E+02  0.00000000000E+00 0.  1.
         25    2    1    2    0    0 -0.46222595598E+02  0.11766637789E+03  0.35799589814E+03  0.39973874748E+03  0.12509235916E+03 0.  0.
          5    1    3    3  502    0 -0.85991993073E+02  0.55159220287E+02  0.23168608163E+03  0.25324508934E+03  0.41800000000E+01 0.  1.
         -5    1    3    3    0  502  0.39769397475E+02  0.62507157602E+02  0.12630981651E+03  0.14649365813E+03  0.41800000000E+01 0.  1.
        -11    1    1    2    0    0  0.29567651259E+02 -0.29640255247E+02  0.30616690557E+02  0.51866872594E+02  0.00000000000E+00 0.  1.
         11    1    1    2    0    0  0.16654944339E+02 -0.88026122642E+02  0.30304006254E+03  0.31600516601E+03  0.00000000000E+00 0. -1.
</event>
<event>
 7    1  0.2394257E-009  0.1281256E+03  0.7561462E-02  0.1230264E+00
         -4   -1    0    0    0  501 -0.00000000000E+00  0.00000000000E+00  0.99840857241E+02  0.99840857241E+02  0.00000000000E+00 0. -1.
          4   -1    0    0  501    0  0.00000000000E+00 -0.00000000000E+00 -0.35635773619E+03  0.35635773619E+03  0.00000000000E+00 0.  1.
         25    2    1    2    0    0  0.65765212511E+02  0.87584659590E+02 -0.39264683599E+01  0.16631506480E+03  0.12509655413E+03 0.  0.
          5    1    3    3  502    0 -0.21268917948E+02  0.15650769053E+01 -0.33891586176E+02  0.40260754462E+02  0.41800000000E+01 0.  1.
         -5    1    3    3    0  502  0.87034130458E+02  0.86019582684E+02  0.29965117816E+02  0.12605431034E+03  0.41800000000E+01 0.  1.
        -11    1    1    2    0    0 -0.30098956558E+02 -0.21520218635E+02 -0.18563691045E+03  0.18928848226E+03  0.00000000000E+00 0.  1.
         11    1    1    2    0    0 -0.35666255953E+02 -0.66064440955E+02 -0.66953500143E+02  0.10059504637E+03  0.00000000000E+00 0. -1.
</event>
<event>
 7    1  0.2394257E-009  0.1040802E+03  0.7561462E-02  0.1271942E+00
          2   -1    0    0  501    0  0.00000000000E+00  0.00000000000E+00  0.11963843550E+03  0.11963843550E+03  0.00000000000E+00 0. -1.
         -2   -1    0    0    0  501 -0.00000000000E+00 -0.00000000000E+00 -0.12077155808E+03  0.12077155808E+03  0.00000000000E+00 0.  1.
         25    2    1    2    0    0 -0.38973953153E+02 -0.72954226774E+01 -0.23212490489E+02  0.13325474209E+03  0.12508322972E+03 0.  0.
          5    1    3    3  502    0  0.45381747955E+02 -0.37843333184E+01 -0.53597680809E+00  0.45733837552E+02  0.41800000000E+01 0. -1.
         -5    1    3    3    0  502 -0.84355701108E+02 -0.35110893589E+01 -0.22676513681E+02  0.87520904535E+02  0.41800000000E+01 0. -1.
        -11    1    1    2    0    0  0.32644304740E+02  0.35945609255E+02  0.47800163645E+02  0.68136576823E+02  0.00000000000E+00 0. -1.
         11    1    1    2    0    0  0.63296484134E+01 -0.28650186577E+02 -0.25720795735E+02  0.39018674673E+02  0.00000000000E+00 0.  1.
</event>
<event>
 7    1  0.2394257E-009  0.1764687E+03  0.7561462E-02  0.1171265E+00
          1   -1    0    0  501    0  0.00000000000E+00  0.00000000000E+00  0.17245567869E+04  0.17245567869E+04  0.00000000000E+00 0. -1.
         -1   -1    0    0    0  501 -0.00000000000E+00 -0.00000000000E+00 -0.20618664380E+02  0.20618664380E+02  0.00000000000E+00 0.  1.
         25    2    1    2    0    0  0.15828031970E+03  0.34234741514E+02  0.10631759869E+04  0.10826886672E+04  0.12508754530E+03 0.  0.
          5    1    3    3  502    0  0.10124883714E+03  0.66328478373E+02  0.44989212889E+03  0.46590899766E+03  0.41800000000E+01 0.  1.
         -5    1    3    3    0  502  0.57031482558E+02 -0.32093736859E+02  0.61328385798E+03  0.61677966958E+03  0.41800000000E+01 0.  1.
        -11    1    1    2    0    0 -0.10349665403E+03 -0.37697165606E+01  0.44684895275E+03  0.45869353029E+03  0.00000000000E+00 0. -1.
         11    1    1    2    0    0 -0.54783665673E+02 -0.30465024953E+02  0.19391318295E+03  0.20379325379E+03  0.00000000000E+00 0.  1.
</event>
<event>
 7    1  0.2394257E-009  0.1582981E+03  0.7561462E-02  0.1190632E+00
          1   -1    0    0  501    0  0.00000000000E+00  0.00000000000E+00  0.40652510315E+03  0.40652510315E+03  0.00000000000E+00 0. -1.
         -1   -1    0    0    0  501 -0.00000000000E+00 -0.00000000000E+00 -0.79320533192E+02  0.79320533192E+02  0.00000000000E+00 0.  1.
         25    2    1    2    0    0 -0.85915959541E+02 -0.10228233067E+03  0.24060790970E+03  0.30229586440E+03  0.12508955254E+03 0.  0.
          5    1    3    3  502    0 -0.11665031419E+03 -0.96488838632E+02  0.19803884336E+03  0.24930753630E+03  0.41800000000E+01 0. -1.
         -5    1    3    3    0  502  0.30734354644E+02 -0.57934920398E+01  0.42569066346E+02  0.52988328101E+02  0.41800000000E+01 0. -1.
        -11    1    1    2    0    0  0.33656747315E+02  0.38262189970E+02  0.87094328264E+02  0.10090685723E+03  0.00000000000E+00 0.  1.
         11    1    1    2    0    0  0.52259212226E+02  0.64020140701E+02 -0.49766800368E+00  0.82642914708E+02  0.00000000000E+00 0. -1.
</event>
<event>
 7    1  0.2394257E-009  0.1478246E+03  0.7561462E-02  0.1203172E+00
          1   -1    0    0  501    0  0.00000000000E+00  0.00000000000E+00  0.68273497958E+02  0.68273497958E+02  0.00000000000E+00 0. -1.
         -1   -1    0    0    0  501 -0.00000000000E+00 -0.00000000000E+00 -0.39575599360E+03  0.39575599360E+03  0.00000000000E+00 0.  1.
         25    2    1    2    0    0 -0.48323460797E+01 -0.12132844736E+03 -0.14846853535E+03  0.22898529280E+03  0.12508962635E+03 0.  0.
          5    1    3    3  502    0  0.37306131401E+01  0.22590014814E+02 -0.47583929527E+02  0.52971020313E+02  0.41800000000E+01 0. -1.
         -5    1    3    3    0  502 -0.85629592198E+01 -0.14391846217E+03 -0.10088460583E+03  0.17601427248E+03  0.41800000000E+01 0. -1.
        -11    1    1    2    0    0 -0.94308702251E+01  0.10864737267E+03 -0.18524919119E+03  0.21496617347E+03  0.00000000000E+00 0.  1.
         11    1    1    2    0    0  0.14263216305E+02  0.12681074695E+02  0.62352309103E+01  0.20078025284E+02  0.00000000000E+00 0. -1.
</event>
<event>
 7    1  0.2394257E-009  0.2029084E+03  0.7561462E-02  0.1147308E+00
         -2   -1    0    0    0  501 -0.00000000000E+00  0.00000000000E+00  0.23468354507E+02  0.23468354507E+02  0.00000000000E+00 0.  1.
          2   -1    0    0  501    0  0.00000000000E+00 -0.00000000000E+00 -0.22882631377E+04  0.22882631377E+04  0.00000000000E+00 0. -1.
         25    2    1    2    0    0 -0.10663828523E+03 -0.15738501534E+03 -0.15546270114E+04  0.15711948072E+04  0.12508481313E+03 0.  0.
          5    1    3    3  502    0  0.10160259201E+02 -0.21765514744E+02 -0.46740056483E+02  0.52716921184E+02  0.41800000000E+01 0.  1.
         -5    1    3    3    0  502 -0.11679854443E+03 -0.13561950060E+03 -0.15078869550E+04  0.15184778860E+04  0.41800000000E+01 0.  1.
        -11    1    1    2    0    0  0.15682509943E+02  0.84238268453E+02 -0.20749791525E+03  0.22449367881E+03  0.00000000000E+00 0.  1.
         11    1    1    2    0    0  0.90955775282E+02  0.73146746891E+02 -0.50266985654E+03  0.51604300626E+03  0.00000000000E+00 0. -1.
</event>
<event>
 7    1  0.2394257E-009  0.1625448E+03  0.7561462E-02  0.1185853E+00
          1   -1    0    0  501    0  0.00000000000E+00  0.00000000000E+00  0.87409197615E+03  0.87409197615E+03  0.00000000000E+00 0. -1.
         -1   -1    0    0    0  501 -0.00000000000E+00 -0.00000000000E+00 -0.36101317657E+02  0.36101317657E+02  0.00000000000E+00 0.  1.
         25    2    1    2    0    0  0.13801318154E+03 -0.28376361043E+02  0.45922118783E+03  0.49637160479E+03  0.12509122488E+03 0.  0.
          5    1    3    3  502    0  0.56386480729E+02 -0.49071583899E+02  0.35250691760E+03  0.36036933126E+03  0.41800000000E+01 0. -1.
         -5    1    3    3    0  502  0.81626700808E+02  0.20695222856E+02  0.10671427023E+03  0.13600227353E+03  0.41800000000E+01 0. -1.
        -11    1    1    2    0    0 -0.29341346616E+02  0.47243031630E+02  0.14629230498E+03  0.15650641251E+03  0.00000000000E+00 0.  1.
         11    1    1    2    0    0 -0.10867183492E+03 -0.18866670587E+02  0.23247716567E+03  0.25731527651E+03  0.00000000000E+00 0. -1.
</event>
<event>
 7    1  0.2394257E-009  0.1024742E+03  0.7561462E-02  0.1275178E+00
         -1   -1    0    0    0  501 -0.00000000000E+00  0.00000000000E+00  0.20793584324E+02  0.20793584324E+02  0.00000000000E+00 0.  1.
          1   -1    0    0  501    0  0.00000000000E+00 -0.00000000000E+00 -0.95198753147E+03  0.95198753147E+03  0.00000000000E+00 0. -1.
         25    2    1    2    0    0  0.25815564011E+02 -0.83855465176E+02 -0.44698816074E+03  0.47238101482E+03  0.12508886818E+03 0.  0.
          5    1    3    3  502    0  0.27762365295E+01 -0.60668058233E+02 -0.65304736098E+02  0.89277666501E+02  0.41800000000E+01 0.  1.
         -5    1    3    3    0  502  0.23039327481E+02 -0.23187406942E+02 -0.38168342464E+03  0.38310334832E+03  0.41800000000E+01 0.  1.
        -11    1    1    2    0    0 -0.35923048613E+02  0.91596057167E+02 -0.47394256780E+03  0.48404737442E+03  0.00000000000E+00 0. -1.
         11    1    1    2    0    0  0.10107484602E+02 -0.77405919912E+01 -0.10263218606E+02  0.16352726547E+02  0.00000000000E+00 0.  1.
</event>
<event>
 7    1  0.2394257E-009  0.2506318E+03  0.7561462E-02  0.1112906E+00
          2   -1    0    0  501    0  0.00000000000E+00  0.00000000000E+00  0.11776610308E+04  0.11776610308E+04  0.00000000000E+00 0. -1.
         -2   -1    0    0    0  501 -0.00000000000E+00 -0.00000000000E+00 -0.70878768828E+02  0.70878768828E+02  0.00000000000E+00 0.  1.
         25    2    1    2    0    0  0.24233982651E+03 -0.10776205298E+02  0.32158189568E+03  0.42179130048E+03  0.12509303503E+03 0.  0.
          5    1    3    3  502    0  0.12231393477E+03  0.77004590916E+01  0.67094208583E+02  0.13978233413E+03  0.41800000000E+01 0. -1.
         -5    1    3    3    0  502  0.12002589174E+03 -0.18476664389E+02  0.25448768710E+03  0.28200896635E+03  0.41800000000E+01 0. -1.
        -11    1    1    2    0    0 -0.11147644051E+03 -0.37538577927E+02  0.40632172785E+03  0.42300530511E+03  0.00000000000E+00 0.  1.
         11    1    1    2    0    0 -0.13086338601E+03  0.48314783224E+02  0.37887863844E+03  0.40374319405E+03  0.00000000000E+00 0. -1.
</event>
<event>
 7    1  0.2394257E-009  0.1689532E+03  0.7561462E-02  0.1178944E+00
          3   -1    0    0  501    0  0.00000000000E+00  0.00000000000E+00  0.36288400776E+03  0.36288400776E+03  0.00000000000E+00 0. -1.
         -3   -1    0    0    0  501 -0.00000000000E+00 -0.00000000000E+00 -0.11853238709E+03  0.11853238709E+03  0.00000000000E+00 0.  1.
         25    2    1    2    0    0  0.10401262178E+03  0.12276050475E+03  0.21553149121E+03  0.29663273688E+03  0.12509352448E+03 0.  0.
          5    1    3    3  502    0  0.17985693004E+02  0.46087390849E+02 -0.27926380661E+01  0.49727296081E+02  0.41800000000E+01 0. -1.
         -5    1    3    3    0  502  0.86026928779E+02  0.76673113896E+02  0.21832412928E+03  0.24690544080E+03  0.41800000000E+01 0. -1.
        -11    1    1    2    0    0 -0.11042060959E+03 -0.98888038682E+02  0.19043110079E+01  0.14824028338E+03  0.00000000000E+00 0. -1.
         11    1    1    2    0    0  0.64079878109E+01 -0.23872466063E+02  0.26915818444E+02  0.36543374588E+02  0.00000000000E+00 0.  1.
</event>
<event>
 7    1  0.2394257E-009  0.1148079E+03  0.7561462E-02  0.1251917E+00
          3   -1    0    0  501    0  0.00000000000E+00  0.00000000000E+00  0.12172137702E+03  0.12172137702E+03  0.00000000000E+00 0. -1.
         -3   -1    0    0    0  501 -0.00000000000E+00 -0.00000000000E+00 -0.18145898518E+03  0.18145898518E+03  0.00000000000E+00 0.  1.
         25    2    1    2    0    0  0.72652992625E+02  0.24585833684E+02 -0.98052606311E+02  0.17647879026E+03  0.12509008454E+03 0.  0.
          5    1    3    3  502    0  0.18331139185E+02  0.71915751087E+02 -0.54686584484E+02  0.92282180516E+02  0.41800000000E+01 0.  1.
         -5    1    3    3    0  502  0.54321853440E+02 -0.47329917403E+02 -0.43366021827E+02  0.84196609740E+02  0.41800000000E+01 0.  1.
        -11    1    1    2    0    0 -0.66684627616E+02 -0.10098739646E+02  0.66333954962E+02  0.94599247796E+02  0.00000000000E+00 0. -1.
         11    1    1    2    0    0 -0.59683650092E+01 -0.14487094038E+02 -0.28018956809E+02  0.32102324141E+02  0.00000000000E+00 0.  1.
</event>
<event>
 7    1  0.2394257E-009  0.1051539E+03  0.7561462E-02  0.1269817E+00
          1   -1    0    0  501    0  0.00000000000E+00  0.00000000000E+00  0.41795056379E+02  0.41795056379E+02  0.00000000000E+00 0. -1.
         -1   -1    0    0    0  501 -0.00000000000E+00 -0.00000000000E+00 -0.31644175085E+03  0.31644175085E+03  0.00000000000E+00 0.  1.
         25    2    1    2    0    0  0.76371286660E+01  0.23469466095E+01 -0.10052957056E+03  0.16067970790E+03  0.12509172667E+03 0.  0.
          5    1    3    3  502    0 -0.49217538670E+02  0.32863608165E+02 -0.59924174628E+02  0.84325334030E+02  0.41800000000E+01 0. -1.
         -5    1    3    3    0  502  0.56854667336E+02 -0.30516661556E+02 -0.40605395934E+02  0.76354373872E+02  0.41800000000E+01 0. -1.
        -11    1    1    2    0    0 -0.23314486925E+02  0.37129122714E+02 -0.12581919712E+03  0.13323891105E+03  0.00000000000E+00 0.  1.
         11    1    1    2    0    0  0.15677358259E+02 -0.39476069323E+02 -0.48297926789E+02  0.64318188278E+02  0.00000000000E+00 0. -1.
</event>
<event>
 7    1  0.2394257E-009  0.9575911E+02  0.7561462E-02  0.1289475E+00
         -1   -1    0    0    0  501 -0.00000000000E+00  0.00000000000E+00  0.15786382799E+03  0.15786382799E+03  0.00000000000E+00 0.  1.
          1   -1    0    0  501    0  0.00000000000E+00 -0.00000000000E+00 -0.73551876535E+02  0.73551876535E+02  0.00000000000E+00 0. -1.
         25    2    1    2    0    0  0.67847271803E+01 -0.65233334786E+00  0.51320946399E+02  0.13537892833E+03  0.12508859514E+03 0.  0.
          5    1    3    3  502    0  0.38263286850E+02 -0.41080353833E+02 -0.80236505187E+01  0.56864100795E+02  0.41800000000E+01 0. -1.
         -5    1    3    3    0  502 -0.31478559669E+02  0.40428020485E+02  0.59344596917E+02  0.78514827533E+02  0.41800000000E+01 0. -1.
        -11    1    1    2    0    0 -0.26407007786E+02 -0.34566220853E+02  0.34760958345E+02  0.55681935216E+02  0.00000000000E+00 0.  1.
         11    1    1    2    0    0  0.19622280606E+02  0.35218554201E+02 -0.17699532869E+01  0.40354840984E+02  0.00000000000E+00 0. -1.
</event>
<event>
 7    1  0.2394257E-009  0.1178424E+03  0.7561462E-02  0.1246699E+00
          1   -1    0    0  501    0  0.00000000000E+00  0.00000000000E+00  0.35637997310E+03  0.35637997310E+03  0.00000000000E+00 0. -1.
         -1   -1    0    0    0  501 -0.00000000000E+00 -0.00000000000E+00 -0.65700864171E+02  0.65700864171E+02  0.00000000000E+00 0.  1.
         25    2    1    2    0    0  0.25036357682E+02  0.58760666255E+02  0.27724587655E+03  0.31079347497E+03  0.12509065879E+03 0.  0.
          5    1    3    3  502    0 -0.28899913664E+01  0.89869398523E+02  0.23298129001E+03  0.24976511914E+03  0.41800000000E+01 0.  1.
         -5    1    3    3    0  502  0.27926349049E+02 -0.31108732267E+02  0.44264586533E+02  0.61028355831E+02  0.41800000000E+01 0.  1.
        -11    1    1    2    0    0  0.34037849030E+01  0.19809433474E+02  0.18846263418E+02  0.27553240301E+02  0.00000000000E+00 0. -1.
         11    1    1    2    0    0 -0.28440142585E+02 -0.78570099730E+02 -0.54130310397E+01  0.83734121998E+02  0.00000000000E+00 0.  1.
</event>
<event>
 7    1  0.2394257E-009  0.2412089E+03  0.7561462E-02  0.1118990E+00
         -3   -1    0    0    0  501 -0.00000000000E+00  0.00000000000E+00  0.41348461970E+03  0.41348461970E+03  0.00000000000E+00 0.  1.
          3   -1    0    0  501    0  0.00000000000E+00 -0.00000000000E+00 -0.20279485772E+03  0.20279485772E+03  0.00000000000E+00 0. -1.
         25    2    1    2    0    0  0.26957535032E+02 -0.22840667627E+03 -0.37997365746E+02  0.26455116344E+03  0.12508876775E+03 0.  0.
          5    1    3    3  502    0  0.57052128086E+02 -0.14635450322E+03 -0.69142568217E+02  0.17167630318E+03  0.41800000000E+01 0.  1.
         -5    1    3    3    0  502 -0.30094593053E+02 -0.82052173043E+02  0.31145202470E+02  0.92874860264E+02  0.41800000000E+01 0.  1.
        -11    1    1    2    0    0  0.17020126277E+02  0.29358190427E+02  0.80825443018E+02  0.87660368940E+02  0.00000000000E+00 0.  1.
         11    1    1    2    0    0 -0.43977661310E+02  0.19904848584E+03  0.16786168471E+03  0.26406794505E+03  0.00000000000E+00 0. -1.
</event>
<event>
 7    1  0.2394257E-009  0.2178662E+03  0.7561462E-02  0.1135484E+00
          2   -1    0    0  501    0  0.00000000000E+00  0.00000000000E+00  0.38659306791E+03  0.38659306791E+03  0.00000000000E+00 0. -1.
         -2   -1    0    0    0  501 -0.00000000000E+00 -0.00000000000E+00 -0.13156069365E+03  0.13156069365E+03  0.00000000000E+00 0.  1.
         25    2    1    2    0    0 -0.19690126677E+03 -0.83228055760E+01  0.12269154420E+03  0.26370349373E+03  0.12508772776E+03 0.  0.
          5    1    3    3  502    0 -0.20114691848E+03  0.79038794722E+01  0.78246247268E+02  0.21601504979E+03  0.41800000000E+01 0.  1.
         -5    1    3    3    0  502  0.42456517020E+01 -0.16226685048E+02  0.44445296932E+02  0.47688443940E+02  0.41800000000E+01 0.  1.
        -11    1    1    2    0    0  0.12738656037E+03  0.49085386806E+02  0.77582100052E+02  0.15702131451E+03  0.00000000000E+00 0.  1.
         11    1    1    2    0    0  0.69514706404E+02 -0.40762581231E+02  0.54758730006E+02  0.97428953329E+02  0.00000000000E+00 0. -1.
</event>
<event>
 7    1  0.2394257E-009  0.1178540E+03  0.7561462E-02  0.1246680E+00
         -2   -1    0    0    0  501 -0.00000000000E+00  0.00000000000E+00  0.61227519526E+02  0.61227519526E+02  0.00000000000E+00 0.  1.
          2   -1    0    0  501    0  0.00000000000E+00 -0.00000000000E+00 -0.45144476583E+03  0.45144476583E+03  0.00000000000E+00 0. -1.
         25    2    1    2    0    0 -0.18392818467E+02 -0.70902921450E+02 -0.36294260007E+03  0.39082057723E+03  0.12509145695E+03 0.  0.
          5    1    3    3  502    0 -0.32850888154E+02 -0.10155263123E+03 -0.23049540480E+03  0.25404275585E+03  0.41800000000E+01 0.  1.
         -5    1    3    3    0  502  0.14458069687E+02  0.30649709783E+02 -0.13244719527E+03  0.13677782139E+03  0.41800000000E+01 0.  1.
        -11    1    1    2    0    0  0.40547745903E+02  0.42735272740E+02  0.20282321966E+02  0.62304059405E+02  0.00000000000E+00 0.  1.
         11    1    1    2    0    0 -0.22154927437E+02  0.28167648710E+02 -0.47556968195E+02  0.59547648715E+02  0.00000000000E+00 0. -1.
</event>
<event>
 7    1  0.2394257E-009  0.1120721E+03  0.7561462E-02  0.1256780E+00
         -1   -1    0    0    0  501 -0.00000000000E+00  0.00000000000E+00  0.40996448227E+02  0.40996448227E+02  0.00000000000E+00 0.  1.
          1   -1    0    0  501    0  0.00000000000E+00 -0.00000000000E+00 -0.45477942217E+03  0.45477942217E+03  0.00000000000E+00 0. -1.
         25    2    1    2    0    0 -0.17460014398E+02 -0.50825998512E+02 -0.12026270602E+03  0.18165475563E+03  0.12508875872E+03 0.  0.
          5    1    3    3  502    0  0.18516532476E+02 -0.83267678575E+02 -0.60761872000E+02  0.10481338540E+03  0.41800000000E+01 0. -1.
         -5    1    3    3    0  502 -0.35976546875E+02  0.32441680063E+02 -0.59500834020E+02  0.76841370234E+02  0.41800000000E+01 0. -1.
        -11    1    1    2    0    0  0.35929811566E+02 -0.11571101750E+00 -0.35635066560E+02  0.50604572095E+02  0.00000000000E+00 0.  1.
         11    1    1    2    0    0 -0.18469797168E+02  0.50941709529E+02 -0.25788520136E+03  0.26351654266E+03  0.00000000000E+00 0. -1.
</event>
<event>
 7    1  0.2394257E-009  0.9844207E+02  0.7561462E-02  0.1283607E+00
          2   -1    0    0  501    0  0.00000000000E+00  0.00000000000E+00  0.43864671616E+03  0.43864671616E+03  0.00000000000E+00 0. -1.
         -2   -1    0    0    0  501 -0.00000000000E+00 -0.00000000000E+00 -0.23962158782E+02  0.23962158782E+02  0.00000000000E+00 0.  1.
         25    2    1    2    0    0 -0.92751312928E+01 -0.12483678886E+02  0.25138604838E+03  0.28121909848E+03  0.12508943094E+03 0.  0.
          5    1    3    3  502    0 -0.48077165779E+02 -0.51678277191E+02  0.13778443418E+03  0.15486794667E+03  0.41800000000E+01 0.  1.
         -5    1    3    3    0  502  0.38802034486E+02  0.39194598305E+02  0.11360161419E+03  0.12635115181E+03  0.41800000000E+01 0.  1.
        -11    1    1    2    0    0  0.29416339299E+02 -0.17883974699E+02  0.39779030217E+02  0.52607307608E+02  0.00000000000E+00 0.  1.
         11    1    1    2    0    0 -0.20141208006E+02  0.30367653586E+02  0.12351947878E+03  0.12878246885E+03  0.00000000000E+00 0. -1.
</event>
<event>
 7    1  0.2394257E-009  0.2459216E+03  0.7561462E-02  0.1115910E+00
         -3   -1    0    0    0  501 -0.00000000000E+00  0.00000000000E+00  0.32800508051E+03  0.32800508051E+03  0.00000000000E+00 0.  1.
          3   -1    0    0  501    0  0.00000000000E+00 -0.00000000000E+00 -0.20006486502E+03  0.20006486502E+03  0.00000000000E+00 0. -1.
         25    2    1    2    0    0 -0.21723479529E+03 -0.77310961759E+02  0.93208632174E+02  0.27839526833E+03  0.12509250667E+03 0.  0.
          5    1    3    3  502    0 -0.16366729437E+03 -0.11007900070E+03  0.85406903939E+02  0.21497949037E+03  0.41800000000E+01 0.  1.
         -5    1    3    3    0  502 -0.53567500920E+02  0.32768038937E+02  0.78017282351E+01  0.63415777958E+02  0.41800000000E+01 0.  1.
        -11    1    1    2    0    0  0.13018935772E+03  0.57661830424E+02 -0.21789617249E+02  0.14404493386E+03  0.00000000000E+00 0.  1.
         11    1    1    2    0    0  0.87045437566E+02  0.19649131335E+02  0.56521200574E+02  0.10562974334E+03  0.00000000000E+00 0. -1.
</event>
<event>
 7    1  0.2394257E-009  0.1508329E+03  0.7561462E-02  0.1199453E+00
         -1   -1    0    0    0  501 -0.00000000000E+00  0.00000000000E+00  0.11567656030E+03  0.11567656030E+03  0.00000000000E+00 0.  1.
          1   -1    0    0  501    0  0.00000000000E+00 -0.00000000000E+00 -0.23198171461E+03  0.23198171461E+03  0.00000000000E+00 0. -1.
         25    2    1    2    0    0  0.40444609041E+02 -0.11365364313E+03 -0.88170971970E+02  0.19487145917E+03  0.12509135983E+03 0.  0.
          5    1    3    3  502    0 -0.36439847626E+02 -0.71830065130E+02 -0.66688098356E+02  0.10465273820E+03  0.41800000000E+01 0. -1.
         -5    1    3    3    0  502  0.76884456667E+02 -0.41823577998E+02 -0.21482873614E+02  0.90218720963E+02  0.41800000000E+01 0. -1.
        -11    1    1    2    0    0  0.58590167749E+01  0.68378682714E+02  0.20694412589E+02  0.71681455340E+02  0.00000000000E+00 0.  1.
         11    1    1    2    0    0 -0.46303625816E+02  0.45274960414E+02 -0.48828594922E+02  0.81105360404E+02  0.00000000000E+00 0. -1.
</event>
<event>
 7    1  0.2394257E-009  0.1379204E+03  0.7561462E-02  0.1216155E+00
         -3   -1    0    0    0  501 -0.00000000000E+00  0.00000000000E+00  0.30779890956E+03  0.30779890956E+03  0.00000000000E+00 0.  1.
          3   -1    0    0  501    0  0.00000000000E+00 -0.00000000000E+00 -0.10501748095E+03  0.10501748095E+03  0.00000000000E+00 0. -1.
         25    2    1    2    0    0  0.10511392944E+03 -0.61023966167E+01  0.20798941172E+03  0.26456197623E+03  0.12508903417E+03 0.  0.
          5    1    3    3  502    0 -0.10859756639E+02 -0.86810012165E+00  0.11545909443E+03  0.11604724382E+03  0.41800000000E+01 0. -1.
         -5    1    3    3    0  502  0.11597368608E+03 -0.52342964950E+01  0.92530317294E+02  0.14851473241E+03  0.41800000000E+01 0. -1.
        -11    1    1    2    0    0 -0.38590151285E+02 -0.48473665578E+02  0.11938992344E+01  0.61970326981E+02  0.00000000000E+00 0.  1.
         11    1    1    2    0    0 -0.66523778158E+02  0.54576062194E+02 -0.64018823444E+01  0.86284087308E+02  0.00000000000E+00 0. -1.
</event>
<event>
 7    1  0.2394257E-009  0.1047976E+03  0.7561462E-02  0.1270519E+00
          2   -1    0    0  501    0  0.00000000000E+00  0.00000000000E+00  0.69889532688E+03  0.69889532688E+03  0.00000000000E+00 0. -1.
         -2   -1    0    0    0  501 -0.00000000000E+00 -0.00000000000E+00 -0.17210606074E+02  0.17210606074E+02  0.00000000000E+00 0.  1.
         25    2    1    2    0    0  0.35785936258E+01  0.11944196862E+02  0.45420110120E+03  0.47127844922E+03  0.12509702710E+03 0.  0.
          5    1    3    3  502    0  0.44572944681E+01  0.67140038055E+02  0.29878718162E+03  0.30629871773E+03  0.41800000000E+01 0. -1.
         -5    1    3    3    0  502 -0.87870084224E+00 -0.55195841193E+02  0.15541391959E+03  0.16497973149E+03  0.41800000000E+01 0. -1.
        -11    1    1    2    0    0  0.24181403619E+02 -0.40386801565E+02  0.88086760154E+02  0.99875479153E+02  0.00000000000E+00 0.  1.
         11    1    1    2    0    0 -0.27759997245E+02  0.28442604703E+02  0.13939685945E+03  0.14495200459E+03  0.00000000000E+00 0. -1.
</event>
<event>
 7    1  0.2394257E-009  0.8773326E+02  0.7561462E-02  0.1308436E+00
          2   -1    0    0  501    0  0.00000000000E+00  0.00000000000E+00  0.16135315586E+03  0.16135315586E+03  0.00000000000E+00 0.  1.
         -2   -1    0    0    0  501 -0.00000000000E+00 -0.00000000000E+00 -0.12507231843E+03  0.12507231843E+03  0.00000000000E+00 0. -1.
         25    2    1    2    0    0  0.47008649992E+02  0.65841510989E-01 -0.59045756792E+02  0.14609455269E+03  0.12508956559E+03 0.  0.
          5    1    3    3  502    0  0.69980054434E+02 -0.13701616797E+02 -0.83292308075E+02  0.10972703999E+03  0.41800000000E+01 0.  1.
         -5    1    3    3    0  502 -0.22971404442E+02  0.13767458308E+02  0.24246551282E+02  0.36367512692E+02  0.41800000000E+01 0.  1.
        -11    1    1    2    0    0  0.14599349169E+02 -0.41764473979E+01  0.73172932263E+02  0.74731932432E+02  0.00000000000E+00 0.  1.
         11    1    1    2    0    0 -0.61607999161E+02  0.41106058869E+01  0.22153661962E+02  0.65598989167E+02  0.00000000000E+00 0. -1.
</event>
<event>
 7    1  0.2394257E-009  0.9367126E+02  0.7561462E-02  0.1294197E+00
         -1   -1    0    0    0  501 -0.00000000000E+00  0.00000000000E+00  0.17780836517E+04  0.17780836517E+04  0.00000000000E+00 0.  1.
          1   -1    0    0  501    0  0.00000000000E+00 -0.00000000000E+00 -0.15229758826E+02  0.15229758826E+02  0.00000000000E+00 0. -1.
         25    2    1    2    0    0  0.29769136697E+02 -0.77533623917E+02  0.14681545245E+04  0.14758132873E+04  0.12509790808E+03 0.  0.
          5    1    3    3  502    0  0.38279082374E+02 -0.76648253290E+02  0.14619138275E+04  0.14644281322E+04  0.41800000000E+01 0. -1.
         -5    1    3    3    0  502 -0.85099456774E+01 -0.88537062701E+00  0.62406970170E+01  0.11385155064E+02  0.41800000000E+01 0. -1.
        -11    1    1    2    0    0 -0.57564980450E+01  0.64432105816E+02  0.27805339757E+03  0.28547911558E+03  0.00000000000E+00 0.  1.
         11    1    1    2    0    0 -0.24012638652E+02  0.13101518101E+02  0.16645970802E+02  0.32021007722E+02  0.00000000000E+00 0. -1.
</event>
<event>
 7    1  0.2394257E-009  0.1113485E+03  0.7561462E-02  0.1258093E+00
         -4   -1    0    0    0  501 -0.00000000000E+00  0.00000000000E+00  0.50449612567E+03  0.50449612567E+03  0.00000000000E+00 0.  1.
          4   -1    0    0  501    0  0.00000000000E+00 -0.00000000000E+00 -0.42607531354E+02  0.42607531354E+02  0.00000000000E+00 0. -1.
         25    2    1    2    0    0  0.36670649431E+02 -0.84076160091E+02  0.18642506474E+03  0.24252722831E+03  0.12510641263E+03 0.  0.
          5    1    3    3  502    0  0.43895003521E+01 -0.20861445785E+02 -0.16645728582E+02  0.27368235486E+02  0.41800000000E+01 0.  1.
         -5    1    3    3    0  502  0.32281149079E+02 -0.63214714305E+02  0.20307079332E+03  0.21515899282E+03  0.41800000000E+01 0.  1.
        -11    1    1    2    0    0 -0.46493004781E+02  0.12983253765E+01  0.93611600319E+02  0.10452950233E+03  0.00000000000E+00 0.  1.
         11    1    1    2    0    0  0.98223553502E+01  0.82777834714E+02  0.18185192926E+03  0.20004692639E+03  0.00000000000E+00 0. -1.
</event>
<event>
 7    1  0.2394257E-009  0.9730321E+02  0.7561462E-02  0.1286071E+00
          1   -1    0    0  501    0  0.00000000000E+00  0.00000000000E+00  0.15011198165E+03  0.15011198165E+03  0.00000000000E+00 0. -1.
         -1   -1    0    0    0  501 -0.00000000000E+00 -0.00000000000E+00 -0.10767167528E+03  0.10767167528E+03  0.00000000000E+00 0.  1.
         25    2    1    2    0    0 -0.36978929213E+02 -0.19261019143E+02 -0.22227569410E+02  0.13371772617E+03  0.12509171589E+03 0.  0.
          5    1    3    3  502    0 -0.65795297724E+02 -0.18628840210E+02 -0.56456843334E+02  0.88774447052E+02  0.41800000000E+01 0.  1.
         -5    1    3    3    0  502  0.28816368511E+02 -0.63217893243E+00  0.34229273924E+02  0.44943279116E+02  0.41800000000E+01 0.  1.
        -11    1    1    2    0    0  0.26900368855E+02  0.54254003718E+02  0.63334006027E+02  0.87626041126E+02  0.00000000000E+00 0. -1.
         11    1    1    2    0    0  0.10078560358E+02 -0.34992984575E+02  0.13338697530E+01  0.36439889639E+02  0.00000000000E+00 0.  1.
</event>
<event>
 7    1  0.2394257E-009  0.9808535E+02  0.7561462E-02  0.1284374E+00
         -1   -1    0    0    0  501 -0.00000000000E+00  0.00000000000E+00  0.18733776441E+03  0.18733776441E+03  0.00000000000E+00 0.  1.
          1   -1    0    0  501    0  0.00000000000E+00 -0.00000000000E+00 -0.67473272604E+02  0.67473272604E+02  0.00000000000E+00 0. -1.
         25    2    1    2    0    0  0.33802929349E+01 -0.31684044856E+02  0.31161981501E+02  0.13279262867E+03  0.12508999984E+03 0.  0.
          5    1    3    3  502    0 -0.25200143678E+02 -0.65856857475E+02  0.47539391119E+02  0.85144812090E+02  0.41800000000E+01 0. -1.
         -5    1    3    3    0  502  0.28580436613E+02  0.34172812618E+02 -0.16377409618E+02  0.47647816582E+02  0.41800000000E+01 0. -1.
        -11    1    1    2    0    0  0.35397038882E+02  0.17615079603E+02  0.59650441288E+02  0.71564072948E+02  0.00000000000E+00 0.  1.
         11    1    1    2    0    0 -0.38777331817E+02  0.14068965254E+02  0.29052069021E+02  0.50454335399E+02  0.00000000000E+00 0. -1.
</event>
<event>
 7    1  0.2394257E-009  0.8455879E+02  0.7561462E-02  0.1316590E+00
         -2   -1    0    0    0  501 -0.00000000000E+00  0.00000000000E+00  0.27253191926E+02  0.27253191926E+02  0.00000000000E+00 0. -1.
          2   -1    0    0  501    0  0.00000000000E+00 -0.00000000000E+00 -0.53733174491E+03  0.53733174491E+03  0.00000000000E+00 0.  1.
         25    2    1    2    0    0  0.21563084556E+02 -0.14577235614E+02 -0.17982371704E+03  0.22059270285E+03  0.12508840444E+03 0.  0.
          5    1    3    3  502    0 -0.53499578140E+01 -0.37483814924E+02 -0.83761244099E+00  0.38102918844E+02  0.41800000000E+01 0.  1.
         -5    1    3    3    0  502  0.26913042370E+02  0.22906579310E+02 -0.17898610460E+03  0.18248978400E+03  0.41800000000E+01 0.  1.
        -11    1    1    2    0    0 -0.57861415282E+02  0.62781133569E+01 -0.17912806111E+03  0.18834601234E+03  0.00000000000E+00 0.  1.
         11    1    1    2    0    0  0.36298330726E+02  0.82991222567E+01 -0.15112677483E+03  0.15564622165E+03  0.00000000000E+00 0. -1.
</event>
<event>
 7    1  0.2394257E-009  0.1237732E+03  0.7561462E-02  0.1236999E+00
          1   -1    0    0  501    0  0.00000000000E+00  0.00000000000E+00  0.51503816876E+03  0.51503816876E+03  0.00000000000E+00 0. -1.
         -1   -1    0    0    0  501 -0.00000000000E+00 -0.00000000000E+00 -0.34896268640E+02  0.34896268640E+02  0.00000000000E+00 0.  1.
         25    2    1    2    0    0  0.38773915667E+02  0.67741747251E+02  0.27028609974E+03  0.30788509628E+03  0.12508515478E+03 0.  0.
          5    1    3    3  502    0 -0.14675283100E+02 -0.23850174568E+02  0.12378564332E+03  0.12698248955E+03  0.41800000000E+01 0. -1.
         -5    1    3    3    0  502  0.53449198767E+02  0.91591921818E+02  0.14650045642E+03  0.18090260673E+03  0.41800000000E+01 0. -1.
        -11    1    1    2    0    0  0.25716047619E+02 -0.24027251495E+02  0.30762039179E+02  0.46743202436E+02  0.00000000000E+00 0.  1.
         11    1    1    2    0    0 -0.64489963287E+02 -0.43714495756E+02  0.17909376120E+03  0.19530613868E+03  0.00000000000E+00 0. -1.
</event>
<event>
 7    1  0.2394257E-009  0.1087667E+03  0.7561462E-02  0.1262871E+00
         -1   -1    0    0    0  501 -0.00000000000E+00  0.00000000000E+00  0.96470860387E+03  0.96470860387E+03  0.00000000000E+00 0.  1.
          1   -1    0    0  501    0  0.00000000000E+00 -0.00000000000E+00 -0.21247273649E+02  0.21247273649E+02  0.00000000000E+00 0. -1.
         25    2    1    2    0    0  0.42907841308E+02 -0.70134517760E+02  0.66062287055E+03  0.67736905914E+03  0.12508529793E+03 0.  0.
          5    1    3    3  502    0  0.29067112178E+02 -0.88512000571E+02  0.63818221423E+03  0.64495990745E+03  0.41800000000E+01 0.  1.
         -5    1    3    3    0  502  0.13840729130E+02  0.18377482811E+02  0.22440656322E+02  0.32409151693E+02  0.41800000000E+01 0.  1.
        -11    1    1    2    0    0 -0.39887298295E+01  0.60721881130E+02  0.73351151619E+02  0.95307125953E+02  0.00000000000E+00 0. -1.
         11    1    1    2    0    0 -0.38919111478E+02  0.94126366304E+01  0.20948730805E+03  0.21327969242E+03  0.00000000000E+00 0.  1.
</event>
<event>
 7    1  0.2394257E-009  0.1394478E+03  0.7561462E-02  0.1214074E+00
          2   -1    0    0  501    0  0.00000000000E+00  0.00000000000E+00  0.58259823721E+03  0.58259823721E+03  0.00000000000E+00 0. -1.
         -2   -1    0    0    0  501 -0.00000000000E+00 -0.00000000000E+00 -0.63531295122E+02  0.63531295122E+02  0.00000000000E+00 0.  1.
         25    2    1    2    0    0  0.36491652474E+02  0.85067123807E+02  0.48815284742E+03  0.51235657823E+03  0.12509198437E+03 0.  0.
          5    1    3    3  502    0  0.21686729821E+02 -0.27428764514E+02  0.19162113397E+03  0.19483013822E+03  0.41800000000E+01 0. -1.
         -5    1    3    3    0  502  0.14804922653E+02  0.11249588832E+03  0.29653171345E+03  0.31752644001E+03  0.41800000000E+01 0. -1.
        -11    1    1    2    0    0 -0.60802373732E+02 -0.25747317561E+02  0.16687557475E+02  0.68105268427E+02  0.00000000000E+00 0.  1.
         11    1    1    2    0    0  0.24310721258E+02 -0.59319806246E+02  0.14226537185E+02  0.65667685671E+02  0.00000000000E+00 0. -1.
</event>
<event>
 7    1  0.2394257E-009  0.2680801E+03  0.7561462E-02  0.1102383E+00
         -2   -1    0    0    0  501 -0.00000000000E+00  0.00000000000E+00  0.70433507566E+02  0.70433507566E+02  0.00000000000E+00 0.  1.
          2   -1    0    0  501    0  0.00000000000E+00 -0.00000000000E+00 -0.12366101169E+04  0.12366101169E+04  0.00000000000E+00 0. -1.
         25    2    1    2    0    0 -0.42937307009E+02 -0.24316924949E+03 -0.86080638206E+03  0.90421828633E+03  0.12509270846E+03 0.  0.
          5    1    3    3  502    0 -0.84883617816E+02 -0.19493910803E+03 -0.67132252941E+03  0.70420018127E+03  0.41800000000E+01 0.  1.
         -5    1    3    3    0  502  0.41946310807E+02 -0.48230141463E+02 -0.18948385265E+03  0.20001810506E+03  0.41800000000E+01 0.  1.
        -11    1    1    2    0    0  0.62479109058E+02  0.22204782422E+03 -0.28882351237E+03  0.36963210981E+03  0.00000000000E+00 0. -1.
         11    1    1    2    0    0 -0.19541802049E+02  0.21121425274E+02 -0.16546714922E+02  0.33193228340E+02  0.00000000000E+00 0.  1.
</event>
<event>
 7    1  0.2394257E-009  0.1047593E+03  0.7561462E-02  0.1270595E+00
         -1   -1    0    0    0  501 -0.00000000000E+00  0.00000000000E+00  0.20306873669E+03  0.20306873669E+03  0.00000000000E+00 0.  1.
          1   -1    0    0  501    0  0.00000000000E+00 -0.00000000000E+00 -0.89912169921E+02  0.89912169921E+02  0.00000000000E+00 0. -1.
         25    2    1    2    0    0  0.88156146079E+01 -0.69604411418E+02  0.22362802780E+02  0.14515592554E+03  0.12509060166E+03 0.  0.
          5    1    3    3  502    0 -0.14548180980E+02  0.16561750716E+02 -0.33086902026E+02  0.39976951388E+02  0.41800000000E+01 0.  1.
         -5    1    3    3    0  502  0.23363795588E+02 -0.86166162134E+02  0.55449704806E+02  0.10517897416E+03  0.41800000000E+01 0.  1.
        -11    1    1    2    0    0 -0.35846792551E+02  0.58230620030E+02  0.96177747716E+02  0.11800829124E+03  0.00000000000E+00 0.  1.
         11    1    1    2    0    0  0.27031177943E+02  0.11373791388E+02 -0.53839837288E+01  0.29816689828E+02  0.00000000000E+00 0. -1.
</event>
<event>
 7    1  0.2394257E-009  0.2144317E+03  0.7561462E-02  0.1138104E+00
          1   -1    0    0  501    0  0.00000000000E+00  0.00000000000E+00  0.13893796841E+03  0.13893796841E+03  0.00000000000E+00 0. -1.
         -1   -1    0    0    0  501 -0.00000000000E+00 -0.00000000000E+00 -0.40207790682E+03  0.40207790682E+03  0.00000000000E+00 0.  1.
         25    2    1    2    0    0  0.18773347855E+03 -0.68599403394E+02 -0.20748395420E+03  0.31408040369E+03  0.12508865502E+03 0.  0.
          5    1    3    3  502    0  0.12059204497E+03 -0.84263021188E+02 -0.76188798298E+02  0.16572538561E+03  0.41800000000E+01 0.  1.
         -5    1    3    3    0  502  0.67141433580E+02  0.15663617794E+02 -0.13129515590E+03  0.14835501808E+03  0.41800000000E+01 0.  1.
        -11    1    1    2    0    0 -0.10937382145E+03  0.13876611938E+01  0.56390629607E+00  0.10938407751E+03  0.00000000000E+00 0. -1.
         11    1    1    2    0    0 -0.78359657104E+02  0.67211742200E+02 -0.56219890515E+02  0.11755139404E+03  0.00000000000E+00 0.  1.
</event>
<event>
 7    1  0.2394257E-009  0.9618219E+02  0.7561462E-02  0.1288535E+00
         -1   -1    0    0    0  501 -0.00000000000E+00  0.00000000000E+00  0.95191109769E+02  0.95191109769E+02  0.00000000000E+00 0.  1.
          1   -1    0    0  501    0  0.00000000000E+00 -0.00000000000E+00 -0.16008897639E+03  0.16008897639E+03  0.00000000000E+00 0. -1.
         25    2    1    2    0    0 -0.49781715798E+02  0.12336416991E+02  0.46558225011E+01  0.13527673951E+03  0.12509081963E+03 0.  0.
          5    1    3    3  502    0 -0.17968814212E+02  0.65331553545E+02 -0.16409581733E+02  0.69841513052E+02  0.41800000000E+01 0. -1.
         -5    1    3    3    0  502 -0.31812901586E+02 -0.52995136554E+02  0.21065404234E+02  0.65435226455E+02  0.41800000000E+01 0. -1.
        -11    1    1    2    0    0  0.41689698820E+02  0.63429236843E+01 -0.84708759950E+02  0.94624720242E+02  0.00000000000E+00 0. -1.
         11    1    1    2    0    0  0.80920169776E+01 -0.18679340675E+02  0.15155070826E+02  0.25378626412E+02  0.00000000000E+00 0.  1.
</event>
<event>
 7    1  0.2394257E-009  0.8505904E+02  0.7561462E-02  0.1315278E+00
         -1   -1    0    0    0  501 -0.00000000000E+00  0.00000000000E+00  0.33989346180E+03  0.33989346180E+03  0.00000000000E+00 0.  1.
          1   -1    0    0  501    0  0.00000000000E+00 -0.00000000000E+00 -0.49087914442E+02  0.49087914442E+02  0.00000000000E+00 0. -1.
         25    2    1    2    0    0  0.40684112294E+02 -0.51040856510E+02  0.21125421973E+03  0.25404036210E+03  0.12509114356E+03 0.  0.
          5    1    3    3  502    0  0.11604258927E+02 -0.18219409975E+02  0.20876437259E+03  0.20992055971E+03  0.41800000000E+01 0. -1.
         -5    1    3    3    0  502  0.29079853367E+02 -0.32821446535E+02  0.24898471403E+01  0.44119802394E+02  0.41800000000E+01 0. -1.
        -11    1    1    2    0    0 -0.36219395249E+02 -0.14030860711E+02  0.11115082338E+02  0.40401172011E+02  0.00000000000E+00 0.  1.
         11    1    1    2    0    0 -0.44647170454E+01  0.65071717221E+02  0.68436245284E+02  0.94539842125E+02  0.00000000000E+00 0. -1.
</event>
<event>
 7    1  0.2394257E-009  0.1172197E+03  0.7561462E-02  0.1247755E+00
          2   -1    0    0  501    0  0.00000000000E+00  0.00000000000E+00  0.52280079323E+03  0.52280079323E+03  0.00000000000E+00 0. -1.
         -2   -1    0    0    0  501 -0.00000000000E+00 -0.00000000000E+00 -0.63608292152E+02  0.63608292152E+02  0.00000000000E+00 0.  1.
         25    2    1    2    0    0  0.55555433149E+02 -0.36769030597E+02  0.45386426580E+03  0.47547799274E+03  0.12509269384E+03 0.  0.
          5    1    3    3  502    0  0.37380253342E+02  0.41374508694E+02  0.12488892465E+03  0.13683511688E+03  0.41800000000E+01 0. -1.
         -5    1    3    3    0  502  0.18175179807E+02 -0.78143539291E+02  0.32897534115E+03  0.33864287587E+03  0.41800000000E+01 0. -1.
        -11    1    1    2    0    0  0.11906558351E+02  0.27656462983E+02  0.26004788913E+02  0.39785614522E+02  0.00000000000E+00 0. -1.
         11    1    1    2    0    0 -0.67461991500E+02  0.91125676137E+01 -0.20676553636E+02  0.71145478113E+02  0.00000000000E+00 0.  1.
</event>
<event>
 7    1  0.2394257E-009  0.9720667E+02  0.7561462E-02  0.1286282E+00
         -1   -1    0    0    0  501 -0.00000000000E+00  0.00000000000E+00  0.19953732655E+03  0.19953732655E+03  0.00000000000E+00 0.  1.
          1   -1    0    0  501    0  0.00000000000E+00 -0.00000000000E+00 -0.62857980819E+02  0.62857980819E+02  0.00000000000E+00 0. -1.
         25    2    1    2    0    0 -0.86216576718E+01 -0.11862953429E+02  0.10385599046E+03  0.16324574082E+03  0.12509213604E+03 0.  0.
          5    1    3    3  502    0 -0.64485637478E+02 -0.21838131794E+02  0.65912335184E+02  0.94853622865E+02  0.41800000000E+01 0.  1.
         -5    1    3    3    0  502  0.55863979807E+02  0.99751783653E+01  0.37943655272E+02  0.68392117957E+02  0.41800000000E+01 0.  1.
        -11    1    1    2    0    0  0.37106430034E+02  0.16198375932E+02  0.50973456127E+02  0.65096603308E+02  0.00000000000E+00 0.  1.
         11    1    1    2    0    0 -0.28484772362E+02 -0.43354225032E+01 -0.18150100849E+02  0.34052963243E+02  0.00000000000E+00 0. -1.
</event>
<event>
 7    1  0.2394257E-009  0.1393693E+03  0.7561462E-02  0.1214180E+00
          3   -1    0    0  501    0  0.00000000000E+00  0.00000000000E+00  0.20580841199E+03  0.20580841199E+03  0.00000000000E+00 0. -1.
         -3   -1    0    0    0  501 -0.00000000000E+00 -0.00000000000E+00 -0.11748564908E+03  0.11748564908E+03  0.00000000000E+00 0.  1.
         25    2    1    2    0    0 -0.75609251704E+02 -0.79941905890E+02  0.65362760762E+02  0.17895978604E+03  0.12508735853E+03 0.  0.
          5    1    3    3  502    0 -0.69860507183E+02 -0.11093343973E+03  0.66671021371E+02  0.14713672554E+03  0.41800000000E+01 0. -1.
         -5    1    3    3    0  502 -0.57487445215E+01  0.30991533837E+02 -0.13082606092E+01  0.31823060490E+02  0.41800000000E+01 0. -1.
        -11    1    1    2    0    0 -0.12904761552E+01  0.15197188881E+02 -0.27808130413E+02  0.31716115709E+02  0.00000000000E+00 0.  1.
         11    1    1    2    0    0  0.76899727859E+02  0.64744717009E+02  0.50768132559E+02  0.11261815932E+03  0.00000000000E+00 0. -1.
</event>
<event>
 7    1  0.2394257E-009  0.1039832E+03  0.7561462E-02  0.1272136E+00
         -4   -1    0    0    0  501 -0.00000000000E+00  0.00000000000E+00  0.46246848401E+02  0.46246848401E+02  0.00000000000E+00 0.  1.
          4   -1    0    0  501    0  0.00000000000E+00 -0.00000000000E+00 -0.38776185272E+03  0.38776185272E+03  0.00000000000E+00 0. -1.
         25    2    1    2    0    0  0.44626878602E+02 -0.20447666068E+02 -0.96206573693E+02  0.16527274149E+03  0.12509879662E+03 0.  0.
          5    1    3    3  502    0  0.36516929820E+02 -0.70637224586E+02 -0.39131612960E+02  0.88723498542E+02  0.41800000000E+01 0. -1.
         -5    1    3    3    0  502  0.81099487815E+01  0.50189558518E+02 -0.57074960733E+02  0.76549242949E+02  0.41800000000E+01 0. -1.
        -11    1    1    2    0    0 -0.38483144818E+02 -0.15035092281E+02 -0.31600709704E+02  0.52015490854E+02  0.00000000000E+00 0.  1.
         11    1    1    2    0    0 -0.61437337833E+01  0.35482758349E+02 -0.21370772092E+03  0.21672046877E+03  0.00000000000E+00 0. -1.
</event>
<event>
 7    1  0.2394257E-009  0.1173330E+03  0.7561462E-02  0.1247563E+00
          1   -1    0    0  501    0  0.00000000000E+00  0.00000000000E+00  0.44502072686E+03  0.44502072686E+03  0.00000000000E+00 0. -1.
         -1   -1    0    0    0  501 -0.00000000000E+00 -0.00000000000E+00 -0.34069820310E+02  0.34069820310E+02  0.00000000000E+00 0.  1.
         25    2    1    2    0    0 -0.56915774368E+02  0.11688219293E+02  0.22510490494E+03  0.26400058063E+03  0.12509223997E+03 0.  0.
          5    1    3    3  502    0 -0.12908468061E+02 -0.54114595586E+02  0.67411309898E+02  0.87503000550E+02  0.41800000000E+01 0. -1.
         -5    1    3    3    0  502 -0.44007306307E+02  0.65802814879E+02  0.15769359505E+03  0.17649758008E+03  0.41800000000E+01 0. -1.
        -11    1    1    2    0    0 -0.14141907260E+02 -0.23640892488E+02  0.19332564183E+02  0.33654618947E+02  0.00000000000E+00 0.  1.
         11    1    1    2    0    0  0.71057681628E+02  0.11952673196E+02  0.16651343742E+03  0.18143534759E+03  0.00000000000E+00 0. -1.
</event>
<event>
 7    1  0.2394257E-009  0.1079678E+03  0.7561462E-02  0.1264380E+00
         -1   -1    0    0    0  501 -0.00000000000E+00  0.00000000000E+00  0.57850495650E+02  0.57850495650E+02  0.00000000000E+00 0.  1.
          1   -1    0    0  501    0  0.00000000000E+00 -0.00000000000E+00 -0.25677574323E+03  0.25677574323E+03  0.00000000000E+00 0. -1.
         25    2    1    2    0    0 -0.55775909177E+02  0.95124401238E+01 -0.12056578947E+03  0.18271688502E+03  0.12509161411E+03 0.  0.
          5    1    3    3  502    0 -0.80739167590E+02  0.43362488670E+02 -0.10001581975E+03  0.13571939879E+03  0.41800000000E+01 0.  1.
         -5    1    3    3    0  502  0.24963258414E+02 -0.33850048547E+02 -0.20549969718E+02  0.46997486237E+02  0.41800000000E+01 0.  1.
        -11    1    1    2    0    0  0.40828810848E+02  0.22484909615E+02 -0.84077394974E+02  0.96133091604E+02  0.00000000000E+00 0. -1.
         11    1    1    2    0    0  0.14947098329E+02 -0.31997349738E+02  0.57179368620E+01  0.35776262251E+02  0.00000000000E+00 0.  1.
</event>
<event>
 7    1  0.2394257E-009  0.9897777E+02  0.7561462E-02  0.1282460E+00
          1   -1    0    0  501    0  0.00000000000E+00  0.00000000000E+00  0.78528603248E+02  0.78528603248E+02  0.00000000000E+00 0. -1.
         -1   -1    0    0    0  501 -0.00000000000E+00 -0.00000000000E+00 -0.18964185379E+03  0.18964185379E+03  0.00000000000E+00 0.  1.
         25    2    1    2    0    0  0.18579636159E+02 -0.36157066621E+02 -0.10366321636E+03  0.16746716290E+03  0.12508657752E+03 0.  0.
          5    1    3    3  502    0 -0.26377540695E+02 -0.44941276193E+02  0.19057871340E+01  0.52312497394E+02  0.41800000000E+01 0. -1.
         -5    1    3    3    0  502  0.44957176855E+02  0.87842095716E+01 -0.10556900349E+03  0.11515466550E+03  0.41800000000E+01 0. -1.
        -11    1    1    2    0    0  0.16366603687E+02  0.56787312203E+02 -0.10432397329E+02  0.60012494178E+02  0.00000000000E+00 0. -1.
         11    1    1    2    0    0 -0.34946239847E+02 -0.20630245581E+02  0.29823631402E+01  0.40690799968E+02  0.00000000000E+00 0.  1.
</event>
<event>
 7    1  0.2394257E-009  0.1252818E+03  0.7561462E-02  0.1234629E+00
          2   -1    0    0  501    0  0.00000000000E+00  0.00000000000E+00  0.97039198543E+02  0.97039198543E+02  0.00000000000E+00 0. -1.
         -2   -1    0    0    0  501 -0.00000000000E+00 -0.00000000000E+00 -0.23983272187E+03  0.23983272187E+03  0.00000000000E+00 0.  1.
         25    2    1    2    0    0 -0.44831003154E+02  0.59485167729E+02 -0.16195459079E+03  0.21777282225E+03  0.12508960232E+03 0.  0.
          5    1    3    3  502    0 -0.49881474846E+02  0.90339876950E+02 -0.15368243658E+03  0.18516268148E+03  0.41800000000E+01 0. -1.
         -5    1    3    3    0  502  0.50504716925E+01 -0.30854709221E+02 -0.82721542099E+01  0.32610140765E+02  0.41800000000E+01 0. -1.
        -11    1    1    2    0    0  0.70085812309E+02 -0.28233726663E+02  0.24970077958E+01  0.75600260954E+02  0.00000000000E+00 0.  1.
         11    1    1    2    0    0 -0.25254809156E+02 -0.31251441066E+02  0.16664059668E+02  0.43498837212E+02  0.00000000000E+00 0. -1.
</event>
<event>
 7    1  0.2394257E-009  0.8247361E+02  0.7561462E-02  0.1322175E+00
          1   -1    0    0  501    0  0.00000000000E+00  0.00000000000E+00  0.72402163199E+02  0.72402163199E+02  0.00000000000E+00 0. -1.
         -1   -1    0    0    0  501 -0.00000000000E+00 -0.00000000000E+00 -0.19612079781E+03  0.19612079781E+03  0.00000000000E+00 0.  1.
         25    2    1    2    0    0 -0.19657925722E+02 -0.89593204537E+01 -0.12034133567E+03  0.17491915613E+03  0.12509184884E+03 0.  0.
          5    1    3    3  502    0  0.30357987693E+02  0.39870393595E+02 -0.78865368995E+02  0.93533280328E+02  0.41800000000E+01 0.  1.
         -5    1    3    3    0  502 -0.50015913416E+02 -0.48829714049E+02 -0.41475966672E+02  0.81385875803E+02  0.41800000000E+01 0.  1.
        -11    1    1    2    0    0  0.13820312346E+02  0.24448157829E+02  0.39028157849E+02  0.48082331055E+02  0.00000000000E+00 0. -1.
         11    1    1    2    0    0  0.58376133763E+01 -0.15488837375E+02 -0.42405456789E+02  0.45521473819E+02  0.00000000000E+00 0.  1.
</event>
<event>
 7    1  0.2394257E-009  0.1049640E+03  0.7561462E-02  0.1270191E+00
          2   -1    0    0  501    0  0.00000000000E+00  0.00000000000E+00  0.37187248738E+03  0.37187248738E+03  0.00000000000E+00 0. -1.
         -2   -1    0    0    0  501 -0.00000000000E+00 -0.00000000000E+00 -0.35376786958E+02  0.35376786958E+02  0.00000000000E+00 0.  1.
         25    2    1    2    0    0  0.10083065262E+02  0.17137708147E+02  0.13895668580E+03  0.18802116858E+03  0.12509048749E+03 0.  0.
          5    1    3    3  502    0  0.30137780193E+02  0.66438485975E+02  0.75052982121E+02  0.10475104171E+03  0.41800000000E+01 0. -1.
         -5    1    3    3    0  502 -0.20054714931E+02 -0.49300777828E+02  0.63903703683E+02  0.83270126876E+02  0.41800000000E+01 0. -1.
        -11    1    1    2    0    0 -0.42968690590E+02  0.58184330606E+01  0.15419619053E+03  0.16017686383E+03  0.00000000000E+00 0. -1.
         11    1    1    2    0    0  0.32885625328E+02 -0.22956141207E+02  0.43342824096E+02  0.59051241925E+02  0.00000000000E+00 0.  1.
</event>
<event>
 7    1  0.2394257E-009  0.1341008E+03  0.7561462E-02  0.1221495E+00
         -1   -1    0    0    0  501 -0.00000000000E+00  0.00000000000E+00  0.38346292170E+02  0.38346292170E+02  0.00000000000E+00 0.  1.
          1   -1    0    0  501    0  0.00000000000E+00 -0.00000000000E+00 -0.63224439132E+03  0.63224439132E+03  0.00000000000E+00 0. -1.
         25    2    1    2    0    0 -0.63260761136E+02  0.73137959564E+02 -0.44258649544E+03  0.46998093337E+03  0.12509271264E+03 0.  0.
          5    1    3    3  502    0 -0.29299841610E+02 -0.34180879902E+02 -0.13916698482E+03  0.14632749343E+03  0.41800000000E+01 0. -1.
         -5    1    3    3    0  502 -0.33960919526E+02  0.10731883947E+03 -0.30341951062E+03  0.32365343994E+03  0.41800000000E+01 0. -1.
        -11    1    1    2    0    0 -0.21042852278E+01 -0.34195143023E+02 -0.35933764043E+01  0.34447760111E+02  0.00000000000E+00 0.  1.
         11    1    1    2    0    0  0.65365046363E+02 -0.38942816541E+02 -0.14771822730E+03  0.16616199001E+03  0.00000000000E+00 0. -1.
</event>
<event>
 7    1  0.2394257E-009  0.1854843E+03  0.7561462E-02  0.1162598E+00
         -2   -1    0    0    0  501 -0.00000000000E+00  0.00000000000E+00  0.17195191455E+03  0.17195191455E+03  0.00000000000E+00 0.  1.
          2   -1    0    0  501    0  0.00000000000E+00 -0.00000000000E+00 -0.25301622685E+03  0.25301622685E+03  0.00000000000E+00 0. -1.
         25    2    1    2    0    0 -0.10719412003E+02 -0.16698640605E+03 -0.10556055248E+03  0.23407161780E+03  0.12508847438E+03 0.  0.
          5    1    3    3  502    0 -0.37910827335E+02 -0.36710387775E+02  0.14391823002E+02  0.54858731020E+02  0.41800000000E+01 0. -1.
         -5    1    3    3    0  502  0.27191415332E+02 -0.13027601827E+03 -0.11995237548E+03  0.17921288678E+03  0.41800000000E+01 0. -1.
        -11    1    1    2    0    0  0.44781223119E+02  0.84327700417E+02  0.33162912302E+02  0.10107570308E+03  0.00000000000E+00 0. -1.
         11    1    1    2    0    0 -0.34061811117E+02  0.82658705629E+02 -0.86666721162E+01  0.89820820517E+02  0.00000000000E+00 0.  1.
</event>
<event>
 7    1  0.2394257E-009  0.1280692E+03  0.7561462E-02  0.1230349E+00
         -2   -1    0    0    0  501 -0.00000000000E+00  0.00000000000E+00  0.14915766728E+03  0.14915766728E+03  0.00000000000E+00 0.  1.
          2   -1    0    0  501    0  0.00000000000E+00 -0.00000000000E+00 -0.24265698242E+03  0.24265698242E+03  0.00000000000E+00 0. -1.
         25    2    1    2    0    0 -0.50127739488E+01  0.12331913887E+03  0.49063620440E+02  0.18244246295E+03  0.12508107579E+03 0.  0.
          5    1    3    3  502    0 -0.80560425365E+01  0.65640693884E+02  0.89827183294E+02  0.11162435117E+03  0.41800000000E+01 0. -1.
         -5    1    3    3    0  502  0.30432685877E+01  0.57678444986E+02 -0.40763562854E+02  0.70818111781E+02  0.41800000000E+01 0. -1.
        -11    1    1    2    0    0 -0.19756456530E+02 -0.76334024903E+02 -0.29019605698E+02  0.84019869361E+02  0.00000000000E+00 0.  1.
         11    1    1    2    0    0  0.24769230478E+02 -0.46985113967E+02 -0.11354332988E+03  0.12535231738E+03  0.00000000000E+00 0. -1.
</event>
<event>
 7    1  0.2394257E-009  0.1194482E+03  0.7561462E-02  0.1244010E+00
         -2   -1    0    0    0  501 -0.00000000000E+00  0.00000000000E+00  0.37272234660E+02  0.37272234660E+02  0.00000000000E+00 0.  1.
          2   -1    0    0  501    0  0.00000000000E+00 -0.00000000000E+00 -0.47372050826E+03  0.47372050826E+03  0.00000000000E+00 0. -1.
         25    2    1    2    0    0 -0.64811426539E+02  0.19571897308E+02 -0.30432990541E+03  0.33593580578E+03  0.12511032773E+03 0.  0.
          5    1    3    3  502    0  0.23842168270E+02 -0.15363830378E+02 -0.17327686460E+02  0.33499513276E+02  0.41800000000E+01 0. -1.
         -5    1    3    3    0  502 -0.88653594808E+02  0.34935727686E+02 -0.28700221895E+03  0.30243629250E+03  0.41800000000E+01 0. -1.
        -11    1    1    2    0    0  0.12742286479E+02 -0.51977263656E+02 -0.61321539186E+02  0.81390005345E+02  0.00000000000E+00 0.  1.
         11    1    1    2    0    0  0.52069140059E+02  0.32405366348E+02 -0.70796829000E+02  0.93666931791E+02  0.00000000000E+00 0. -1.
</event>
<event>
 7    1  0.2394257E-009  0.1382533E+03  0.7561462E-02  0.1215699E+00
         -1   -1    0    0    0  501 -0.00000000000E+00  0.00000000000E+00  0.93614090355E+02  0.93614090355E+02  0.00000000000E+00 0.  1.
          1   -1    0    0  501    0  0.00000000000E+00 -0.00000000000E+00 -0.22222439380E+03  0.22222439380E+03  0.00000000000E+00 0. -1.
         25    2    1    2    0    0 -0.54903713709E+02 -0.75596689100E+02 -0.86021658142E+02  0.17825838876E+03  0.12508817015E+03 0.  0.
          5    1    3    3  502    0 -0.91044564667E+02 -0.47798786495E+02 -0.32717205621E+02  0.10798946564E+03  0.41800000000E+01 0.  1.
         -5    1    3    3    0  502  0.36140850958E+02 -0.27797902604E+02 -0.53304452521E+02  0.70268923115E+02  0.41800000000E+01 0.  1.
        -11    1    1    2    0    0 -0.23592100011E+02  0.25227600297E+02  0.11668261136E+01  0.34559810226E+02  0.00000000000E+00 0.  1.
         11    1    1    2    0    0  0.78495813720E+02  0.50369088802E+02 -0.43755471419E+02  0.10302028517E+03  0.00000000000E+00 0. -1.
</event>
<event>
 7    1  0.2394257E-009  0.1394034E+03  0.7561462E-02  0.1214134E+00
          3   -1    0    0  501    0  0.00000000000E+00  0.00000000000E+00  0.22764602322E+03  0.22764602322E+03  0.00000000000E+00 0. -1.
         -3   -1    0    0    0  501 -0.00000000000E+00 -0.00000000000E+00 -0.11791297691E+03  0.11791297691E+03  0.00000000000E+00 0.  1.
         25    2    1    2    0    0 -0.43093045753E+01 -0.12007147322E+03  0.81649395626E+02  0.19169750726E+03  0.12508229970E+03 0.  0.
          5    1    3    3  502    0 -0.51049689677E+02 -0.77856252694E+02  0.88103644344E+02  0.12824738378E+03  0.41800000000E+01 0. -1.
         -5    1    3    3    0  502  0.46740385102E+02 -0.42215220526E+02 -0.64542487178E+01  0.63450123483E+02  0.41800000000E+01 0. -1.
        -11    1    1    2    0    0  0.12916501013E+02  0.41847860575E+02  0.55345357858E+02  0.70577532328E+02  0.00000000000E+00 0. -1.
         11    1    1    2    0    0 -0.86071964381E+01  0.78223612645E+02 -0.27261707170E+02  0.83283960542E+02  0.00000000000E+00 0.  1.
</event>
<event>
 7    1  0.2394257E-009  0.1054854E+03  0.7561462E-02  0.1269166E+00
         -2   -1    0    0    0  501 -0.00000000000E+00  0.00000000000E+00  0.62549325830E+02  0.62549325830E+02  0.00000000000E+00 0.  1.
          2   -1    0    0  501    0  0.00000000000E+00 -0.00000000000E+00 -0.31512565678E+03  0.31512565678E+03  0.00000000000E+00 0. -1.
         25    2    1    2    0    0  0.39948288435E+02 -0.73889745540E+02 -0.17697301762E+03  0.23242764781E+03  0.12509037636E+03 0.  0.
          5    1    3    3  502    0  0.23674844543E+02  0.35266389032E+01  0.12307998137E+02  0.27237743376E+02  0.41800000000E+01 0.  1.
         -5    1    3    3    0  502  0.16273443893E+02 -0.77416384444E+02 -0.18928101575E+03  0.20518990443E+03  0.41800000000E+01 0.  1.
        -11    1    1    2    0    0 -0.33403982733E+02  0.12980127805E+00 -0.61326421063E+02  0.69833894573E+02  0.00000000000E+00 0. -1.
         11    1    1    2    0    0 -0.65443057024E+01  0.73759944262E+02 -0.14276892276E+02  0.75413440233E+02  0.00000000000E+00 0.  1.
</event>
<event>
 7    1  0.2394257E-009  0.8323421E+02  0.7561462E-02  0.1320116E+00
         -1   -1    0    0    0  501 -0.00000000000E+00  0.00000000000E+00  0.26336418826E+02  0.26336418826E+02  0.00000000000E+00 0.  1.
          1   -1    0    0  501    0  0.00000000000E+00 -0.00000000000E+00 -0.50658996808E+03  0.50658996808E+03  0.00000000000E+00 0. -1.
         25    2    1    2    0    0 -0.17560137481E+02 -0.26862638818E+02 -0.22269495674E+03  0.25742847174E+03  0.12508562873E+03 0.  0.
          5    1    3    3  502    0 -0.41085800878E+02 -0.12440233352E+02 -0.22530600785E+03  0.22939719269E+03  0.41800000000E+01 0. -1.
         -5    1    3    3    0  502  0.23525663397E+02 -0.14422405466E+02  0.26110511096E+01  0.28031279058E+02  0.41800000000E+01 0. -1.
        -11    1    1    2    0    0 -0.22367901607E+02  0.46000535249E+02 -0.10760097874E+03  0.11914001381E+03  0.00000000000E+00 0.  1.
         11    1    1    2    0    0  0.39928039088E+02 -0.19137896431E+02 -0.14995761378E+03  0.15635790135E+03  0.00000000000E+00 0. -1.
</event>
<event>
 7    1  0.2394257E-009  0.1465647E+03  0.7561462E-02  0.1204759E+00
          4   -1    0    0  501    0  0.00000000000E+00  0.00000000000E+00  0.29784758446E+03  0.29784758446E+03  0.00000000000E+00 0. -1.
         -4   -1    0    0    0  501 -0.00000000000E+00 -0.00000000000E+00 -0.84965299201E+02  0.84965299201E+02  0.00000000000E+00 0.  1.
         25    2    1    2    0    0 -0.93106527910E+02  0.43936923663E+02  0.17692124953E+03  0.23988885403E+03  0.12508499092E+03 0.  0.
          5    1    3    3  502    0  0.85072130942E+01 -0.32995141280E+02  0.33332717007E+02  0.47849706852E+02  0.41800000000E+01 0.  1.
         -5    1    3    3    0  502 -0.10161374100E+03  0.76932064943E+02  0.14358853252E+03  0.19203914718E+03  0.41800000000E+01 0.  1.
        -11    1    1    2    0    0  0.64915898139E+00 -0.38666861610E+02  0.32061829377E+02  0.50234534905E+02  0.00000000000E+00 0. -1.
         11    1    1    2    0    0  0.92457368928E+02 -0.52700620528E+01  0.38992063571E+01  0.92689494730E+02  0.00000000000E+00 0.  1.
</event>
<event>
 7    1  0.2394257E-009  0.2410312E+03  0.7561462E-02  0.1119108E+00
          1   -1    0    0  501    0  0.00000000000E+00  0.00000000000E+00  0.12745721696E+04  0.12745721696E+04  0.00000000000E+00 0. -1.
         -1   -1    0    0    0  501 -0.00000000000E+00 -0.00000000000E+00 -0.59934711102E+02  0.59934711102E+02  0.00000000000E+00 0.  1.
         25    2    1    2    0    0  0.43489417985E+02  0.22112920345E+03  0.33869449638E+03  0.42561848936E+03  0.12509069712E+03 0.  0.
          5    1    3    3  502    0  0.83970444373E+02  0.14041383594E+03  0.18234734908E+03  0.24502062967E+03  0.41800000000E+01 0. -1.
         -5    1    3    3    0  502 -0.40481026388E+02  0.80715367517E+02  0.15634714731E+03  0.18059785968E+03  0.41800000000E+01 0. -1.
        -11    1    1    2    0    0 -0.13340238719E+02 -0.15207651357E+03  0.71589795649E+03  0.73199392898E+03  0.00000000000E+00 0.  1.
         11    1    1    2    0    0 -0.30149179266E+02 -0.69052689884E+02  0.16004500557E+03  0.17689446232E+03  0.00000000000E+00 0. -1.
</event>
<event>
 7    1  0.2394257E-009  0.1900374E+03  0.7561462E-02  0.1158428E+00
         -2   -1    0    0    0  501 -0.00000000000E+00  0.00000000000E+00  0.27851611303E+02  0.27851611303E+02  0.00000000000E+00 0.  1.
          2   -1    0    0  501    0  0.00000000000E+00 -0.00000000000E+00 -0.13994226370E+04  0.13994226370E+04  0.00000000000E+00 0. -1.
         25    2    1    2    0    0  0.16487244984E+03  0.20788877080E+02 -0.57009669417E+03  0.60685444544E+03  0.12508786961E+03 0.  0.
          5    1    3    3  502    0  0.58261816403E+02 -0.51598578783E+02 -0.24611414404E+03  0.25815982816E+03  0.41800000000E+01 0.  1.
         -5    1    3    3    0  502  0.10661063343E+03  0.72387455863E+02 -0.32398255013E+03  0.34869461728E+03  0.41800000000E+01 0.  1.
        -11    1    1    2    0    0 -0.32213173734E+01 -0.10773258431E+02 -0.28058945333E+02  0.30228205307E+02  0.00000000000E+00 0.  1.
         11    1    1    2    0    0 -0.16165113246E+03 -0.10015618649E+02 -0.77341538621E+03  0.79019159757E+03  0.00000000000E+00 0. -1.
</event>
<event>
 7    1  0.2624081E-009  0.1509803E+03  0.7561462E-02  0.1199274E+00
         -1   -1    0    0    0  501 -0.00000000000E+00  0.00000000000E+00  0.22108898668E+03  0.22108898668E+03  0.00000000000E+00 0.  1.
          1   -1    0    0  501    0  0.00000000000E+00 -0.00000000000E+00 -0.17130406087E+03  0.17130406087E+03  0.00000000000E+00 0. -1.
         25    2    1    2    0    0  0.49482241395E+02 -0.11518055592E+03  0.12840225349E+03  0.21874936961E+03  0.12509634417E+03 0.  0.
          5    1    3    3  502    0  0.31453322766E+02  0.21563561921E+02  0.36521003763E+02  0.52967488439E+02  0.41800000000E+01 0.  1.
         -5    1    3    3    0  502  0.18028918629E+02 -0.13674411784E+03  0.91881249731E+02  0.16578188117E+03  0.41800000000E+01 0.  1.
        -11    1    1    2    0    0 -0.37106291054E+02  0.77089216094E+02 -0.16027336724E+00  0.85554951705E+02  0.00000000000E+00 0.  1.
         11    1    1    2    0    0 -0.12375950341E+02  0.38091339828E+02 -0.78457054318E+02  0.88088726231E+02  0.00000000000E+00 0. -1.
</event>
<event>
 7    1  0.2394257E-009  0.1233748E+03  0.7561462E-02  0.1237631E+00
         -1   -1    0    0    0  501 -0.00000000000E+00  0.00000000000E+00  0.23445744907E+02  0.23445744907E+02  0.00000000000E+00 0.  1.
          1   -1    0    0  501    0  0.00000000000E+00 -0.00000000000E+00 -0.73571922669E+03  0.73571922669E+03  0.00000000000E+00 0. -1.
         25    2    1    2    0    0 -0.53430298472E+02  0.48941519229E+02 -0.44143844859E+03  0.46450542676E+03  0.12508924214E+03 0.  0.
          5    1    3    3  502    0  0.31316285790E+02  0.38473417824E+02 -0.24904606707E+03  0.25397308825E+03  0.41800000000E+01 0. -1.
         -5    1    3    3    0  502 -0.84746584262E+02  0.10468101405E+02 -0.19239238152E+03  0.21053233851E+03  0.41800000000E+01 0. -1.
        -11    1    1    2    0    0 -0.11168208732E+02  0.16236410002E+02 -0.86865135259E+02  0.89072451519E+02  0.00000000000E+00 0. -1.
         11    1    1    2    0    0  0.64598507204E+02 -0.65177929231E+02 -0.18396989793E+03  0.20558709332E+03  0.00000000000E+00 0.  1.
</event>
<event>
 7    1  0.2394257E-009  0.1019745E+03  0.7561462E-02  0.1276198E+00
          4   -1    0    0  501    0  0.00000000000E+00  0.00000000000E+00  0.28348989689E+03  0.28348989689E+03  0.00000000000E+00 0. -1.
         -4   -1    0    0    0  501 -0.00000000000E+00 -0.00000000000E+00 -0.52059863880E+02  0.52059863880E+02  0.00000000000E+00 0.  1.
         25    2    1    2    0    0 -0.43448659714E+02  0.25067860328E+02  0.16430345211E+03  0.21250727468E+03  0.12509010258E+03 0.  0.
          5    1    3    3  502    0 -0.50128042662E+02  0.70919663207E+02  0.12060587319E+03  0.14867975094E+03  0.41800000000E+01 0. -1.
         -5    1    3    3    0  502  0.66793829483E+01 -0.45851802878E+02  0.43697578922E+02  0.63827523745E+02  0.41800000000E+01 0. -1.
        -11    1    1    2    0    0  0.24084230214E+02  0.13290732812E+02 -0.14278291144E+02  0.30992956001E+02  0.00000000000E+00 0.  1.
         11    1    1    2    0    0  0.19364429500E+02 -0.38358593140E+02  0.81404872047E+02  0.92049530094E+02  0.00000000000E+00 0. -1.
</event>
<event>
 7    1  0.2394257E-009  0.1339770E+03  0.7561462E-02  0.1221671E+00
         -2   -1    0    0    0  501 -0.00000000000E+00  0.00000000000E+00  0.36711126261E+02  0.36711126261E+02  0.00000000000E+00 0. -1.
          2   -1    0    0  501    0  0.00000000000E+00 -0.00000000000E+00 -0.56014042459E+03  0.56014042459E+03  0.00000000000E+00 0.  1.
         25    2    1    2    0    0  0.79018921794E+02  0.28281537539E+02 -0.20157318611E+03  0.25163534866E+03  0.12507903089E+03 0.  0.
          5    1    3    3  502    0  0.11057347827E+03  0.36435978592E+02 -0.14270643369E+03  0.18421909035E+03  0.41800000000E+01 0. -1.
         -5    1    3    3    0  502 -0.31554556481E+02 -0.81544410533E+01 -0.58866752430E+02  0.67416258315E+02  0.41800000000E+01 0. -1.
        -11    1    1    2    0    0 -0.33118745807E+02 -0.55940629540E+02 -0.12128221198E+03  0.13760661430E+03  0.00000000000E+00 0. -1.
         11    1    1    2    0    0 -0.45900175987E+02  0.27659092001E+02 -0.20057390023E+03  0.20760958788E+03  0.00000000000E+00 0.  1.
</event>
<event>
 7    1  0.2394257E-009  0.1319838E+03  0.7561462E-02  0.1224542E+00
         -4   -1    0    0    0  501 -0.00000000000E+00  0.00000000000E+00  0.61021435633E+03  0.61021435633E+03  0.00000000000E+00 0.  1.
          4   -1    0    0  501    0  0.00000000000E+00 -0.00000000000E+00 -0.49267710510E+02  0.49267710510E+02  0.00000000000E+00 0. -1.
         25    2    1    2    0    0 -0.82306248938E+02  0.70371643133E+01  0.50039303836E+03  0.52236613030E+03  0.12509732591E+03 0.  0.
          5    1    3    3  502    0 -0.55452393002E+02  0.62128951998E+02  0.21877537433E+03  0.23412627229E+03  0.41800000000E+01 0.  1.
         -5    1    3    3    0  502 -0.26853855936E+02 -0.55091787684E+02  0.28161766403E+03  0.28823985801E+03  0.41800000000E+01 0.  1.
        -11    1    1    2    0    0  0.99287887983E+02  0.31773968722E+01  0.62241699511E+02  0.11722717138E+03  0.00000000000E+00 0.  1.
         11    1    1    2    0    0 -0.16981639045E+02 -0.10214561185E+02 -0.16880920524E+01  0.19888765161E+02  0.00000000000E+00 0. -1.
</event>
<event>
 7    1  0.2394257E-009  0.1387201E+03  0.7561462E-02  0.1215062E+00
         -2   -1    0    0    0  501 -0.00000000000E+00  0.00000000000E+00  0.42847250265E+02  0.42847250265E+02  0.00000000000E+00 0.  1.
          2   -1    0    0  501    0  0.00000000000E+00 -0.00000000000E+00 -0.72591553514E+03  0.72591553514E+03  0.00000000000E+00 0. -1.
         25    2    1    2    0    0  0.72834431945E+02 -0.97653521234E+02 -0.50409688568E+03  0.53348078815E+03  0.12508803496E+03 0.  0.
          5    1    3    3  502    0 -0.12987908159E+02 -0.53604439151E+01 -0.85856991929E+00  0.14684333816E+02  0.41800000000E+01 0.  1.
         -5    1    3    3    0  502  0.85822340104E+02 -0.92293077319E+02 -0.50323831576E+03  0.51879645434E+03  0.41800000000E+01 0.  1.
        -11    1    1    2    0    0 -0.61183025018E+02  0.30201678521E+02 -0.14186556234E+03  0.15742090622E+03  0.00000000000E+00 0. -1.
         11    1    1    2    0    0 -0.11651406927E+02  0.67451842713E+02 -0.37105836857E+02  0.77861091038E+02  0.00000000000E+00 0.  1.
</event>
<event>
 7    1  0.2394257E-009  0.1085691E+03  0.7561462E-02  0.1263243E+00
         -2   -1    0    0    0  501 -0.00000000000E+00  0.00000000000E+00  0.22823692569E+02  0.22823692569E+02  0.00000000000E+00 0. -1.
          2   -1    0    0  501    0  0.00000000000E+00 -0.00000000000E+00 -0.51696392524E+03  0.51696392524E+03  0.00000000000E+00 0.  1.
         25    2    1    2    0    0 -0.65509804583E+01 -0.59328683168E+01 -0.28652343533E+03  0.31276606844E+03  0.12509524494E+03 0.  0.
          5    1    3    3  502    0  0.69670923877E+01  0.58640684641E+02 -0.14163263564E+03  0.15350747914E+03  0.41800000000E+01 0. -1.
         -5    1    3    3    0  502 -0.13518072846E+02 -0.64573552958E+02 -0.14489079968E+03  0.15925858931E+03  0.41800000000E+01 0. -1.
        -11    1    1    2    0    0  0.38962907359E+02 -0.25592854569E+02 -0.10662848691E+03  0.11637326401E+03  0.00000000000E+00 0. -1.
         11    1    1    2    0    0 -0.32411926900E+02  0.31525722885E+02 -0.10098831043E+03  0.11064828536E+03  0.00000000000E+00 0.  1.
</event>
<event>
 7    1  0.2394257E-009  0.2413933E+03  0.7561462E-02  0.1118868E+00
          2   -1    0    0  501    0  0.00000000000E+00  0.00000000000E+00  0.11383234176E+03  0.11383234176E+03  0.00000000000E+00 0. -1.
         -2   -1    0    0    0  501 -0.00000000000E+00 -0.00000000000E+00 -0.56363453858E+03  0.56363453858E+03  0.00000000000E+00 0.  1.
         25    2    1    2    0    0  0.18339018748E+03  0.12189686534E+03 -0.15682568707E+03  0.29788059205E+03  0.12509094432E+03 0.  0.
          5    1    3    3  502    0  0.18004540379E+03  0.59587005673E+02 -0.10607055524E+03  0.21733705105E+03  0.41800000000E+01 0. -1.
         -5    1    3    3    0  502  0.33447836928E+01  0.62309859667E+02 -0.50755131830E+02  0.80543541000E+02  0.41800000000E+01 0. -1.
        -11    1    1    2    0    0 -0.11079085841E+03 -0.32643028283E+02 -0.90608624565E+02  0.14679953831E+03  0.00000000000E+00 0.  1.
         11    1    1    2    0    0 -0.72599329070E+02 -0.89253837057E+02 -0.20236788519E+03  0.23278674998E+03  0.00000000000E+00 0. -1.
</event>
<event>
 7    1  0.2394257E-009  0.1041642E+03  0.7561462E-02  0.1271775E+00
         -2   -1    0    0    0  501 -0.00000000000E+00  0.00000000000E+00  0.72964283712E+03  0.72964283712E+03  0.00000000000E+00 0.  1.
          2   -1    0    0  501    0  0.00000000000E+00 -0.00000000000E+00 -0.19667350037E+02  0.19667350037E+02  0.00000000000E+00 0. -1.
         25    2    1    2    0    0 -0.15517901900E+02  0.25835224827E+02  0.51355480316E+03  0.52942823797E+03  0.12508980451E+03 0.  0.
          5    1    3    3  502    0  0.25459862057E+02  0.65675389951E+02  0.31242483770E+03  0.32029394785E+03  0.41800000000E+01 0.  1.
         -5    1    3    3    0  502 -0.40977763957E+02 -0.39840165124E+02  0.20112996547E+03  0.20913429012E+03  0.41800000000E+01 0.  1.
        -11    1    1    2    0    0  0.44742176341E+02 -0.60022950156E+01  0.16967935452E+03  0.17558181352E+03  0.00000000000E+00 0.  1.
         11    1    1    2    0    0 -0.29224274441E+02 -0.19832929812E+02  0.26741329399E+02  0.44300135661E+02  0.00000000000E+00 0. -1.
</event>
<event>
 7    1  0.2394257E-009  0.1900467E+03  0.7561462E-02  0.1158419E+00
          1   -1    0    0  501    0  0.00000000000E+00  0.00000000000E+00  0.42073031919E+03  0.42073031919E+03  0.00000000000E+00 0. -1.
         -1   -1    0    0    0  501 -0.00000000000E+00 -0.00000000000E+00 -0.17837910075E+03  0.17837910075E+03  0.00000000000E+00 0.  1.
         25    2    1    2    0    0 -0.13039831820E+03  0.90339725485E+02 -0.88877738612E+02  0.22069597725E+03  0.12506987872E+03 0.  0.
          5    1    3    3  502    0 -0.72353514501E+02 -0.18056067944E+02 -0.55992183389E+02  0.93346931663E+02  0.41800000000E+01 0.  1.
         -5    1    3    3    0  502 -0.58044803703E+02  0.10839579343E+03 -0.32885555223E+02  0.12734904559E+03  0.41800000000E+01 0.  1.
        -11    1    1    2    0    0  0.40166600051E+02 -0.82554141378E+02  0.15126468186E+03  0.17694503665E+03  0.00000000000E+00 0.  1.
         11    1    1    2    0    0  0.90231718153E+02 -0.77855841078E+01  0.17996427520E+03  0.20146840603E+03  0.00000000000E+00 0. -1.
</event>
<event>
 7    1  0.2394257E-009  0.1582272E+03  0.7561462E-02  0.1190713E+00
          1   -1    0    0  501    0  0.00000000000E+00  0.00000000000E+00  0.56696000341E+03  0.56696000341E+03  0.00000000000E+00 0. -1.
         -1   -1    0    0    0  501 -0.00000000000E+00 -0.00000000000E+00 -0.80271195364E+02  0.80271195364E+02  0.00000000000E+00 0.  1.
         25    2    1    2    0    0 -0.39146637858E+02  0.11537419791E+03  0.45949044449E+03  0.49155251559E+03  0.12509493276E+03 0.  0.
          5    1    3    3  502    0 -0.77343125009E+02  0.41640210747E+02  0.28511659954E+03  0.29837026305E+03  0.41800000000E+01 0.  1.
         -5    1    3    3    0  502  0.38196487151E+02  0.73733987167E+02  0.17437384495E+03  0.19318225254E+03  0.41800000000E+01 0.  1.
        -11    1    1    2    0    0 -0.15672905855E+02 -0.76690550900E+02  0.39163151245E+02  0.87526184601E+02  0.00000000000E+00 0. -1.
         11    1    1    2    0    0  0.54819543713E+02 -0.38683647014E+02 -0.11964787687E+02  0.68152498587E+02  0.00000000000E+00 0.  1.
</event>
<event>
 7    1  0.2394257E-009  0.1129943E+03  0.7561462E-02  0.1255123E+00
         -2   -1    0    0    0  501 -0.00000000000E+00  0.00000000000E+00  0.10598775253E+03  0.10598775253E+03  0.00000000000E+00 0.  1.
          2   -1    0    0  501    0  0.00000000000E+00 -0.00000000000E+00 -0.19645857706E+03  0.19645857706E+03  0.00000000000E+00 0. -1.
         25    2    1    2    0    0  0.56649815294E+02  0.25280064340E+02  0.26445462230E+02  0.14211127588E+03  0.12509184240E+03 0.  0.
          5    1    3    3  502    0  0.80500958743E+02  0.46787110247E+02  0.46354614109E+02  0.10409447965E+03  0.41800000000E+01 0. -1.
         -5    1    3    3    0  502 -0.23851143450E+02 -0.21507045906E+02 -0.19909151879E+02  0.38016796236E+02  0.41800000000E+01 0. -1.
        -11    1    1    2    0    0 -0.76592246189E+02 -0.24593896657E+02 -0.60975060886E+02  0.10094151762E+03  0.00000000000E+00 0.  1.
         11    1    1    2    0    0  0.19942430895E+02 -0.68616768322E+00 -0.55941225873E+02  0.59393536082E+02  0.00000000000E+00 0. -1.
</event>
<event>
 7    1  0.2394257E-009  0.1973605E+03  0.7561462E-02  0.1151985E+00
         -1   -1    0    0    0  501 -0.00000000000E+00  0.00000000000E+00  0.14451395309E+03  0.14451395309E+03  0.00000000000E+00 0.  1.
          1   -1    0    0  501    0  0.00000000000E+00 -0.00000000000E+00 -0.28316734783E+03  0.28316734783E+03  0.00000000000E+00 0. -1.
         25    2    1    2    0    0 -0.16886634972E+03 -0.13008630023E+02 -0.94282341969E+02  0.23069949589E+03  0.12509208159E+03 0.  0.
          5    1    3    3  502    0 -0.33300827831E+02  0.45647443702E+02 -0.24328892390E+01  0.56710013232E+02  0.41800000000E+01 0.  1.
         -5    1    3    3    0  502 -0.13556552189E+03 -0.58656073725E+02 -0.91849452730E+02  0.17398948266E+03  0.41800000000E+01 0.  1.
        -11    1    1    2    0    0  0.88099625776E+02 -0.36718750892E+02 -0.35049004561E+02  0.10167715304E+03  0.00000000000E+00 0. -1.
         11    1    1    2    0    0  0.80766723942E+02  0.49727380915E+02 -0.93220482159E+01  0.95304651995E+02  0.00000000000E+00 0.  1.
</event>
<event>
 7    1  0.2394257E-009  0.8488226E+02  0.7561462E-02  0.1315741E+00
          2   -1    0    0  501    0  0.00000000000E+00  0.00000000000E+00  0.22953583521E+03  0.22953583521E+03  0.00000000000E+00 0. -1.
         -2   -1    0    0    0  501 -0.00000000000E+00 -0.00000000000E+00 -0.53559043702E+02  0.53559043702E+02  0.00000000000E+00 0.  1.
         25    2    1    2    0    0 -0.45616135684E+01  0.11609601789E+02  0.66676699935E+02  0.14229804161E+03  0.12508940467E+03 0.  0.
          5    1    3    3  502    0  0.43143662097E+02  0.73084745601E+01  0.80974410007E+02  0.92136403531E+02  0.41800000000E+01 0. -1.
         -5    1    3    3    0  502 -0.47705275665E+02  0.43011272290E+01 -0.14297710072E+02  0.50161638082E+02  0.41800000000E+01 0. -1.
        -11    1    1    2    0    0 -0.59793187084E+01 -0.43618460003E+02  0.26463581748E+02  0.51367727847E+02  0.00000000000E+00 0.  1.
         11    1    1    2    0    0  0.10540932277E+02  0.32008858214E+02  0.82836509826E+02  0.89429109453E+02  0.00000000000E+00 0. -1.
</event>
<event>
 7    1  0.2394257E-009  0.1157392E+03  0.7561462E-02  0.1250296E+00
          2   -1    0    0  501    0  0.00000000000E+00  0.00000000000E+00  0.41872644974E+03  0.41872644974E+03  0.00000000000E+00 0. -1.
         -2   -1    0    0    0  501 -0.00000000000E+00 -0.00000000000E+00 -0.73295224323E+02  0.73295224323E+02  0.00000000000E+00 0.  1.
         25    2    1    2    0    0  0.68330783860E+02 -0.49650923356E+02  0.33346693296E+03  0.36603493864E+03  0.12508825171E+03 0.  0.
          5    1    3    3  502    0 -0.23102523048E+02  0.51427711039E+01  0.11095775873E+02  0.26471934346E+02  0.41800000000E+01 0. -1.
         -5    1    3    3    0  502  0.91433306909E+02 -0.54793694460E+02  0.32237115708E+03  0.33956300429E+03  0.41800000000E+01 0. -1.
        -11    1    1    2    0    0 -0.26688259640E+02 -0.95865311497E+01 -0.30820310535E+02  0.41881455605E+02  0.00000000000E+00 0.  1.
         11    1    1    2    0    0 -0.41642524220E+02  0.59237454506E+02  0.42784602994E+02  0.84105279817E+02  0.00000000000E+00 0. -1.
</event>
<event>
 7    1  0.2394257E-009  0.9490710E+02  0.7561462E-02  0.1291385E+00
         -1   -1    0    0    0  501 -0.00000000000E+00  0.00000000000E+00  0.86966481802E+02  0.86966481802E+02  0.00000000000E+00 0. -1.
          1   -1    0    0  501    0  0.00000000000E+00 -0.00000000000E+00 -0.20205973187E+03  0.20205973187E+03  0.00000000000E+00 0.  1.
         25    2    1    2    0    0  0.52211135945E+02  0.51540904733E+02 -0.45082188221E+02  0.15186448196E+03  0.12509176476E+03 0.  0.
          5    1    3    3  502    0  0.61612478458E+02  0.39627085589E+02  0.26923275879E+02  0.78158419879E+02  0.41800000000E+01 0. -1.
         -5    1    3    3    0  502 -0.94013425129E+01  0.11913819144E+02 -0.72005464099E+02  0.73706062083E+02  0.41800000000E+01 0. -1.
        -11    1    1    2    0    0 -0.12281929968E+02 -0.58838885803E+02 -0.75167835640E+02  0.96244811814E+02  0.00000000000E+00 0.  1.
         11    1    1    2    0    0 -0.39929205977E+02  0.72979810706E+01  0.51567737951E+01  0.40916919894E+02  0.00000000000E+00 0. -1.
</event>
<event>
 7    1  0.2394257E-009  0.2606126E+03  0.7561462E-02  0.1106776E+00
          2   -1    0    0  501    0  0.00000000000E+00  0.00000000000E+00  0.15825752220E+04  0.15825752220E+04  0.00000000000E+00 0. -1.
         -2   -1    0    0    0  501 -0.00000000000E+00 -0.00000000000E+00 -0.44204082405E+02  0.44204082405E+02  0.00000000000E+00 0.  1.
         25    2    1    2    0    0  0.59753383533E+02  0.23119188481E+03  0.69071843634E+03  0.74145787106E+03  0.12509061438E+03 0.  0.
          5    1    3    3  502    0 -0.36083342046E+02  0.68341494729E+02  0.15244838423E+03  0.17096944093E+03  0.41800000000E+01 0.  1.
         -5    1    3    3    0  502  0.95836725579E+02  0.16285039008E+03  0.53827005211E+03  0.57048843013E+03  0.41800000000E+01 0.  1.
        -11    1    1    2    0    0 -0.13390121523E+02 -0.19641120039E+03  0.62673133978E+03  0.65692376061E+03  0.00000000000E+00 0. -1.
         11    1    1    2    0    0 -0.46363262010E+02 -0.34780684422E+02  0.22092136351E+03  0.22839767277E+03  0.00000000000E+00 0.  1.
</event>
<event>
 7    1  0.2394257E-009  0.1021916E+03  0.7561462E-02  0.1275754E+00
          1   -1    0    0  501    0  0.00000000000E+00  0.00000000000E+00  0.82861424105E+02  0.82861424105E+02  0.00000000000E+00 0. -1.
         -1   -1    0    0    0  501 -0.00000000000E+00 -0.00000000000E+00 -0.22625894490E+03  0.22625894490E+03  0.00000000000E+00 0.  1.
         25    2    1    2    0    0 -0.20977391370E+02  0.77333490651E+02 -0.51348083781E+02  0.15716795594E+03  0.12507845914E+03 0.  0.
          5    1    3    3  502    0 -0.15366025440E+02 -0.16458954617E+02 -0.58520159804E+02  0.62841812739E+02  0.41800000000E+01 0. -1.
         -5    1    3    3    0  502 -0.56113659305E+01  0.93792445268E+02  0.71720760225E+01  0.94326143202E+02  0.41800000000E+01 0. -1.
        -11    1    1    2    0    0  0.25366258316E+02 -0.27539694292E+02  0.96211877796E+01  0.38658104932E+02  0.00000000000E+00 0. -1.
         11    1    1    2    0    0 -0.43888669458E+01 -0.49793796359E+02 -0.10167062479E+03  0.11329430813E+03  0.00000000000E+00 0.  1.
</event>
<event>
 7    1  0.2394257E-009  0.8591822E+02  0.7561462E-02  0.1313049E+00
          2   -1    0    0  501    0  0.00000000000E+00  0.00000000000E+00  0.16393874711E+03  0.16393874711E+03  0.00000000000E+00 0. -1.
         -2   -1    0    0    0  501 -0.00000000000E+00 -0.00000000000E+00 -0.70888469684E+02  0.70888469684E+02  0.00000000000E+00 0.  1.
         25    2    1    2    0    0 -0.27153235431E+01 -0.31642726721E+02  0.99391071660E+02  0.16289414800E+03  0.12508910100E+03 0.  0.
          5    1    3    3  502    0 -0.52117467692E+02 -0.51387647045E+02  0.41845523668E+02  0.84412327052E+02  0.41800000000E+01 0. -1.
         -5    1    3    3    0  502  0.49402144148E+02  0.19744920324E+02  0.57545547992E+02  0.78481820945E+02  0.41800000000E+01 0. -1.
        -11    1    1    2    0    0 -0.13741260915E+02  0.22419174109E+02 -0.31150769788E+02  0.40765329358E+02  0.00000000000E+00 0. -1.
         11    1    1    2    0    0  0.16456584458E+02  0.92235526113E+01  0.24809975554E+02  0.31167739440E+02  0.00000000000E+00 0.  1.
</event>
<event>
 7    1  0.2394257E-009  0.2274301E+03  0.7561462E-02  0.1128462E+00
         -2   -1    0    0    0  501 -0.00000000000E+00  0.00000000000E+00  0.17711308740E+03  0.17711308740E+03  0.00000000000E+00 0.  1.
          2   -1    0    0  501    0  0.00000000000E+00 -0.00000000000E+00 -0.31975083521E+03  0.31975083521E+03  0.00000000000E+00 0. -1.
         25    2    1    2    0    0 -0.13740066667E+03  0.14807842644E+03 -0.86257825312E+01  0.23775403877E+03  0.12508563167E+03 0.  0.
          5    1    3    3  502    0 -0.12454129960E+03  0.17047203015E+03 -0.40611070547E+01  0.21119946345E+03  0.41800000000E+01 0.  1.
         -5    1    3    3    0  502 -0.12859367067E+02 -0.22393603710E+02 -0.45646754765E+01  0.26554575325E+02  0.41800000000E+01 0.  1.
        -11    1    1    2    0    0  0.47402360661E+02 -0.11007411587E+03 -0.48537464451E+02  0.12930266910E+03  0.00000000000E+00 0.  1.
         11    1    1    2    0    0  0.89998306005E+02 -0.38004310570E+02 -0.85474500831E+02  0.12980721474E+03  0.00000000000E+00 0. -1.
</event>
<event>
 7    1  0.2394257E-009  0.1201190E+03  0.7561462E-02  0.1242901E+00
         -2   -1    0    0    0  501 -0.00000000000E+00  0.00000000000E+00  0.63613457977E+02  0.63613457977E+02  0.00000000000E+00 0.  1.
          2   -1    0    0  501    0  0.00000000000E+00 -0.00000000000E+00 -0.32585218441E+03  0.32585218441E+03  0.00000000000E+00 0. -1.
         25    2    1    2    0    0  0.73092084711E+02  0.21716651648E+02 -0.69473627132E+02  0.16213706702E+03  0.12509107814E+03 0.  0.
          5    1    3    3  502    0  0.98566409205E+02 -0.10020287531E+02 -0.26154910344E+02  0.10255386351E+03  0.41800000000E+01 0.  1.
         -5    1    3    3    0  502 -0.25474324494E+02  0.31736939180E+02 -0.43318716788E+02  0.59583203515E+02  0.41800000000E+01 0.  1.
        -11    1    1    2    0    0 -0.15123659601E+02 -0.37206621001E+02 -0.20869021689E+02  0.45261173121E+02  0.00000000000E+00 0.  1.
         11    1    1    2    0    0 -0.57968425110E+02  0.15489969352E+02 -0.17189607761E+03  0.18206740224E+03  0.00000000000E+00 0. -1.
</event>
<event>
 7    1  0.2394257E-009  0.1181543E+03  0.7561462E-02  0.1246173E+00
         -1   -1    0    0    0  501 -0.00000000000E+00  0.00000000000E+00  0.41136646474E+03  0.41136646474E+03  0.00000000000E+00 0.  1.
          1   -1    0    0  501    0  0.00000000000E+00 -0.00000000000E+00 -0.35100671487E+02  0.35100671487E+02  0.00000000000E+00 0. -1.
         25    2    1    2    0    0 -0.42599812555E+02 -0.23846207913E+02  0.17743157411E+03  0.22251333695E+03  0.12508731338E+03 0.  0.
          5    1    3    3  502    0  0.44439478974E+02 -0.82758880454E+01  0.52584908451E+02  0.69469436526E+02  0.41800000000E+01 0. -1.
         -5    1    3    3    0  502 -0.87039291529E+02 -0.15570319867E+02  0.12484666566E+03  0.15304390043E+03  0.41800000000E+01 0. -1.
        -11    1    1    2    0    0  0.71063992324E+02  0.18469435209E+02  0.15346352088E+03  0.17012425836E+03  0.00000000000E+00 0. -1.
         11    1    1    2    0    0 -0.28464179769E+02  0.53767727034E+01  0.45370698264E+02  0.53829540920E+02  0.00000000000E+00 0.  1.
</event>
<event>
 7    1  0.2394257E-009  0.1825532E+03  0.7561462E-02  0.1165355E+00
         -2   -1    0    0    0  501 -0.00000000000E+00  0.00000000000E+00  0.10900190410E+03  0.10900190410E+03  0.00000000000E+00 0.  1.
          2   -1    0    0  501    0  0.00000000000E+00 -0.00000000000E+00 -0.83847641304E+03  0.83847641304E+03  0.00000000000E+00 0. -1.
         25    2    1    2    0    0 -0.16324507772E+03  0.66895719643E+02 -0.28113686030E+02  0.21808666352E+03  0.12508965087E+03 0.  0.
          5    1    3    3  502    0 -0.16000904415E+03  0.54763618753E+02 -0.63196148936E+02  0.18059117861E+03  0.41800000000E+01 0. -1.
         -5    1    3    3    0  502 -0.32360335679E+01  0.12132100889E+02  0.35082462906E+02  0.37495484912E+02  0.41800000000E+01 0. -1.
        -11    1    1    2    0    0  0.58831988623E+02 -0.49419747193E+02 -0.45207540031E+03  0.45855826442E+03  0.00000000000E+00 0. -1.
         11    1    1    2    0    0  0.10441308910E+03 -0.17475972450E+02 -0.24928542260E+03  0.27083338920E+03  0.00000000000E+00 0.  1.
</event>
<event>
 7    1  0.2394257E-009  0.2040389E+03  0.7561462E-02  0.1146375E+00
         -1   -1    0    0    0  501 -0.00000000000E+00  0.00000000000E+00  0.52295544255E+03  0.52295544255E+03  0.00000000000E+00 0.  1.
          1   -1    0    0  501    0  0.00000000000E+00 -0.00000000000E+00 -0.11947104854E+03  0.11947104854E+03  0.00000000000E+00 0. -1.
         25    2    1    2    0    0  0.20141110233E+03 -0.28259186269E+02  0.85022488730E+02  0.25345881540E+03  0.12509010257E+03 0.  0.
          5    1    3    3  502    0  0.34572128870E+02 -0.11080363176E+02  0.77305828450E+02  0.85508304012E+02  0.41800000000E+01 0.  1.
         -5    1    3    3    0  502  0.16683897346E+03 -0.17178823093E+02  0.77166602803E+01  0.16795051139E+03  0.41800000000E+01 0.  1.
        -11    1    1    2    0    0 -0.11782222357E+03  0.10360706746E+02  0.10180597257E+03  0.15605728648E+03  0.00000000000E+00 0. -1.
         11    1    1    2    0    0 -0.83588878761E+02  0.17898479523E+02  0.21665593271E+03  0.23291038921E+03  0.00000000000E+00 0.  1.
</event>
<event>
 7    1  0.2394257E-009  0.1191416E+03  0.7561462E-02  0.1244520E+00
          2   -1    0    0  501    0  0.00000000000E+00  0.00000000000E+00  0.96474948844E+02  0.96474948844E+02  0.00000000000E+00 0.  1.
         -2   -1    0    0    0  501 -0.00000000000E+00 -0.00000000000E+00 -0.17682283123E+03  0.17682283123E+03  0.00000000000E+00 0. -1.
         25    2    1    2    0    0 -0.27245169088E+02 -0.67822959605E+02 -0.38440275387E+02  0.14989827647E+03  0.12509830306E+03 0.  0.
          5    1    3    3  502    0 -0.95857667369E+01 -0.99961826538E+02 -0.58781018849E+01  0.10067908507E+03  0.41800000000E+01 0. -1.
         -5    1    3    3    0  502 -0.17659402351E+02  0.32138866933E+02 -0.32562173502E+02  0.49219191403E+02  0.41800000000E+01 0. -1.
        -11    1    1    2    0    0 -0.23299527794E+02  0.28599029952E+02  0.12977097928E+02  0.39104700232E+02  0.00000000000E+00 0.  1.
         11    1    1    2    0    0  0.50544696882E+02  0.39223929653E+02 -0.54884704928E+02  0.84294803371E+02  0.00000000000E+00 0. -1.
</event>
<event>
 7    1  0.2394257E-009  0.1116458E+03  0.7561462E-02  0.1257552E+00
         -2   -1    0    0    0  501 -0.00000000000E+00  0.00000000000E+00  0.62541259007E+02  0.62541259007E+02  0.00000000000E+00 0. -1.
          2   -1    0    0  501    0  0.00000000000E+00 -0.00000000000E+00 -0.21004225612E+03  0.21004225612E+03  0.00000000000E+00 0.  1.
         25    2    1    2    0    0  0.70356099166E+01  0.26127270928E+01 -0.11106291055E+03  0.16744985140E+03  0.12509259164E+03 0.  0.
          5    1    3    3  502    0 -0.16800334370E+02 -0.57704190783E+02 -0.56452476812E+02  0.82561367522E+02  0.41800000000E+01 0.  1.
         -5    1    3    3    0  502  0.23835944287E+02  0.60316917876E+02 -0.54610433740E+02  0.84888483879E+02  0.41800000000E+01 0.  1.
        -11    1    1    2    0    0 -0.12290973305E+02  0.46788449343E+02 -0.23579967232E+02  0.53816743411E+02  0.00000000000E+00 0.  1.
         11    1    1    2    0    0  0.52553633888E+01 -0.49401176436E+02 -0.12858119326E+02  0.51316920311E+02  0.00000000000E+00 0. -1.
</event>
<event>
 7    1  0.2394257E-009  0.1085712E+03  0.7561462E-02  0.1263239E+00
         -2   -1    0    0    0  501 -0.00000000000E+00  0.00000000000E+00  0.80955211014E+01  0.80955211014E+01  0.00000000000E+00 0.  1.
          2   -1    0    0  501    0  0.00000000000E+00 -0.00000000000E+00 -0.17494343769E+04  0.17494343769E+04  0.00000000000E+00 0. -1.
         25    2    1    2    0    0  0.93067015542E+01  0.86291259779E+01 -0.13089299602E+04  0.13149544722E+04  0.12508615740E+03 0.  0.
          5    1    3    3  502    0 -0.41180378309E+02 -0.36356787214E+02 -0.72943089640E+03  0.73150840361E+03  0.41800000000E+01 0. -1.
         -5    1    3    3    0  502  0.50487079863E+02  0.44985913192E+02 -0.57949906376E+03  0.58344606856E+03  0.41800000000E+01 0. -1.
        -11    1    1    2    0    0 -0.22603227328E+02  0.38875774025E+02 -0.21032615158E+03  0.21507980316E+03  0.00000000000E+00 0.  1.
         11    1    1    2    0    0  0.13296525774E+02 -0.47504900003E+02 -0.22208274407E+03  0.22749562267E+03  0.00000000000E+00 0. -1.
</event>
<event>
 7    1  0.2394257E-009  0.1519485E+03  0.7561462E-02  0.1198099E+00
          2   -1    0    0  501    0  0.00000000000E+00  0.00000000000E+00  0.10677353294E+04  0.10677353294E+04  0.00000000000E+00 0.  1.
         -2   -1    0    0    0  501 -0.00000000000E+00 -0.00000000000E+00 -0.22435140034E+02  0.22435140034E+02  0.00000000000E+00 0. -1.
         25    2    1    2    0    0 -0.10315038303E+03  0.27748070457E+02  0.47419454135E+03  0.50191450265E+03  0.12509095887E+03 0.  0.
          5    1    3    3  502    0 -0.12790214164E+03  0.41469248818E+02  0.41316183658E+03  0.43450987565E+03  0.41800000000E+01 0.  1.
         -5    1    3    3    0  502  0.24751758603E+02 -0.13721178361E+02  0.61032704775E+02  0.67404627005E+02  0.41800000000E+01 0.  1.
        -11    1    1    2    0    0  0.94883357617E+02 -0.56784462377E+02  0.43394128284E+03  0.44780840063E+03  0.00000000000E+00 0. -1.
         11    1    1    2    0    0  0.82670254159E+01  0.29036391920E+02  0.13716436521E+03  0.14044756619E+03  0.00000000000E+00 0.  1.
</event>
<event>
 7    1  0.2394257E-009  0.1416511E+03  0.7561462E-02  0.1211124E+00
          2   -1    0    0  501    0  0.00000000000E+00  0.00000000000E+00  0.15250064691E+03  0.15250064691E+03  0.00000000000E+00 0. -1.
         -2   -1    0    0    0  501 -0.00000000000E+00 -0.00000000000E+00 -0.19130189376E+03  0.19130189376E+03  0.00000000000E+00 0.  1.
         25    2    1    2    0    0  0.11206824188E+03  0.58332580112E+02 -0.56845239817E+02  0.18665843329E+03  0.12509200089E+03 0.  0.
          5    1    3    3  502    0 -0.12809071778E+02  0.20001698859E+02 -0.50320459362E+02  0.55801086973E+02  0.41800000000E+01 0.  1.
         -5    1    3    3    0  502  0.12487731366E+03  0.38330881253E+02 -0.65247804548E+01  0.13085734631E+03  0.41800000000E+01 0.  1.
        -11    1    1    2    0    0 -0.10203909268E+03 -0.44294588706E+02 -0.22133514978E+02  0.11341904386E+03  0.00000000000E+00 0.  1.
         11    1    1    2    0    0 -0.10029149200E+02 -0.14037991406E+02  0.40177507945E+02  0.43725063534E+02  0.00000000000E+00 0. -1.
</event>
<event>
 7    1  0.2394257E-009  0.7889721E+02  0.7561462E-02  0.1332210E+00
         -1   -1    0    0    0  501 -0.00000000000E+00  0.00000000000E+00  0.57399436282E+02  0.57399436282E+02  0.00000000000E+00 0.  1.
          1   -1    0    0  501    0  0.00000000000E+00 -0.00000000000E+00 -0.26885664022E+03  0.26885664022E+03  0.00000000000E+00 0. -1.
         25    2    1    2    0    0  0.25832073322E+02 -0.55813492068E+02 -0.11444999618E+03  0.18035847396E+03  0.12509170873E+03 0.  0.
          5    1    3    3  502    0  0.37845246389E+02 -0.51749253196E+02 -0.13859769954E+03  0.15276466410E+03  0.41800000000E+01 0. -1.
         -5    1    3    3    0  502 -0.12013173068E+02 -0.40642388722E+01  0.24147703359E+02  0.27593809855E+02  0.41800000000E+01 0. -1.
        -11    1    1    2    0    0  0.78529105017E+01  0.43695511383E+02 -0.10055939943E+03  0.10992342213E+03  0.00000000000E+00 0. -1.
         11    1    1    2    0    0 -0.33684983823E+02  0.12117980685E+02  0.35521916741E+01  0.35974180418E+02  0.00000000000E+00 0.  1.
</event>
<event>
 7    1  0.2394257E-009  0.1742768E+03  0.7561462E-02  0.1173460E+00
          1   -1    0    0  501    0  0.00000000000E+00  0.00000000000E+00  0.19799583841E+03  0.19799583841E+03  0.00000000000E+00 0. -1.
         -1   -1    0    0    0  501 -0.00000000000E+00 -0.00000000000E+00 -0.20689878678E+03  0.20689878678E+03  0.00000000000E+00 0.  1.
         25    2    1    2    0    0 -0.11659854744E+02 -0.15522821346E+03 -0.73252129454E+02  0.21270901309E+03  0.12508996488E+03 0.  0.
          5    1    3    3  502    0  0.48644971577E+02 -0.73685501073E+02 -0.67175000396E+02  0.11102179699E+03  0.41800000000E+01 0. -1.
         -5    1    3    3    0  502 -0.60304826322E+02 -0.81542712390E+02 -0.60771290578E+01  0.10168721611E+03  0.41800000000E+01 0. -1.
        -11    1    1    2    0    0  0.22178922973E+02  0.99392507551E+02  0.84057026645E+02  0.13204680575E+03  0.00000000000E+00 0. -1.
         11    1    1    2    0    0 -0.10519068229E+02  0.55835705912E+02 -0.19707845561E+02  0.60138806338E+02  0.00000000000E+00 0.  1.
</event>
<event>
 7    1  0.3445310E-009  0.1173133E+03  0.7561462E-02  0.1247596E+00
          1   -1    0    0  501    0  0.00000000000E+00  0.00000000000E+00  0.25128256994E+03  0.25128256994E+03  0.00000000000E+00 0. -1.
         -1   -1    0    0    0  501 -0.00000000000E+00 -0.00000000000E+00 -0.94042152672E+02  0.94042152672E+02  0.00000000000E+00 0.  1.
         25    2    1    2    0    0  0.70663939477E+02  0.43235581987E+02  0.55915937513E+01  0.15014471401E+03  0.12509780707E+03 0.  0.
          5    1    3    3  502    0  0.91811376679E+02  0.65938329812E+02  0.21326379399E+02  0.11510638160E+03  0.41800000000E+01 0.  1.
         -5    1    3    3    0  502 -0.21147437202E+02 -0.22702747825E+02 -0.15734785647E+02  0.35038332414E+02  0.41800000000E+01 0.  1.
        -11    1    1    2    0    0 -0.32428611629E+02 -0.40486325910E+02  0.16098069995E+02  0.54313030623E+02  0.00000000000E+00 0.  1.
         11    1    1    2    0    0 -0.38235327848E+02 -0.27492560767E+01  0.13555075352E+03  0.14086697798E+03  0.00000000000E+00 0. -1.
</event>
<event>
 7    1  0.2394257E-009  0.8163678E+02  0.7561462E-02  0.1324470E+00
         -1   -1    0    0    0  501 -0.00000000000E+00  0.00000000000E+00  0.11196144269E+03  0.11196144269E+03  0.00000000000E+00 0.  1.
          1   -1    0    0  501    0  0.00000000000E+00 -0.00000000000E+00 -0.12096248223E+03  0.12096248223E+03  0.00000000000E+00 0. -1.
         25    2    1    2    0    0 -0.35309037359E+02  0.22378165615E+02 -0.18369752327E+02  0.13316145171E+03  0.12508802503E+03 0.  0.
          5    1    3    3  502    0 -0.46195148613E+02  0.27797099845E+02  0.43854179532E+02  0.69622783466E+02  0.41800000000E+01 0. -1.
         -5    1    3    3    0  502  0.10886111254E+02 -0.54189342301E+01 -0.62223931859E+02  0.63538668245E+02  0.41800000000E+01 0. -1.
        -11    1    1    2    0    0 -0.21199220641E+02 -0.32627197144E+02 -0.80812584531E+01  0.39739749464E+02  0.00000000000E+00 0. -1.
         11    1    1    2    0    0  0.56508258000E+02  0.10249031530E+02  0.17449971238E+02  0.60022723744E+02  0.00000000000E+00 0.  1.
</event>
<event>
 7    1  0.2394257E-009  0.1060621E+03  0.7561462E-02  0.1268041E+00
         -2   -1    0    0    0  501 -0.00000000000E+00  0.00000000000E+00  0.31905424700E+02  0.31905424700E+02  0.00000000000E+00 0. -1.
          2   -1    0    0  501    0  0.00000000000E+00 -0.00000000000E+00 -0.50252484683E+03  0.50252484683E+03  0.00000000000E+00 0.  1.
         25    2    1    2    0    0  0.27086092684E+02  0.35202292527E+02 -0.36430976755E+03  0.38773889064E+03  0.12508790017E+03 0.  0.
          5    1    3    3  502    0 -0.40079187174E+02  0.21042788353E+02 -0.57412336069E+02  0.73231065259E+02  0.41800000000E+01 0. -1.
         -5    1    3    3    0  502  0.67165279858E+02  0.14159504173E+02 -0.30689743148E+03  0.31450782538E+03  0.41800000000E+01 0. -1.
        -11    1    1    2    0    0  0.22554333955E+02 -0.42116834989E+02 -0.70214199934E+02  0.84926789896E+02  0.00000000000E+00 0.  1.
         11    1    1    2    0    0 -0.49640426639E+02  0.69145424620E+01 -0.36095454646E+02  0.61764590993E+02  0.00000000000E+00 0. -1.
</event>
<event>
 7    1  0.4284905E-009  0.1803181E+03  0.7561462E-02  0.1167496E+00
          1   -1    0    0  501    0  0.00000000000E+00  0.00000000000E+00  0.10531857998E+04  0.10531857998E+04  0.00000000000E+00 0. -1.
         -1   -1    0    0    0  501 -0.00000000000E+00 -0.00000000000E+00 -0.31530161123E+02  0.31530161123E+02  0.00000000000E+00 0.  1.
         25    2    1    2    0    0  0.17234788317E+02 -0.14446152644E+03  0.49826517855E+03  0.53393052510E+03  0.12508975550E+03 0.  0.
          5    1    3    3  502    0 -0.50368415236E+02 -0.94609376258E+02  0.29834487648E+03  0.31704108416E+03  0.41800000000E+01 0.  1.
         -5    1    3    3    0  502  0.67603203553E+02 -0.49852150180E+02  0.19992030207E+03  0.21688944093E+03  0.41800000000E+01 0.  1.
        -11    1    1    2    0    0 -0.42323550081E+02  0.29462857901E+02  0.12093259837E+03  0.13146876524E+03  0.00000000000E+00 0.  1.
         11    1    1    2    0    0  0.25088761764E+02  0.11499866854E+03  0.40245786180E+03  0.41931667061E+03  0.00000000000E+00 0. -1.
</event>
<event>
 7    1  0.2394257E-009  0.1788776E+03  0.7561462E-02  0.1168894E+00
         -2   -1    0    0    0  501 -0.00000000000E+00  0.00000000000E+00  0.48729097998E+02  0.48729097998E+02  0.00000000000E+00 0.  1.
          2   -1    0    0  501    0  0.00000000000E+00 -0.00000000000E+00 -0.82409270408E+03  0.82409270408E+03  0.00000000000E+00 0. -1.
         25    2    1    2    0    0 -0.29309441749E+02 -0.16399686824E+03 -0.45757865261E+03  0.50277253877E+03  0.12509191123E+03 0.  0.
          5    1    3    3  502    0 -0.61363957001E+02 -0.12324452767E+03 -0.40910860745E+03  0.43167357333E+03  0.41800000000E+01 0.  1.
         -5    1    3    3    0  502  0.32054515251E+02 -0.40752340569E+02 -0.48470045154E+02  0.71098965443E+02  0.41800000000E+01 0.  1.
        -11    1    1    2    0    0  0.20524713591E+02  0.55955673894E+02 -0.20554251863E+03  0.21400941165E+03  0.00000000000E+00 0. -1.
         11    1    1    2    0    0  0.87847281581E+01  0.10804119435E+03 -0.11224243485E+03  0.15603985166E+03  0.00000000000E+00 0.  1.
</event>
<event>
 7    1  0.2394257E-009  0.1976368E+03  0.7561462E-02  0.1151748E+00
          3   -1    0    0  501    0  0.00000000000E+00  0.00000000000E+00  0.23331274132E+02  0.23331274132E+02  0.00000000000E+00 0. -1.
         -3   -1    0    0    0  501 -0.00000000000E+00 -0.00000000000E+00 -0.20757922368E+04  0.20757922368E+04  0.00000000000E+00 0.  1.
         25    2    1    2    0    0  0.92070656166E+02 -0.15227809377E+03 -0.13943550393E+04  0.14112201260E+04  0.12510253623E+03 0.  0.
          5    1    3    3  502    0  0.77624721303E+02 -0.32957653809E+02 -0.82454185567E+03  0.82885375577E+03  0.41800000000E+01 0.  1.
         -5    1    3    3    0  502  0.14445934863E+02 -0.11932043997E+03 -0.56981318368E+03  0.58236637019E+03  0.41800000000E+01 0.  1.
        -11    1    1    2    0    0 -0.14974376599E+02  0.90635560254E+02 -0.42400764076E+03  0.43384503703E+03  0.00000000000E+00 0.  1.
         11    1    1    2    0    0 -0.77096279567E+02  0.61642533520E+02 -0.23409828255E+03  0.25405834793E+03  0.00000000000E+00 0. -1.
</event>
<event>
 7    1  0.2394257E-009  0.1265058E+03  0.7561462E-02  0.1232735E+00
         -1   -1    0    0    0  501 -0.00000000000E+00  0.00000000000E+00  0.17075835237E+02  0.17075835237E+02  0.00000000000E+00 0.  1.
          1   -1    0    0  501    0  0.00000000000E+00 -0.00000000000E+00 -0.99433376543E+03  0.99433376543E+03  0.00000000000E+00 0. -1.
         25    2    1    2    0    0 -0.66820189392E+02  0.15964289254E+02 -0.65226561928E+03  0.66769843746E+03  0.12510383309E+03 0.  0.
          5    1    3    3  502    0 -0.92701636982E+02 -0.23115369298E+02 -0.43006751729E+03  0.44057173721E+03  0.41800000000E+01 0. -1.
         -5    1    3    3    0  502  0.25881447589E+02  0.39079658552E+02 -0.22219810198E+03  0.22712670025E+03  0.41800000000E+01 0. -1.
        -11    1    1    2    0    0  0.33240121223E+02  0.35651435177E+02 -0.17252434227E+03  0.17927793831E+03  0.00000000000E+00 0. -1.
         11    1    1    2    0    0  0.33580068169E+02 -0.51615724431E+02 -0.15246796865E+03  0.16443322490E+03  0.00000000000E+00 0.  1.
</event>
<event>
 7    1  0.2394257E-009  0.1159804E+03  0.7561462E-02  0.1249879E+00
          1   -1    0    0  501    0  0.00000000000E+00  0.00000000000E+00  0.21762117099E+03  0.21762117099E+03  0.00000000000E+00 0. -1.
         -1   -1    0    0    0  501 -0.00000000000E+00 -0.00000000000E+00 -0.99808891619E+02  0.99808891619E+02  0.00000000000E+00 0.  1.
         25    2    1    2    0    0  0.95401973013E+02  0.29925876209E+02  0.51543432493E+02  0.16823400152E+03  0.12509540084E+03 0.  0.
          5    1    3    3  502    0  0.85056816710E+02  0.45252364668E+01  0.87920310515E+02  0.12248507352E+03  0.41800000000E+01 0. -1.
         -5    1    3    3    0  502  0.10345156302E+02  0.25400639743E+02 -0.36376878022E+02  0.45748927997E+02  0.41800000000E+01 0. -1.
        -11    1    1    2    0    0 -0.10277424193E+03 -0.17161114659E+02  0.78162641728E+02  0.13025531553E+03  0.00000000000E+00 0. -1.
         11    1    1    2    0    0  0.73722689208E+01 -0.12764761550E+02 -0.11893794853E+02  0.18940745563E+02  0.00000000000E+00 0.  1.
</event>
<event>
 7    1  0.2394257E-009  0.1097713E+03  0.7561462E-02  0.1260994E+00
          2   -1    0    0  501    0  0.00000000000E+00  0.00000000000E+00  0.37832203771E+03  0.37832203771E+03  0.00000000000E+00 0. -1.
         -2   -1    0    0    0  501 -0.00000000000E+00 -0.00000000000E+00 -0.42880555782E+02  0.42880555782E+02  0.00000000000E+00 0.  1.
         25    2    1    2    0    0 -0.37930302704E+02  0.53947253732E+02  0.19093476844E+03  0.23759734223E+03  0.12508955668E+03 0.  0.
          5    1    3    3  502    0  0.15433686967E+02  0.65589546356E+02  0.43490779281E+02  0.80306335784E+02  0.41800000000E+01 0.  1.
         -5    1    3    3    0  502 -0.53363989671E+02 -0.11642292624E+02  0.14744398916E+03  0.15729100645E+03  0.41800000000E+01 0.  1.
        -11    1    1    2    0    0 -0.21067799651E+02 -0.20683587898E+02  0.95624472645E+02  0.10007848300E+03  0.00000000000E+00 0.  1.
         11    1    1    2    0    0  0.58998102355E+02 -0.33263665834E+02  0.48882240844E+02  0.83526768261E+02  0.00000000000E+00 0. -1.
</event>
<event>
 7    1  0.2394257E-009  0.9325169E+02  0.7561462E-02  0.1295163E+00
         -2   -1    0    0    0  501 -0.00000000000E+00  0.00000000000E+00  0.22017370468E+02  0.22017370468E+02  0.00000000000E+00 0.  1.
          2   -1    0    0  501    0  0.00000000000E+00 -0.00000000000E+00 -0.55161618553E+03  0.55161618553E+03  0.00000000000E+00 0. -1.
         25    2    1    2    0    0  0.12015098740E+02 -0.91794586351E+01 -0.32090195951E+03  0.34475228745E+03  0.12508975588E+03 0.  0.
          5    1    3    3  502    0  0.52257670231E+02 -0.10737538654E+02 -0.28699352668E+03  0.29193991777E+03  0.41800000000E+01 0. -1.
         -5    1    3    3    0  502 -0.40242571491E+02  0.15580800189E+01 -0.33908432828E+02  0.52812369672E+02  0.41800000000E+01 0. -1.
        -11    1    1    2    0    0 -0.43419359707E+02  0.31782568675E+02 -0.14082555253E+03  0.15075545998E+03  0.00000000000E+00 0. -1.
         11    1    1    2    0    0  0.31404260966E+02 -0.22603110040E+02 -0.67871303029E+02  0.78125808573E+02  0.00000000000E+00 0.  1.
</event>
<event>
 7    1  0.2394257E-009  0.1048125E+03  0.7561462E-02  0.1270490E+00
          2   -1    0    0  501    0  0.00000000000E+00  0.00000000000E+00  0.10532476140E+03  0.10532476140E+03  0.00000000000E+00 0. -1.
         -2   -1    0    0    0  501 -0.00000000000E+00 -0.00000000000E+00 -0.14419449532E+03  0.14419449532E+03  0.00000000000E+00 0.  1.
         25    2    1    2    0    0  0.17994622571E+02 -0.16485188646E+02 -0.75674407380E+02  0.14822038321E+03  0.12508836149E+03 0.  0.
          5    1    3    3  502    0 -0.19626358503E+02 -0.56731539286E+02 -0.77653051453E+01  0.60674820657E+02  0.41800000000E+01 0. -1.
         -5    1    3    3    0  502  0.37620981074E+02  0.40246350639E+02 -0.67909102235E+02  0.87545562555E+02  0.41800000000E+01 0. -1.
        -11    1    1    2    0    0  0.35722984518E+02 -0.55236469917E+01  0.17157829943E+02  0.40012915756E+02  0.00000000000E+00 0. -1.
         11    1    1    2    0    0 -0.53717607089E+02  0.22008835638E+02  0.19646843512E+02  0.61285957752E+02  0.00000000000E+00 0.  1.
</event>
<event>
 7    1  0.2394257E-009  0.1738212E+03  0.7561462E-02  0.1173920E+00
         -2   -1    0    0    0  501 -0.00000000000E+00  0.00000000000E+00  0.20517989879E+03  0.20517989879E+03  0.00000000000E+00 0.  1.
          2   -1    0    0  501    0  0.00000000000E+00 -0.00000000000E+00 -0.19351556292E+03  0.19351556292E+03  0.00000000000E+00 0. -1.
         25    2    1    2    0    0  0.11381866963E+03 -0.10613243727E+03  0.63868882152E+02  0.20961977203E+03  0.12506970426E+03 0.  0.
          5    1    3    3  502    0  0.10799657179E+03 -0.25989843769E+02  0.65725782427E+02  0.12913590660E+03  0.41800000000E+01 0.  1.
         -5    1    3    3    0  502  0.58220978311E+01 -0.80142593498E+02 -0.18569002752E+01  0.80483865429E+02  0.41800000000E+01 0.  1.
        -11    1    1    2    0    0 -0.92302727954E+02  0.79792115878E+02 -0.79363770683E+02  0.14555130862E+03  0.00000000000E+00 0. -1.
         11    1    1    2    0    0 -0.21515941671E+02  0.26340321389E+02  0.27159224397E+02  0.43524381061E+02  0.00000000000E+00 0.  1.
</event>
<event>
 7    1  0.2394257E-009  0.1121422E+03  0.7561462E-02  0.1256654E+00
         -2   -1    0    0    0  501 -0.00000000000E+00  0.00000000000E+00  0.49721168221E+02  0.49721168221E+02  0.00000000000E+00 0.  1.
          2   -1    0    0  501    0  0.00000000000E+00 -0.00000000000E+00 -0.40918623472E+03  0.40918623472E+03  0.00000000000E+00 0. -1.
         25    2    1    2    0    0 -0.63445051655E+02 -0.60294270256E+02 -0.14884931897E+03  0.21322381479E+03  0.12509037466E+03 0.  0.
          5    1    3    3  502    0 -0.61141696576E+02 -0.74322041457E+02 -0.41555063103E+02  0.10491124142E+03  0.41800000000E+01 0.  1.
         -5    1    3    3    0  502 -0.23033550789E+01  0.14027771202E+02 -0.10729425586E+03  0.10831257337E+03  0.41800000000E+01 0.  1.
        -11    1    1    2    0    0  0.36408177298E+02 -0.10054659340E+02 -0.24851571225E+02  0.45213406651E+02  0.00000000000E+00 0.  1.
         11    1    1    2    0    0  0.27036874357E+02  0.70348929595E+02 -0.18576417631E+03  0.20047018150E+03  0.00000000000E+00 0. -1.
</event>
<event>
 7    1  0.2394257E-009  0.1227796E+03  0.7561462E-02  0.1238581E+00
         -1   -1    0    0    0  501 -0.00000000000E+00  0.00000000000E+00  0.10350274279E+03  0.10350274279E+03  0.00000000000E+00 0.  1.
          1   -1    0    0  501    0  0.00000000000E+00 -0.00000000000E+00 -0.17258272019E+03  0.17258272019E+03  0.00000000000E+00 0. -1.
         25    2    1    2    0    0  0.12196032018E+01 -0.63168157360E+02  0.72636960679E+01  0.14032690020E+03  0.12508866496E+03 0.  0.
          5    1    3    3  502    0 -0.61456315123E+02 -0.26333911940E+02 -0.13213788311E+01  0.67004268734E+02  0.41800000000E+01 0.  1.
         -5    1    3    3    0  502  0.62675918325E+02 -0.36834245420E+02  0.85850748991E+01  0.73322631462E+02  0.41800000000E+01 0.  1.
        -11    1    1    2    0    0 -0.42203324787E+02  0.42323742132E+02 -0.65194372266E+02  0.88446175419E+02  0.00000000000E+00 0. -1.
         11    1    1    2    0    0  0.40983721585E+02  0.20844415228E+02 -0.11149301200E+02  0.47312387367E+02  0.00000000000E+00 0.  1.
</event>
<event>
 7    1  0.2394257E-009  0.1327810E+03  0.7561462E-02  0.1223387E+00
          1   -1    0    0  501    0  0.00000000000E+00  0.00000000000E+00  0.52704155994E+03  0.52704155994E+03  0.00000000000E+00 0. -1.
         -1   -1    0    0    0  501 -0.00000000000E+00 -0.00000000000E+00 -0.45743257776E+02  0.45743257776E+02  0.00000000000E+00 0.  1.
         25    2    1    2    0    0  0.11567675031E+02  0.11033115313E+03  0.23860515713E+03  0.29135248779E+03  0.12508827554E+03 0.  0.
          5    1    3    3  502    0 -0.34632284593E+02  0.44946603970E+01  0.12286876099E+03  0.12780376338E+03  0.41800000000E+01 0.  1.
         -5    1    3    3    0  502  0.46199959624E+02  0.10583649274E+03  0.11573639614E+03  0.16354872441E+03  0.41800000000E+01 0.  1.
        -11    1    1    2    0    0 -0.18584891504E+02 -0.39478260828E+02  0.20689287974E+02  0.48290557121E+02  0.00000000000E+00 0.  1.
         11    1    1    2    0    0  0.70172164729E+01 -0.70852892307E+02  0.22200385706E+03  0.23314177280E+03  0.00000000000E+00 0. -1.
</event>
<event>
 7    1  0.2394257E-009  0.9612722E+02  0.7561462E-02  0.1288657E+00
         -1   -1    0    0    0  501 -0.00000000000E+00  0.00000000000E+00  0.22168196548E+02  0.22168196548E+02  0.00000000000E+00 0.  1.
          1   -1    0    0  501    0  0.00000000000E+00 -0.00000000000E+00 -0.99789369014E+03  0.99789369014E+03  0.00000000000E+00 0. -1.
         25    2    1    2    0    0 -0.41732246339E+02 -0.45230248767E+01 -0.84276324514E+03  0.85302945161E+03  0.12508924741E+03 0.  0.
          5    1    3    3  502    0 -0.26809454605E+02 -0.43501493114E+02 -0.14131366487E+03  0.15032681410E+03  0.41800000000E+01 0.  1.
         -5    1    3    3    0  502 -0.14922791734E+02  0.38978468237E+02 -0.70144958027E+03  0.70270263751E+03  0.41800000000E+01 0.  1.
        -11    1    1    2    0    0  0.13431572337E+02 -0.42270055469E+02 -0.76510263728E+02  0.88436334052E+02  0.00000000000E+00 0.  1.
         11    1    1    2    0    0  0.28300674002E+02  0.46793080346E+02 -0.56451984730E+02  0.78596101030E+02  0.00000000000E+00 0. -1.
</event>
<event>
 7    1  0.2394257E-009  0.1023522E+03  0.7561462E-02  0.1275426E+00
          2   -1    0    0  501    0  0.00000000000E+00  0.00000000000E+00  0.76112890853E+02  0.76112890853E+02  0.00000000000E+00 0.  1.
         -2   -1    0    0    0  501 -0.00000000000E+00 -0.00000000000E+00 -0.17914673392E+03  0.17914673392E+03  0.00000000000E+00 0. -1.
         25    2    1    2    0    0 -0.37883225119E+02 -0.10437133252E+02 -0.78259597467E+02  0.15269422949E+03  0.12508753187E+03 0.  0.
          5    1    3    3  502    0 -0.24855523870E+02 -0.57128104244E+02 -0.22938974133E+01  0.62483211559E+02  0.41800000000E+01 0. -1.
         -5    1    3    3    0  502 -0.13027701249E+02  0.46690970992E+02 -0.75965700053E+02  0.90211017934E+02  0.41800000000E+01 0. -1.
        -11    1    1    2    0    0  0.15683390836E+02  0.47712321343E+02 -0.30568329658E+02  0.58795043449E+02  0.00000000000E+00 0. -1.
         11    1    1    2    0    0  0.22199834283E+02 -0.37275188091E+02  0.57940840575E+01  0.43770351832E+02  0.00000000000E+00 0.  1.
</event>
<event>
 7    1  0.2394257E-009  0.1315767E+03  0.7561462E-02  0.1225135E+00
         -1   -1    0    0    0  501 -0.00000000000E+00  0.00000000000E+00  0.14541996296E+03  0.14541996296E+03  0.00000000000E+00 0.  1.
          1   -1    0    0  501    0  0.00000000000E+00 -0.00000000000E+00 -0.15723035880E+03  0.15723035880E+03  0.00000000000E+00 0. -1.
         25    2    1    2    0    0 -0.65278307658E+02  0.73229883110E+02  0.27089371615E+02  0.16125763611E+03  0.12508524261E+03 0.  0.
          5    1    3    3  502    0 -0.40792676400E+02 -0.91806457413E+01  0.56398171804E+02  0.70331734565E+02  0.41800000000E+01 0. -1.
         -5    1    3    3    0  502 -0.24485631258E+02  0.82410528851E+02 -0.29308800189E+02  0.90925901547E+02  0.41800000000E+01 0. -1.
        -11    1    1    2    0    0 -0.24763611082E+01 -0.66970388180E+02 -0.11286417841E+02  0.67959903509E+02  0.00000000000E+00 0.  1.
         11    1    1    2    0    0  0.67754668766E+02 -0.62594949298E+01 -0.27613349617E+02  0.73432782144E+02  0.00000000000E+00 0. -1.
</event>
<event>
 7    1  0.2394257E-009  0.1817173E+03  0.7561462E-02  0.1166151E+00
          1   -1    0    0  501    0  0.00000000000E+00  0.00000000000E+00  0.19111573694E+03  0.19111573694E+03  0.00000000000E+00 0. -1.
         -1   -1    0    0    0  501 -0.00000000000E+00 -0.00000000000E+00 -0.21377645978E+03  0.21377645978E+03  0.00000000000E+00 0.  1.
         25    2    1    2    0    0  0.14517509447E+02  0.15735931161E+03  0.49170475179E+02  0.20745834657E+03  0.12509404024E+03 0.  0.
          5    1    3    3  502    0  0.49141456834E+02  0.13829527887E+02 -0.16673198106E+01  0.51248326575E+02  0.41800000000E+01 0. -1.
         -5    1    3    3    0  502 -0.34623947387E+02  0.14352978372E+03  0.50837794990E+02  0.15621002000E+03  0.41800000000E+01 0. -1.
        -11    1    1    2    0    0  0.88985509445E+01 -0.12057161946E+03 -0.93780581761E+01  0.12126272141E+03  0.00000000000E+00 0. -1.
         11    1    1    2    0    0 -0.23416060392E+02 -0.36787692153E+02 -0.62453139835E+02  0.76171128740E+02  0.00000000000E+00 0.  1.
</event>
<event>
 7    1  0.2394257E-009  0.9780839E+02  0.7561462E-02  0.1284973E+00
         -2   -1    0    0    0  501 -0.00000000000E+00  0.00000000000E+00  0.87834590554E+01  0.87834590554E+01  0.00000000000E+00 0.  1.
          2   -1    0    0  501    0  0.00000000000E+00 -0.00000000000E+00 -0.16612552570E+04  0.16612552570E+04  0.00000000000E+00 0. -1.
         25    2    1    2    0    0  0.17679019325E+01  0.22875642750E+02 -0.12543366391E+04  0.12607672254E+04  0.12508865581E+03 0.  0.
          5    1    3    3  502    0  0.50106541739E+02  0.17523193334E+02 -0.26883337165E+03  0.27405580078E+03  0.41800000000E+01 0. -1.
         -5    1    3    3    0  502 -0.48338639806E+02  0.53524494162E+01 -0.98550326749E+03  0.98671142461E+03  0.41800000000E+01 0. -1.
        -11    1    1    2    0    0 -0.46021005896E+02 -0.16275730176E+02 -0.24081037340E+03  0.24570809574E+03  0.00000000000E+00 0.  1.
         11    1    1    2    0    0  0.44253103964E+02 -0.65999125747E+01 -0.15732478536E+03  0.16356339488E+03  0.00000000000E+00 0. -1.
</event>
<event>
 7    1  0.2394257E-009  0.1081484E+03  0.7561462E-02  0.1264038E+00
          2   -1    0    0  501    0  0.00000000000E+00  0.00000000000E+00  0.18356175574E+03  0.18356175574E+03  0.00000000000E+00 0.  1.
         -2   -1    0    0    0  501 -0.00000000000E+00 -0.00000000000E+00 -0.11510179051E+03  0.11510179051E+03  0.00000000000E+00 0. -1.
         25    2    1    2    0    0  0.34770801709E+02 -0.55951816369E+02 -0.34726424432E+02  0.14557659079E+03  0.12508798833E+03 0.  0.
          5    1    3    3  502    0  0.79191088207E+02 -0.32726251204E+02 -0.40644566915E+02  0.94929917250E+02  0.41800000000E+01 0.  1.
         -5    1    3    3    0  502 -0.44420286499E+02 -0.23225565164E+02  0.59181424828E+01  0.50646673536E+02  0.41800000000E+01 0.  1.
        -11    1    1    2    0    0 -0.38076242092E+02  0.18006267176E+02  0.10682081866E+03  0.11482470626E+03  0.00000000000E+00 0.  1.
         11    1    1    2    0    0  0.33054403834E+01  0.37945549192E+02 -0.36344289969E+01  0.38262249199E+02  0.00000000000E+00 0. -1.
</event>
<event>
 7    1  0.2394257E-009  0.1068707E+03  0.7561462E-02  0.1266477E+00
         -2   -1    0    0    0  501 -0.00000000000E+00  0.00000000000E+00  0.30319574722E+02  0.30319574722E+02  0.00000000000E+00 0.  1.
          2   -1    0    0  501    0  0.00000000000E+00 -0.00000000000E+00 -0.62220685991E+03  0.62220685991E+03  0.00000000000E+00 0. -1.
         25    2    1    2    0    0  0.60022730705E+02  0.37926445040E+02 -0.43474580931E+03  0.45792167341E+03  0.12508875581E+03 0.  0.
          5    1    3    3  502    0  0.95534209810E+02  0.22260403456E+02 -0.36520744933E+03  0.37817491224E+03  0.41800000000E+01 0.  1.
         -5    1    3    3    0  502 -0.35511479105E+02  0.15666041584E+02 -0.69538359983E+02  0.79746761165E+02  0.41800000000E+01 0.  1.
        -11    1    1    2    0    0 -0.42920566536E+02 -0.10478708825E+02 -0.15611752707E+03  0.16224876157E+03  0.00000000000E+00 0. -1.
         11    1    1    2    0    0 -0.17102164169E+02 -0.27447736215E+02 -0.10239488034E+01  0.32355999656E+02  0.00000000000E+00 0.  1.
</event>
<event>
 7    1  0.2394257E-009  0.1228291E+03  0.7561462E-02  0.1238502E+00
          1   -1    0    0  501    0  0.00000000000E+00  0.00000000000E+00  0.69843768759E+03  0.69843768759E+03  0.00000000000E+00 0. -1.
         -1   -1    0    0    0  501 -0.00000000000E+00 -0.00000000000E+00 -0.34910998692E+02  0.34910998692E+02  0.00000000000E+00 0.  1.
         25    2    1    2    0    0 -0.74310894469E+02  0.52911029615E+02  0.50595242953E+03  0.52910960273E+03  0.12508966647E+03 0.  0.
          5    1    3    3  502    0  0.78519856693E+01 -0.18561009587E+02  0.25099648604E+03  0.25183898261E+03  0.41800000000E+01 0.  1.
         -5    1    3    3    0  502 -0.82162880139E+02  0.71472039202E+02  0.25495594349E+03  0.27727062012E+03  0.41800000000E+01 0.  1.
        -11    1    1    2    0    0 -0.14327410816E+02 -0.10922809293E+02  0.71534702503E+02  0.73768530728E+02  0.00000000000E+00 0.  1.
         11    1    1    2    0    0  0.88638305286E+02 -0.41988220322E+02  0.86039556865E+02  0.13047055283E+03  0.00000000000E+00 0. -1.
</event>
<event>
 7    1  0.2394257E-009  0.1115020E+03  0.7561462E-02  0.1257813E+00
          2   -1    0    0  501    0  0.00000000000E+00  0.00000000000E+00  0.28506625084E+03  0.28506625084E+03  0.00000000000E+00 0. -1.
         -2   -1    0    0    0  501 -0.00000000000E+00 -0.00000000000E+00 -0.60107738768E+02  0.60107738768E+02  0.00000000000E+00 0.  1.
         25    2    1    2    0    0  0.69291689510E+02  0.23952627955E+02  0.12728630929E+03  0.19293352923E+03  0.12508587269E+03 0.  0.
          5    1    3    3  502    0  0.55915484123E+02 -0.21897257770E+02  0.36262652818E+01  0.60304671979E+02  0.41800000000E+01 0. -1.
         -5    1    3    3    0  502  0.13376205387E+02  0.45849885724E+02  0.12366004401E+03  0.13262885725E+03  0.41800000000E+01 0. -1.
        -11    1    1    2    0    0  0.98744381505E+01  0.21442499675E+02  0.32196478849E+02  0.39923659293E+02  0.00000000000E+00 0. -1.
         11    1    1    2    0    0 -0.79166127661E+02 -0.45395127630E+02  0.65475723933E+02  0.11231680108E+03  0.00000000000E+00 0.  1.
</event>
<event>
 7    1  0.2394257E-009  0.1294540E+03  0.7561462E-02  0.1228268E+00
          2   -1    0    0  501    0  0.00000000000E+00  0.00000000000E+00  0.16991934888E+04  0.16991934888E+04  0.00000000000E+00 0. -1.
         -2   -1    0    0    0  501 -0.00000000000E+00 -0.00000000000E+00 -0.14017552332E+02  0.14017552332E+02  0.00000000000E+00 0.  1.
         25    2    1    2    0    0  0.75979900748E+02  0.56982205402E+02  0.12130656485E+04  0.12231905409E+04  0.12508762792E+03 0.  0.
          5    1    3    3  502    0  0.19507842992E+02 -0.22588562156E+02  0.73376463379E+02  0.79324503506E+02  0.41800000000E+01 0. -1.
         -5    1    3    3    0  502  0.56472057756E+02  0.79570767559E+02  0.11396891851E+04  0.11438660374E+04  0.41800000000E+01 0. -1.
        -11    1    1    2    0    0 -0.79212966167E+02 -0.53708314634E+01  0.29771178133E+03  0.30811660875E+03  0.00000000000E+00 0.  1.
         11    1    1    2    0    0  0.32330654188E+01 -0.51611373939E+02  0.17439850660E+03  0.18190389149E+03  0.00000000000E+00 0. -1.
</event>
<event>
 7    1  0.2394257E-009  0.9256005E+02  0.7561462E-02  0.1296768E+00
         -3   -1    0    0    0  501 -0.00000000000E+00  0.00000000000E+00  0.49841138046E+02  0.49841138046E+02  0.00000000000E+00 0.  1.
          3   -1    0    0  501    0  0.00000000000E+00 -0.00000000000E+00 -0.55630442550E+03  0.55630442550E+03  0.00000000000E+00 0. -1.
         25    2    1    2    0    0  0.52315862060E+01 -0.51101265818E+02 -0.60873717241E+02  0.14829598940E+03  0.12508949660E+03 0.  0.
          5    1    3    3  502    0  0.17960839602E+02  0.77585645055E+01 -0.81950181408E+02  0.84356930451E+02  0.41800000000E+01 0. -1.
         -5    1    3    3    0  502 -0.12729253396E+02 -0.58859830323E+02  0.21076464167E+02  0.63939058950E+02  0.41800000000E+01 0. -1.
        -11    1    1    2    0    0 -0.34464839627E+02  0.64082296338E+02 -0.32915937536E+03  0.33710571081E+03  0.00000000000E+00 0.  1.
         11    1    1    2    0    0  0.29233253421E+02 -0.12981030520E+02 -0.11643019486E+03  0.12074386334E+03  0.00000000000E+00 0. -1.
</event>
<event>
 7    1  0.2394257E-009  0.1644784E+03  0.7561462E-02  0.1183731E+00
         -1   -1    0    0    0  501 -0.00000000000E+00  0.00000000000E+00  0.19175467658E+02  0.19175467658E+02  0.00000000000E+00 0.  1.
          1   -1    0    0  501    0  0.00000000000E+00 -0.00000000000E+00 -0.22940507344E+04  0.22940507344E+04  0.00000000000E+00 0. -1.
         25    2    1    2    0    0  0.38285031531E+01  0.14381167886E+03 -0.17680953090E+04  0.17783432458E+04  0.12508885579E+03 0.  0.
          5    1    3    3  502    0  0.52704844854E+02  0.62686137714E+02 -0.11607634897E+04  0.11636566091E+04  0.41800000000E+01 0.  1.
         -5    1    3    3    0  502 -0.48876341701E+02  0.81125541146E+02 -0.60733181929E+03  0.61468663669E+03  0.41800000000E+01 0.  1.
        -11    1    1    2    0    0  0.22714269120E+02 -0.56631378563E+02 -0.33415061436E+03  0.33967585156E+03  0.00000000000E+00 0. -1.
         11    1    1    2    0    0 -0.26542772273E+02 -0.87180300297E+02 -0.17262934345E+03  0.19520710474E+03  0.00000000000E+00 0.  1.
</event>
<event>
 7    1  0.2394257E-009  0.1366977E+03  0.7561462E-02  0.1217843E+00
         -1   -1    0    0    0  501 -0.00000000000E+00  0.00000000000E+00  0.87848096187E+02  0.87848096187E+02  0.00000000000E+00 0.  1.
          1   -1    0    0  501    0  0.00000000000E+00 -0.00000000000E+00 -0.23194983634E+03  0.23194983634E+03  0.00000000000E+00 0. -1.
         25    2    1    2    0    0  0.36616911919E+02  0.81187432186E+02 -0.46807414190E+02  0.16053136076E+03  0.12508871404E+03 0.  0.
          5    1    3    3  502    0  0.76471564452E+02  0.23742036185E+02 -0.41511136967E+02  0.90289707853E+02  0.41800000000E+01 0. -1.
         -5    1    3    3    0  502 -0.39854652533E+02  0.57445396001E+02 -0.52962772226E+01  0.70241652904E+02  0.41800000000E+01 0. -1.
        -11    1    1    2    0    0 -0.42780523219E+02 -0.10451383503E+01 -0.50750632610E+02  0.66384427325E+02  0.00000000000E+00 0. -1.
         11    1    1    2    0    0  0.61636112996E+01 -0.80142293836E+02 -0.46543693352E+02  0.92882144444E+02  0.00000000000E+00 0.  1.
</event>
<event>
 7    1  0.2394257E-009  0.8137188E+02  0.7561462E-02  0.1325203E+00
         -2   -1    0    0    0  501 -0.00000000000E+00  0.00000000000E+00  0.34806695890E+03  0.34806695890E+03  0.00000000000E+00 0. -1.
          2   -1    0    0  501    0  0.00000000000E+00 -0.00000000000E+00 -0.52603468154E+02  0.52603468154E+02  0.00000000000E+00 0.  1.
         25    2    1    2    0    0 -0.84527845844E+01 -0.31559297224E+02  0.27283498366E+03  0.30191804925E+03  0.12509253112E+03 0.  0.
          5    1    3    3  502    0 -0.14319258681E+02  0.39709427024E+02  0.39965214864E+02  0.58280104348E+02  0.41800000000E+01 0. -1.
         -5    1    3    3    0  502  0.58664740963E+01 -0.71268724248E+02  0.23286976880E+03  0.24363794490E+03  0.41800000000E+01 0. -1.
        -11    1    1    2    0    0 -0.62312840893E+01  0.33325664562E+02  0.54176131993E+02  0.63909953040E+02  0.00000000000E+00 0. -1.
         11    1    1    2    0    0  0.14684068674E+02 -0.17663673382E+01 -0.31547624908E+02  0.34842424769E+02  0.00000000000E+00 0.  1.
</event>
<event>
 7    1  0.2394257E-009  0.1218991E+03  0.7561462E-02  0.1239997E+00
         -2   -1    0    0    0  501 -0.00000000000E+00  0.00000000000E+00  0.34363264412E+03  0.34363264412E+03  0.00000000000E+00 0. -1.
          2   -1    0    0  501    0  0.00000000000E+00 -0.00000000000E+00 -0.53021139163E+02  0.53021139163E+02  0.00000000000E+00 0.  1.
         25    2    1    2    0    0 -0.64824678090E+02 -0.45242221982E+02  0.17381363355E+03  0.22827232352E+03  0.12509187399E+03 0.  0.
          5    1    3    3  502    0  0.20619922316E+02  0.20755788085E+02  0.84478910754E+01  0.30737976494E+02  0.41800000000E+01 0.  1.
         -5    1    3    3    0  502 -0.85444600406E+02 -0.65998010067E+02  0.16536574248E+03  0.19753434703E+03  0.41800000000E+01 0.  1.
        -11    1    1    2    0    0  0.45662069068E+02  0.64502094802E+02  0.43498685292E+02  0.90209092710E+02  0.00000000000E+00 0.  1.
         11    1    1    2    0    0  0.19162609022E+02 -0.19259872820E+02  0.73299186114E+02  0.78172367053E+02  0.00000000000E+00 0. -1.
</event>
<event>
 7    1  0.2394257E-009  0.1215843E+03  0.7561462E-02  0.1240506E+00
          1   -1    0    0  501    0  0.00000000000E+00  0.00000000000E+00  0.11817024806E+04  0.11817024806E+04  0.00000000000E+00 0. -1.
         -1   -1    0    0    0  501 -0.00000000000E+00 -0.00000000000E+00 -0.20757391254E+02  0.20757391254E+02  0.00000000000E+00 0.  1.
         25    2    1    2    0    0  0.61223341085E+02 -0.65572632090E+01  0.98245938004E+03  0.99230167897E+03  0.12507954851E+03 0.  0.
          5    1    3    3  502    0  0.65831593144E+02 -0.57766786315E+02  0.59644515846E+03  0.60285578683E+03  0.41800000000E+01 0. -1.
         -5    1    3    3    0  502 -0.46082520591E+01  0.51209523106E+02  0.38601422158E+03  0.38944589214E+03  0.41800000000E+01 0. -1.
        -11    1    1    2    0    0 -0.80229078795E+02 -0.70303896987E+01  0.16389387001E+03  0.18261251898E+03  0.00000000000E+00 0. -1.
         11    1    1    2    0    0  0.19005737710E+02  0.13587652908E+02  0.14591839326E+02  0.27545673932E+02  0.00000000000E+00 0.  1.
</event>
<event>
 7    1  0.2394257E-009  0.1693971E+03  0.7561462E-02  0.1178478E+00
         -2   -1    0    0    0  501 -0.00000000000E+00  0.00000000000E+00  0.43488634047E+02  0.43488634047E+02  0.00000000000E+00 0. -1.
          2   -1    0    0  501    0  0.00000000000E+00 -0.00000000000E+00 -0.89171260758E+03  0.89171260758E+03  0.00000000000E+00 0.  1.
         25    2    1    2    0    0  0.13858457724E+03  0.17388517630E+02 -0.65459624393E+03  0.68091967770E+03  0.12508924541E+03 0.  0.
          5    1    3    3  502    0  0.11351323842E+03  0.63202051238E+02 -0.53096544752E+03  0.54664571108E+03  0.41800000000E+01 0. -1.
         -5    1    3    3    0  502  0.25071338822E+02 -0.45813533608E+02 -0.12363079640E+03  0.13427396662E+03  0.41800000000E+01 0. -1.
        -11    1    1    2    0    0 -0.58802744540E+02  0.27449994185E+02 -0.12154681689E+03  0.13778568010E+03  0.00000000000E+00 0. -1.
         11    1    1    2    0    0 -0.79781832699E+02 -0.44838511815E+02 -0.72080912719E+02  0.11649588383E+03  0.00000000000E+00 0.  1.
</event>
<event>
 7    1  0.2394257E-009  0.7204218E+02  0.7561462E-02  0.1353283E+00
          2   -1    0    0  501    0  0.00000000000E+00  0.00000000000E+00  0.40250239149E+03  0.40250239149E+03  0.00000000000E+00 0. -1.
         -2   -1    0    0    0  501 -0.00000000000E+00 -0.00000000000E+00 -0.48133245255E+02  0.48133245255E+02  0.00000000000E+00 0.  1.
         25    2    1    2    0    0 -0.74278128929E+01  0.11775791150E+00  0.33437582442E+03  0.35708128331E+03  0.12507863394E+03 0.  0.
          5    1    3    3  502    0 -0.16753856162E+02 -0.37749165629E+02  0.30567304057E+03  0.30847880208E+03  0.41800000000E+01 0.  1.
         -5    1    3    3    0  502  0.93260432694E+01  0.37866923540E+02  0.28702783843E+02  0.48602481231E+02  0.41800000000E+01 0.  1.
        -11    1    1    2    0    0  0.34481994339E+02  0.74108238248E+01  0.44152646808E+02  0.56510038609E+02  0.00000000000E+00 0. -1.
         11    1    1    2    0    0 -0.27054181446E+02 -0.75285817363E+01 -0.24159324989E+02  0.37044314822E+02  0.00000000000E+00 0.  1.
</event>
<event>
 7    1  0.2961070E-009  0.1074752E+03  0.7561462E-02  0.1265318E+00
         -2   -1    0    0    0  501 -0.00000000000E+00  0.00000000000E+00  0.21196071799E+02  0.21196071799E+02  0.00000000000E+00 0.  1.
          2   -1    0    0  501    0  0.00000000000E+00 -0.00000000000E+00 -0.99730118633E+03  0.99730118633E+03  0.00000000000E+00 0. -1.
         25    2    1    2    0    0  0.46778581130E+02 -0.77382234691E+02 -0.64913268213E+03  0.66723090073E+03  0.12509032724E+03 0.  0.
          5    1    3    3  502    0  0.99396993488E+01 -0.14445351125E+02 -0.46421752057E+01  0.18614187678E+02  0.41800000000E+01 0.  1.
         -5    1    3    3    0  502  0.36838881781E+02 -0.62936883566E+02 -0.64449050693E+03  0.64861671305E+03  0.41800000000E+01 0.  1.
        -11    1    1    2    0    0 -0.57732910072E+02  0.13799204690E+02 -0.11116344059E+03  0.12601911553E+03  0.00000000000E+00 0.  1.
         11    1    1    2    0    0  0.10954328942E+02  0.63583030001E+02 -0.21580899180E+03  0.22524724187E+03  0.00000000000E+00 0. -1.
</event>
<event>
 7    1  0.2394257E-009  0.1251036E+03  0.7561462E-02  0.1234908E+00
          1   -1    0    0  501    0  0.00000000000E+00  0.00000000000E+00  0.35337389784E+03  0.35337389784E+03  0.00000000000E+00 0. -1.
         -1   -1    0    0    0  501 -0.00000000000E+00 -0.00000000000E+00 -0.50611936204E+02  0.50611936204E+02  0.00000000000E+00 0.  1.
         25    2    1    2    0    0 -0.69367685417E+02  0.53151826472E+01  0.20332689917E+03  0.24865340610E+03  0.12508621623E+03 0.  0.
          5    1    3    3  502    0 -0.17829836116E+02 -0.51246405666E+02  0.37838222248E+02  0.66281978037E+02  0.41800000000E+01 0.  1.
         -5    1    3    3    0  502 -0.51537849302E+02  0.56561588313E+02  0.16548867692E+03  0.18237142806E+03  0.41800000000E+01 0.  1.
        -11    1    1    2    0    0  0.91654041967E+02 -0.18150836033E+02  0.81422052065E+02  0.12393331602E+03  0.00000000000E+00 0.  1.
         11    1    1    2    0    0 -0.22286356550E+02  0.12835653386E+02  0.18013010403E+02  0.31399111928E+02  0.00000000000E+00 0. -1.
</event>
<event>
 7    1  0.2394257E-009  0.1004947E+03  0.7561462E-02  0.1279259E+00
          1   -1    0    0  501    0  0.00000000000E+00  0.00000000000E+00  0.56292771942E+03  0.56292771942E+03  0.00000000000E+00 0. -1.
         -1   -1    0    0    0  501 -0.00000000000E+00 -0.00000000000E+00 -0.37688034708E+02  0.37688034708E+02  0.00000000000E+00 0.  1.
         25    2    1    2    0    0 -0.64728241170E+02  0.64730876412E+02  0.21315782510E+03  0.26355966974E+03  0.12509040549E+03 0.  0.
          5    1    3    3  502    0 -0.36081902324E+02  0.58493841025E+02  0.22217788230E+03  0.23260248686E+03  0.41800000000E+01 0. -1.
         -5    1    3    3    0  502 -0.28646338845E+02  0.62370353871E+01 -0.90200571995E+01  0.30957182875E+02  0.41800000000E+01 0. -1.
        -11    1    1    2    0    0  0.20676364606E+02 -0.53064910548E+02  0.67731412333E+02  0.88492604218E+02  0.00000000000E+00 0.  1.
         11    1    1    2    0    0  0.44051876564E+02 -0.11665965864E+02  0.24435044728E+03  0.24856348017E+03  0.00000000000E+00 0. -1.
</event>
<event>
 7    1  0.2394257E-009  0.5987319E+02  0.7561462E-02  0.1398365E+00
          1   -1    0    0  501    0  0.00000000000E+00  0.00000000000E+00  0.44223972555E+03  0.44223972555E+03  0.00000000000E+00 0. -1.
         -1   -1    0    0    0  501 -0.00000000000E+00 -0.00000000000E+00 -0.30449181537E+02  0.30449181537E+02  0.00000000000E+00 0.  1.
         25    2    1    2    0    0  0.24386982869E+02 -0.31160200050E+02  0.20970154988E+03  0.24735410077E+03  0.12507449039E+03 0.  0.
          5    1    3    3  502    0  0.14075033452E+02 -0.23227882061E+02 -0.84699615438E+01  0.28755064254E+02  0.41800000000E+01 0.  1.
         -5    1    3    3    0  502  0.10311949417E+02 -0.79323179893E+01  0.21817151143E+03  0.21859903652E+03  0.41800000000E+01 0.  1.
        -11    1    1    2    0    0 -0.36650999041E+02 -0.80449401763E+01  0.16744494169E+03  0.17159785922E+03  0.00000000000E+00 0. -1.
         11    1    1    2    0    0  0.12264016171E+02  0.39205140226E+02  0.34644052441E+02  0.53736947088E+02  0.00000000000E+00 0.  1.
</event>
<event>
 7    1  0.2394257E-009  0.1157847E+03  0.7561462E-02  0.1250218E+00
         -2   -1    0    0    0  501 -0.00000000000E+00  0.00000000000E+00  0.50789954303E+02  0.50789954303E+02  0.00000000000E+00 0.  1.
          2   -1    0    0  501    0  0.00000000000E+00 -0.00000000000E+00 -0.35439915247E+03  0.35439915247E+03  0.00000000000E+00 0. -1.
         25    2    1    2    0    0 -0.32489503699E+02  0.58350508468E+02 -0.22518215743E+03  0.26611330815E+03  0.12509571960E+03 0.  0.
          5    1    3    3  502    0 -0.15196798145E+02 -0.38226372967E+02 -0.89831458833E+02  0.98890655070E+02  0.41800000000E+01 0.  1.
         -5    1    3    3    0  502 -0.17292705554E+02  0.96576881435E+02 -0.13535069860E+03  0.16722265308E+03  0.41800000000E+01 0.  1.
        -11    1    1    2    0    0 -0.12867205675E+02 -0.41802804202E+02 -0.79550475247E+02  0.90781702634E+02  0.00000000000E+00 0. -1.
         11    1    1    2    0    0  0.45356709374E+02 -0.16547704266E+02  0.11234345152E+01  0.48294095983E+02  0.00000000000E+00 0.  1.
</event>
<event>
 7    1  0.2394257E-009  0.7263383E+02  0.7561462E-02  0.1351359E+00
         -3   -1    0    0    0  501 -0.00000000000E+00  0.00000000000E+00  0.97194625038E+02  0.97194625038E+02  0.00000000000E+00 0.  1.
          3   -1    0    0  501    0  0.00000000000E+00 -0.00000000000E+00 -0.14512399156E+03  0.14512399156E+03  0.00000000000E+00 0. -1.
         25    2    1    2    0    0 -0.18914935810E+02 -0.33292028013E+02  0.22723574021E+01  0.13083769777E+03  0.12508879096E+03 0.  0.
          5    1    3    3  502    0 -0.29680882534E+01  0.16918664760E+02  0.54040829169E+02  0.56858898885E+02  0.41800000000E+01 0.  1.
         -5    1    3    3    0  502 -0.15946847556E+02 -0.50210692773E+02 -0.51768471767E+02  0.73978798887E+02  0.41800000000E+01 0.  1.
        -11    1    1    2    0    0 -0.69851282180E+01 -0.16885839394E+02  0.16126189581E+02  0.24371655231E+02  0.00000000000E+00 0.  1.
         11    1    1    2    0    0  0.25900064028E+02  0.50177867407E+02 -0.66327913511E+02  0.87109263599E+02  0.00000000000E+00 0. -1.
</event>
<event>
 7    1  0.2394257E-009  0.1245871E+03  0.7561462E-02  0.1235716E+00
          2   -1    0    0  501    0  0.00000000000E+00  0.00000000000E+00  0.61230957375E+03  0.61230957375E+03  0.00000000000E+00 0. -1.
         -2   -1    0    0    0  501 -0.00000000000E+00 -0.00000000000E+00 -0.35642893238E+02  0.35642893238E+02  0.00000000000E+00 0.  1.
         25    2    1    2    0    0  0.29789499050E+02 -0.94377257576E+02  0.33575519693E+03  0.37171745850E+03  0.12509130941E+03 0.  0.
          5    1    3    3  502    0 -0.17030312486E+02 -0.26823693054E+02  0.69800996810E+01  0.32798418315E+02  0.41800000000E+01 0.  1.
         -5    1    3    3    0  502  0.46819811536E+02 -0.67553564522E+02  0.32877509724E+03  0.33891904018E+03  0.41800000000E+01 0.  1.
        -11    1    1    2    0    0  0.23850692854E+02  0.73492937755E+02  0.12845247139E+03  0.14990031639E+03  0.00000000000E+00 0.  1.
         11    1    1    2    0    0 -0.53640191904E+02  0.20884319821E+02  0.11245901220E+03  0.12633469210E+03  0.00000000000E+00 0. -1.
</event>
<event>
 7    1  0.2394257E-009  0.1033061E+03  0.7561462E-02  0.1273493E+00
          1   -1    0    0  501    0  0.00000000000E+00  0.00000000000E+00  0.58887328824E+03  0.58887328824E+03  0.00000000000E+00 0. -1.
         -1   -1    0    0    0  501 -0.00000000000E+00 -0.00000000000E+00 -0.52388875815E+02  0.52388875815E+02  0.00000000000E+00 0.  1.
         25    2    1    2    0    0  0.79830531154E+02  0.44321535210E+01  0.48754382304E+03  0.50964967364E+03  0.12510496698E+03 0.  0.
          5    1    3    3  502    0  0.68477334919E+02  0.31769011338E+02  0.12650294306E+03  0.14737327601E+03  0.41800000000E+01 0.  1.
         -5    1    3    3    0  502  0.11353196235E+02 -0.27336857817E+02  0.36104087998E+03  0.36227639763E+03  0.41800000000E+01 0.  1.
        -11    1    1    2    0    0 -0.41631276955E+02 -0.33237202724E+02 -0.11529542047E+02  0.54505093392E+02  0.00000000000E+00 0.  1.
         11    1    1    2    0    0 -0.38199254199E+02  0.28805049203E+02  0.60470131435E+02  0.77107397030E+02  0.00000000000E+00 0. -1.
</event>
<event>
 7    1  0.2394257E-009  0.9276627E+02  0.7561462E-02  0.1296288E+00
          2   -1    0    0  501    0  0.00000000000E+00  0.00000000000E+00  0.16174784396E+03  0.16174784396E+03  0.00000000000E+00 0. -1.
         -2   -1    0    0    0  501 -0.00000000000E+00 -0.00000000000E+00 -0.10978768120E+03  0.10978768120E+03  0.00000000000E+00 0.  1.
         25    2    1    2    0    0  0.96342329303E+00 -0.55052461698E+02 -0.28444656165E+02  0.13960073022E+03  0.12509022221E+03 0.  0.
          5    1    3    3  502    0  0.29758452978E+02 -0.16708617269E+02 -0.68718495892E+02  0.76840402735E+02  0.41800000000E+01 0. -1.
         -5    1    3    3    0  502 -0.28795029685E+02 -0.38343844429E+02  0.40273839728E+02  0.62760327490E+02  0.41800000000E+01 0. -1.
        -11    1    1    2    0    0  0.15691365319E+02  0.75231696412E+02  0.69404120000E+02  0.10355172120E+03  0.00000000000E+00 0.  1.
         11    1    1    2    0    0 -0.16654788612E+02 -0.20179234714E+02  0.11000698926E+02  0.28383073728E+02  0.00000000000E+00 0. -1.
</event>
<event>
 7    1  0.2394257E-009  0.1163045E+03  0.7561462E-02  0.1249321E+00
          1   -1    0    0  501    0  0.00000000000E+00  0.00000000000E+00  0.14558796885E+03  0.14558796885E+03  0.00000000000E+00 0. -1.
         -1   -1    0    0    0  501 -0.00000000000E+00 -0.00000000000E+00 -0.12667647140E+03  0.12667647140E+03  0.00000000000E+00 0.  1.
         25    2    1    2    0    0  0.47285036527E+02 -0.51570113709E+01  0.78024537991E+02  0.15492094210E+03  0.12510076069E+03 0.  0.
          5    1    3    3  502    0  0.88595139153E+02 -0.11117237735E+02  0.38637265553E+02  0.97380708284E+02  0.41800000000E+01 0. -1.
         -5    1    3    3    0  502 -0.41310102626E+02  0.59602263644E+01  0.39387272438E+02  0.57540233814E+02  0.41800000000E+01 0. -1.
        -11    1    1    2    0    0 -0.51095632893E+02 -0.34360128424E+02 -0.38365664116E+02  0.72548647879E+02  0.00000000000E+00 0.  1.
         11    1    1    2    0    0  0.38105963656E+01  0.39517139795E+02 -0.20747376424E+02  0.44794850270E+02  0.00000000000E+00 0. -1.
</event>
<event>
 7    1  0.2394257E-009  0.1274005E+03  0.7561462E-02  0.1231365E+00
          1   -1    0    0  501    0  0.00000000000E+00  0.00000000000E+00  0.34635174765E+03  0.34635174765E+03  0.00000000000E+00 0. -1.
         -1   -1    0    0    0  501 -0.00000000000E+00 -0.00000000000E+00 -0.53729017111E+02  0.53729017111E+02  0.00000000000E+00 0.  1.
         25    2    1    2    0    0  0.59934945954E+02  0.36849175426E+02  0.94752632266E+02  0.17197477163E+03  0.12508877360E+03 0.  0.
          5    1    3    3  502    0  0.91163566541E+02 -0.21124340628E+01  0.74895805727E+02  0.11807672234E+03  0.41800000000E+01 0.  1.
         -5    1    3    3    0  502 -0.31228620587E+02  0.38961609489E+02  0.19856826539E+02  0.53898049297E+02  0.41800000000E+01 0.  1.
        -11    1    1    2    0    0  0.17362198106E+02 -0.31450700680E+02  0.66684116147E+02  0.75745388260E+02  0.00000000000E+00 0.  1.
         11    1    1    2    0    0 -0.77297144060E+02 -0.53984747465E+01  0.13118598212E+03  0.15236060487E+03  0.00000000000E+00 0. -1.
</event>
<event>
 7    1  0.2394257E-009  0.1768721E+03  0.7561462E-02  0.1170865E+00
         -1   -1    0    0    0  501 -0.00000000000E+00  0.00000000000E+00  0.10736566156E+03  0.10736566156E+03  0.00000000000E+00 0.  1.
          1   -1    0    0  501    0  0.00000000000E+00 -0.00000000000E+00 -0.37648194858E+03  0.37648194858E+03  0.00000000000E+00 0. -1.
         25    2    1    2    0    0 -0.14163345064E+03  0.88205224856E+02 -0.16573282413E+03  0.26637315988E+03  0.12508834990E+03 0.  0.
          5    1    3    3  502    0  0.95035398083E+01 -0.10603603013E+01 -0.61091420818E+02  0.61976412694E+02  0.41800000000E+01 0.  1.
         -5    1    3    3    0  502 -0.15113699045E+03  0.89265585158E+02 -0.10464140331E+03  0.20439674719E+03  0.41800000000E+01 0.  1.
        -11    1    1    2    0    0  0.99711108732E+02 -0.71032709790E+02 -0.22078963467E+02  0.12440028815E+03  0.00000000000E+00 0.  1.
         11    1    1    2    0    0  0.41922341906E+02 -0.17172515066E+02 -0.81304499428E+02  0.93074162106E+02  0.00000000000E+00 0. -1.
</event>
<event>
 7    1  0.2394257E-009  0.8119911E+02  0.7561462E-02  0.1325683E+00
          1   -1    0    0  501    0  0.00000000000E+00  0.00000000000E+00  0.29330355844E+02  0.29330355844E+02  0.00000000000E+00 0. -1.
         -1   -1    0    0    0  501 -0.00000000000E+00 -0.00000000000E+00 -0.49605170823E+03  0.49605170823E+03  0.00000000000E+00 0.  1.
         25    2    1    2    0    0 -0.36098902902E+02 -0.34246312766E+02 -0.30075326509E+03  0.32950837386E+03  0.12508917322E+03 0.  0.
          5    1    3    3  502    0 -0.69881815192E+01 -0.39804651791E+02 -0.16772774350E+02  0.43955015010E+02  0.41800000000E+01 0. -1.
         -5    1    3    3    0  502 -0.29110721383E+02  0.55583390254E+01 -0.28398049074E+03  0.28555335885E+03  0.41800000000E+01 0. -1.
        -11    1    1    2    0    0  0.38875568074E+02 -0.15619611391E+02 -0.31460023825E+02  0.52392892191E+02  0.00000000000E+00 0. -1.
         11    1    1    2    0    0 -0.27766651715E+01  0.49865924157E+02 -0.13450806348E+03  0.14348079803E+03  0.00000000000E+00 0.  1.
</event>
<event>
 7    1  0.2394257E-009  0.1490380E+03  0.7561462E-02  0.1201660E+00
          2   -1    0    0  501    0  0.00000000000E+00  0.00000000000E+00  0.74212572082E+03  0.74212572082E+03  0.00000000000E+00 0. -1.
         -2   -1    0    0    0  501 -0.00000000000E+00 -0.00000000000E+00 -0.33535694898E+02  0.33535694898E+02  0.00000000000E+00 0.  1.
         25    2    1    2    0    0 -0.75886785403E+02 -0.76645768305E+02  0.29028011693E+03  0.33398111699E+03  0.12508981662E+03 0.  0.
          5    1    3    3  502    0  0.27794178828E+02 -0.49516784036E+02  0.83900900012E+02  0.10139655665E+03  0.41800000000E+01 0. -1.
         -5    1    3    3    0  502 -0.10368096423E+03 -0.27128984269E+02  0.20637921692E+03  0.23258456034E+03  0.41800000000E+01 0. -1.
        -11    1    1    2    0    0  0.90117525903E+02  0.48483777428E+02  0.24485212835E+03  0.26537597838E+03  0.00000000000E+00 0.  1.
         11    1    1    2    0    0 -0.14230740500E+02  0.28161990877E+02  0.17345778064E+03  0.17630432034E+03  0.00000000000E+00 0. -1.
</event>
<event>
 7    1  0.2394257E-009  0.2681431E+03  0.7561462E-02  0.1102347E+00
          2   -1    0    0  501    0  0.00000000000E+00  0.00000000000E+00  0.12367244408E+04  0.12367244408E+04  0.00000000000E+00 0. -1.
         -2   -1    0    0    0  501 -0.00000000000E+00 -0.00000000000E+00 -0.67938254985E+02  0.67938254985E+02  0.00000000000E+00 0.  1.
         25    2    1    2    0    0 -0.21135470895E+03 -0.13175439309E+03  0.82912426689E+03  0.87471391168E+03  0.12508934504E+03 0.  0.
          5    1    3    3  502    0 -0.22155920690E+03 -0.14140449123E+03  0.80050588580E+03  0.84256207955E+03  0.41800000000E+01 0.  1.
         -5    1    3    3    0  502  0.10204497954E+02  0.96500981405E+01  0.28618381090E+02  0.32151832123E+02  0.41800000000E+01 0.  1.
        -11    1    1    2    0    0  0.11464606327E+03  0.11156030069E+03  0.16863241547E+03  0.23243560842E+03  0.00000000000E+00 0.  1.
         11    1    1    2    0    0  0.96708645679E+02  0.20194092396E+02  0.17102950343E+03  0.19751317566E+03  0.00000000000E+00 0. -1.
</event>
<event>
 7    1  0.2394257E-009  0.7394044E+02  0.7561462E-02  0.1347184E+00
          2   -1    0    0  501    0  0.00000000000E+00  0.00000000000E+00  0.21138244571E+03  0.21138244571E+03  0.00000000000E+00 0. -1.
         -2   -1    0    0    0  501 -0.00000000000E+00 -0.00000000000E+00 -0.57259939596E+02  0.57259939596E+02  0.00000000000E+00 0.  1.
         25    2    1    2    0    0 -0.15719055930E+02 -0.16410191451E+02  0.10884903707E+03  0.16736771537E+03  0.12508979245E+03 0.  0.
          5    1    3    3  502    0 -0.50084821805E+02  0.27156519681E+01  0.11665836468E+03  0.12705318017E+03  0.41800000000E+01 0.  1.
         -5    1    3    3    0  502  0.34365765876E+02 -0.19125843419E+02 -0.78093276157E+01  0.40314535202E+02  0.41800000000E+01 0.  1.
        -11    1    1    2    0    0 -0.15928549326E+02 -0.81925907593E+01  0.56805910345E+02  0.59562980761E+02  0.00000000000E+00 0. -1.
         11    1    1    2    0    0  0.31647605256E+02  0.24602782211E+02 -0.11532441302E+02  0.41711689169E+02  0.00000000000E+00 0.  1.
</event>
<event>
 7    1  0.2394257E-009  0.1358775E+03  0.7561462E-02  0.1218986E+00
         -1   -1    0    0    0  501 -0.00000000000E+00  0.00000000000E+00  0.79244376466E+02  0.79244376466E+02  0.00000000000E+00 0.  1.
          1   -1    0    0  501    0  0.00000000000E+00 -0.00000000000E+00 -0.42159144687E+03  0.42159144687E+03  0.00000000000E+00 0. -1.
         25    2    1    2    0    0  0.86704498633E+01 -0.98802417351E+02 -0.32812081601E+03  0.36489256714E+03  0.12508485632E+03 0.  0.
          5    1    3    3  502    0  0.17636267628E+02 -0.11995517345E+03 -0.31620004271E+03  0.33867421069E+03  0.41800000000E+01 0.  1.
         -5    1    3    3    0  502 -0.89658177643E+01  0.21152756104E+02 -0.11920773295E+02  0.26218356450E+02  0.41800000000E+01 0.  1.
        -11    1    1    2    0    0  0.32225026644E+02  0.70015363087E+02  0.14266936615E+02  0.78384621519E+02  0.00000000000E+00 0.  1.
         11    1    1    2    0    0 -0.40895476507E+02  0.28787054264E+02 -0.28493191007E+02  0.57558634675E+02  0.00000000000E+00 0. -1.
</event>
<event>
 7    1  0.2394257E-009  0.1107096E+03  0.7561462E-02  0.1259261E+00
          1   -1    0    0  501    0  0.00000000000E+00  0.00000000000E+00  0.56951869348E+03  0.56951869348E+03  0.00000000000E+00 0. -1.
         -1   -1    0    0    0  501 -0.00000000000E+00 -0.00000000000E+00 -0.39103722120E+02  0.39103722120E+02  0.00000000000E+00 0.  1.
         25    2    1    2    0    0  0.68450950200E+02 -0.35606615852E+02  0.42614490512E+03  0.45077700815E+03  0.12508823781E+03 0.  0.
          5    1    3    3  502    0  0.75140203800E+02  0.19446753843E+02  0.33586058045E+03  0.34473762249E+03  0.41800000000E+01 0. -1.
         -5    1    3    3    0  502 -0.66892536002E+01 -0.55053369695E+02  0.90284324673E+02  0.10603938566E+03  0.41800000000E+01 0. -1.
        -11    1    1    2    0    0 -0.67498461883E+02  0.17215243266E+02  0.11650064764E+03  0.13573801183E+03  0.00000000000E+00 0. -1.
         11    1    1    2    0    0 -0.95248831712E+00  0.18391372586E+02 -0.12230581399E+02  0.22107395617E+02  0.00000000000E+00 0.  1.
</event>
<event>
 7    1  0.2394257E-009  0.1042104E+03  0.7561462E-02  0.1271683E+00
         -2   -1    0    0    0  501 -0.00000000000E+00  0.00000000000E+00  0.92002352749E+02  0.92002352749E+02  0.00000000000E+00 0.  1.
          2   -1    0    0  501    0  0.00000000000E+00 -0.00000000000E+00 -0.20697148437E+03  0.20697148437E+03  0.00000000000E+00 0. -1.
         25    2    1    2    0    0  0.64296946703E+02 -0.48652778045E+02 -0.92246348679E+02  0.17509444803E+03  0.12508991454E+03 0.  0.
          5    1    3    3  502    0  0.41553960916E+01  0.45702189575E+01 -0.94353829071E+02  0.94648146725E+02  0.41800000000E+01 0. -1.
         -5    1    3    3    0  502  0.60141550611E+02 -0.53222997003E+02  0.21074803920E+01  0.80446301304E+02  0.41800000000E+01 0. -1.
        -11    1    1    2    0    0  0.75461019566E+00  0.55162150034E+02 -0.16547093440E+01  0.55192121683E+02  0.00000000000E+00 0.  1.
         11    1    1    2    0    0 -0.65051556898E+02 -0.65093719886E+01 -0.21068073596E+02  0.68687267405E+02  0.00000000000E+00 0. -1.
</event>
<event>
 7    1  0.2394257E-009  0.1115803E+03  0.7561462E-02  0.1257671E+00
          3   -1    0    0  501    0  0.00000000000E+00  0.00000000000E+00  0.18031246894E+03  0.18031246894E+03  0.00000000000E+00 0. -1.
         -3   -1    0    0    0  501 -0.00000000000E+00 -0.00000000000E+00 -0.96123756469E+02  0.96123756469E+02  0.00000000000E+00 0.  1.
         25    2    1    2    0    0 -0.64439302232E+02 -0.22918461695E+01  0.37913018419E+01  0.14078842656E+03  0.12509728555E+03 0.  0.
          5    1    3    3  502    0 -0.42275750557E+02  0.45421057438E+02  0.42511403345E+02  0.75332618156E+02  0.41800000000E+01 0.  1.
         -5    1    3    3    0  502 -0.22163551675E+02 -0.47712903608E+02 -0.38720101503E+02  0.65455808405E+02  0.41800000000E+01 0.  1.
        -11    1    1    2    0    0  0.20329218279E+02  0.43382887279E+02  0.26322559571E+02  0.54664697629E+02  0.00000000000E+00 0. -1.
         11    1    1    2    0    0  0.44110083953E+02 -0.41091041110E+02  0.54074851057E+02  0.80983101217E+02  0.00000000000E+00 0.  1.
</event>
<event>
 7    1  0.2394257E-009  0.1231847E+03  0.7561462E-02  0.1237934E+00
         -2   -1    0    0    0  501 -0.00000000000E+00  0.00000000000E+00  0.50861472933E+02  0.50861472933E+02  0.00000000000E+00 0. -1.
          2   -1    0    0  501    0  0.00000000000E+00 -0.00000000000E+00 -0.49955763677E+03  0.49955763677E+03  0.00000000000E+00 0.  1.
         25    2    1    2    0    0  0.78977250967E+02 -0.46053476545E+02 -0.10995944461E+03  0.18999211029E+03  0.12509034193E+03 0.  0.
          5    1    3    3  502    0  0.53643519852E+02  0.38765242513E+02 -0.47579281075E+02  0.81618819134E+02  0.41800000000E+01 0.  1.
         -5    1    3    3    0  502  0.25333731115E+02 -0.84818719058E+02 -0.62380163532E+02  0.10837329116E+03  0.41800000000E+01 0.  1.
        -11    1    1    2    0    0 -0.15746941265E+02  0.85813060700E+01 -0.48941562717E+01  0.18589183378E+02  0.00000000000E+00 0. -1.
         11    1    1    2    0    0 -0.63230309702E+02  0.37472170475E+02 -0.33384256295E+03  0.34183781603E+03  0.00000000000E+00 0.  1.
</event>
<event>
 7    1  0.2394257E-009  0.1015269E+03  0.7561462E-02  0.1277117E+00
         -2   -1    0    0    0  501 -0.00000000000E+00  0.00000000000E+00  0.38529846663E+02  0.38529846663E+02  0.00000000000E+00 0.  1.
          2   -1    0    0  501    0  0.00000000000E+00 -0.00000000000E+00 -0.34739161064E+03  0.34739161064E+03  0.00000000000E+00 0. -1.
         25    2    1    2    0    0 -0.40290003583E+02  0.92031478716E+01 -0.17505177411E+03  0.21908492067E+03  0.12508835487E+03 0.  0.
          5    1    3    3  502    0  0.15114671568E+02  0.53633064099E+02 -0.10660627329E+03  0.12036331985E+03  0.41800000000E+01 0.  1.
         -5    1    3    3    0  502 -0.55404675151E+02 -0.44429916227E+02 -0.68445500818E+02  0.98721600811E+02  0.41800000000E+01 0.  1.
        -11    1    1    2    0    0  0.27284836393E+01  0.25050349769E+02 -0.16678442855E+01  0.25253640353E+02  0.00000000000E+00 0.  1.
         11    1    1    2    0    0  0.37561519943E+02 -0.34253497641E+02 -0.13214214559E+03  0.14158289629E+03  0.00000000000E+00 0. -1.
</event>
<event>
 7    1  0.2394257E-009  0.1388308E+03  0.7561462E-02  0.1214911E+00
          1   -1    0    0  501    0  0.00000000000E+00  0.00000000000E+00  0.76098551074E+02  0.76098551074E+02  0.00000000000E+00 0. -1.
         -1   -1    0    0    0  501 -0.00000000000E+00 -0.00000000000E+00 -0.39114560715E+03  0.39114560715E+03  0.00000000000E+00 0.  1.
         25    2    1    2    0    0 -0.72192457680E+02  0.88632444856E+02 -0.26102361226E+03  0.31120831858E+03  0.12509928125E+03 0.  0.
          5    1    3    3  502    0 -0.10028082120E+03  0.77697483330E+02 -0.24699566774E+03  0.27770033183E+03  0.41800000000E+01 0.  1.
         -5    1    3    3    0  502  0.28088363517E+02  0.10934961526E+02 -0.14027944520E+02  0.33507986751E+02  0.41800000000E+01 0.  1.
        -11    1    1    2    0    0  0.28132033784E+02 -0.94295439977E+01 -0.58178219456E+02  0.65307218927E+02  0.00000000000E+00 0.  1.
         11    1    1    2    0    0  0.44060423896E+02 -0.79202900858E+02  0.41547756324E+01  0.90728620725E+02  0.00000000000E+00 0. -1.
</event>
<event>
 7    1  0.2394257E-009  0.1084193E+03  0.7561462E-02  0.1263525E+00
          3   -1    0    0  501    0  0.00000000000E+00  0.00000000000E+00  0.11323650344E+03  0.11323650344E+03  0.00000000000E+00 0. -1.
         -3   -1    0    0    0  501 -0.00000000000E+00 -0.00000000000E+00 -0.11627241639E+03  0.11627241639E+03  0.00000000000E+00 0.  1.
         25    2    1    2    0    0 -0.28780866333E+02 -0.31585931535E+01  0.21408170224E+02  0.13016923916E+03  0.12508959227E+03 0.  0.
          5    1    3    3  502    0  0.47241312464E+02 -0.84072221721E+01  0.23987517446E+02  0.53807958344E+02  0.41800000000E+01 0.  1.
         -5    1    3    3    0  502 -0.76022178797E+02  0.52486290186E+01 -0.25793472220E+01  0.76361280815E+02  0.41800000000E+01 0.  1.
        -11    1    1    2    0    0  0.51065566926E+02 -0.24663076401E+02 -0.28491595452E+02  0.63464403207E+02  0.00000000000E+00 0. -1.
         11    1    1    2    0    0 -0.22284700593E+02  0.27821669555E+02  0.40475122813E+01  0.35875277463E+02  0.00000000000E+00 0.  1.
</event>
<event>
 7    1  0.2394257E-009  0.1158646E+03  0.7561462E-02  0.1250079E+00
         -2   -1    0    0    0  501 -0.00000000000E+00  0.00000000000E+00  0.43457562996E+03  0.43457562996E+03  0.00000000000E+00 0.  1.
          2   -1    0    0  501    0  0.00000000000E+00 -0.00000000000E+00 -0.42685642800E+02  0.42685642800E+02  0.00000000000E+00 0. -1.
         25    2    1    2    0    0  0.35970086076E+02 -0.67922987256E+02  0.23705326738E+03  0.27883524923E+03  0.12508982910E+03 0.  0.
          5    1    3    3  502    0  0.55897422842E+02  0.13902074508E+02  0.13234338165E+03  0.14439540374E+03  0.41800000000E+01 0.  1.
         -5    1    3    3    0  502 -0.19927336766E+02 -0.81825061764E+02  0.10470988574E+03  0.13443984549E+03  0.41800000000E+01 0.  1.
        -11    1    1    2    0    0 -0.23582964944E+02  0.32466796982E+01  0.12299921501E+03  0.12528169881E+03  0.00000000000E+00 0.  1.
         11    1    1    2    0    0 -0.12387121132E+02  0.64676307558E+02  0.31837504773E+02  0.73144324724E+02  0.00000000000E+00 0. -1.
</event>
<event>
 7    1  0.2394257E-009  0.9740154E+02  0.7561462E-02  0.1285857E+00
         -1   -1    0    0    0  501 -0.00000000000E+00  0.00000000000E+00  0.29653502072E+02  0.29653502072E+02  0.00000000000E+00 0.  1.
          1   -1    0    0  501    0  0.00000000000E+00 -0.00000000000E+00 -0.46329891991E+03  0.46329891991E+03  0.00000000000E+00 0. -1.
         25    2    1    2    0    0  0.16161238444E+02  0.29415932608E+02 -0.19438892203E+03  0.23358331063E+03  0.12509047638E+03 0.  0.
          5    1    3    3  502    0 -0.20851708796E+02  0.49130190067E+02 -0.25099809822E+02  0.59127338760E+02  0.41800000000E+01 0.  1.
         -5    1    3    3    0  502  0.37012947239E+02 -0.19714257459E+02 -0.16928911221E+03  0.17445597187E+03  0.41800000000E+01 0.  1.
        -11    1    1    2    0    0 -0.51445655194E+02 -0.36573324008E+02 -0.16945816996E+03  0.18083233902E+03  0.00000000000E+00 0. -1.
         11    1    1    2    0    0  0.35284416750E+02  0.71573914006E+01 -0.69798325842E+02  0.78536772326E+02  0.00000000000E+00 0.  1.
</event>
<event>
 7    1  0.2394257E-009  0.1044012E+03  0.7561462E-02  0.1271304E+00
         -2   -1    0    0    0  501 -0.00000000000E+00  0.00000000000E+00  0.98981970017E+03  0.98981970017E+03  0.00000000000E+00 0.  1.
          2   -1    0    0  501    0  0.00000000000E+00 -0.00000000000E+00 -0.11956340392E+02  0.11956340392E+02  0.00000000000E+00 0. -1.
         25    2    1    2    0    0  0.34380058506E+01  0.10208280819E+02  0.56096466530E+03  0.57484341241E+03  0.12509022422E+03 0.  0.
          5    1    3    3  502    0  0.21635322140E+02 -0.49653862939E+02  0.15916656811E+03  0.16818163417E+03  0.41800000000E+01 0.  1.
         -5    1    3    3    0  502 -0.18197316289E+02  0.59862143759E+02  0.40179809719E+03  0.40666177824E+03  0.41800000000E+01 0.  1.
        -11    1    1    2    0    0  0.42406321092E+02 -0.16489920069E+02  0.22222896561E+03  0.22683898847E+03  0.00000000000E+00 0.  1.
         11    1    1    2    0    0 -0.45844326942E+02  0.62816392498E+01  0.19466972887E+03  0.20009363969E+03  0.00000000000E+00 0. -1.
</event>
<event>
 7    1  0.2394257E-009  0.1153255E+03  0.7561462E-02  0.1251014E+00
         -1   -1    0    0    0  501 -0.00000000000E+00  0.00000000000E+00  0.14644222285E+03  0.14644222285E+03  0.00000000000E+00 0.  1.
          1   -1    0    0  501    0  0.00000000000E+00 -0.00000000000E+00 -0.18454886013E+03  0.18454886013E+03  0.00000000000E+00 0. -1.
         25    2    1    2    0    0  0.89828850173E+02 -0.11664678132E+02 -0.10390260383E+03  0.18614298753E+03  0.12509266039E+03 0.  0.
          5    1    3    3  502    0  0.80221715267E+02  0.15862410039E+02 -0.12533894740E+03  0.14971460779E+03  0.41800000000E+01 0.  1.
         -5    1    3    3    0  502  0.96071349059E+01 -0.27527088171E+02  0.21436343570E+02  0.36428379732E+02  0.41800000000E+01 0.  1.
        -11    1    1    2    0    0 -0.99133353996E+00 -0.23683341881E+02 -0.69572053165E+01  0.24703969937E+02  0.00000000000E+00 0. -1.
         11    1    1    2    0    0 -0.88837516633E+02  0.35348020013E+02  0.72753171858E+02  0.12014412551E+03  0.00000000000E+00 0.  1.
</event>
<event>
 7    1  0.2394257E-009  0.1225638E+03  0.7561462E-02  0.1238927E+00
         -1   -1    0    0    0  501 -0.00000000000E+00  0.00000000000E+00  0.48921983511E+03  0.48921983511E+03  0.00000000000E+00 0.  1.
          1   -1    0    0  501    0  0.00000000000E+00 -0.00000000000E+00 -0.36278617936E+02  0.36278617936E+02  0.00000000000E+00 0. -1.
         25    2    1    2    0    0 -0.23751709674E+02  0.69557899428E+02  0.28748148304E+03  0.32201694442E+03  0.12508742669E+03 0.  0.
          5    1    3    3  502    0 -0.62514188381E+02  0.18436779467E+02  0.21701193573E+03  0.22662654574E+03  0.41800000000E+01 0. -1.
         -5    1    3    3    0  502  0.38762478707E+02  0.51121119961E+02  0.70469547308E+02  0.95390398675E+02  0.41800000000E+01 0. -1.
        -11    1    1    2    0    0 -0.25137261342E+02 -0.60889997824E+02  0.71569162231E+02  0.97270852393E+02  0.00000000000E+00 0.  1.
         11    1    1    2    0    0  0.48888971016E+02 -0.86679016045E+01  0.93890571909E+02  0.10621065624E+03  0.00000000000E+00 0. -1.
</event>
<event>
 7    1  0.2394257E-009  0.6169153E+02  0.7561462E-02  0.1390867E+00
         -2   -1    0    0    0  501 -0.00000000000E+00  0.00000000000E+00  0.64821049190E+02  0.64821049190E+02  0.00000000000E+00 0.  1.
          2   -1    0    0  501    0  0.00000000000E+00 -0.00000000000E+00 -0.36365695649E+03  0.36365695649E+03  0.00000000000E+00 0. -1.
         25    2    1    2    0    0 -0.57920589417E+00  0.60681689482E+02 -0.28245445898E+03  0.31481812581E+03  0.12508928021E+03 0.  0.
          5    1    3    3  502    0  0.33693384591E+01  0.29510165060E+02  0.59390657101E+00  0.30000456805E+02  0.41800000000E+01 0. -1.
         -5    1    3    3    0  502 -0.39485443533E+01  0.31171524422E+02 -0.28304836555E+03  0.28481766900E+03  0.41800000000E+01 0. -1.
        -11    1    1    2    0    0  0.57909691056E+01 -0.27562049868E+02  0.39488001701E+02  0.48502620490E+02  0.00000000000E+00 0.  1.
         11    1    1    2    0    0 -0.52117632114E+01 -0.33119639614E+02 -0.55869450020E+02  0.65157259377E+02  0.00000000000E+00 0. -1.
</event>
<event>
 7    1  0.2394257E-009  0.1104095E+03  0.7561462E-02  0.1259813E+00
         -1   -1    0    0    0  501 -0.00000000000E+00  0.00000000000E+00  0.76407913030E+02  0.76407913030E+02  0.00000000000E+00 0.  1.
          1   -1    0    0  501    0  0.00000000000E+00 -0.00000000000E+00 -0.26312319938E+03  0.26312319938E+03  0.00000000000E+00 0. -1.
         25    2    1    2    0    0 -0.56273623022E+02  0.30917122536E+02 -0.23812600679E+02  0.14260256646E+03  0.12508342374E+03 0.  0.
          5    1    3    3  502    0 -0.38617574523E+02  0.79576515489E+02 -0.12189694488E+02  0.89385680795E+02  0.41800000000E+01 0.  1.
         -5    1    3    3    0  502 -0.17656048499E+02 -0.48659392953E+02 -0.11622906191E+02  0.53216885661E+02  0.41800000000E+01 0.  1.
        -11    1    1    2    0    0  0.55124838132E+02 -0.60648251437E+01 -0.32721094362E+02  0.64390992377E+02  0.00000000000E+00 0.  1.
         11    1    1    2    0    0  0.11487848902E+01 -0.24852297392E+02 -0.13018159131E+03  0.13253755357E+03  0.00000000000E+00 0. -1.
</event>
<event>
 7    1  0.2394257E-009  0.9298517E+02  0.7561462E-02  0.1295780E+00
         -4   -1    0    0    0  501 -0.00000000000E+00  0.00000000000E+00  0.38766202458E+03  0.38766202458E+03  0.00000000000E+00 0.  1.
          4   -1    0    0  501    0  0.00000000000E+00 -0.00000000000E+00 -0.38518311896E+02  0.38518311896E+02  0.00000000000E+00 0. -1.
         25    2    1    2    0    0 -0.15642922813E+02  0.33726857474E+02  0.27082374696E+03  0.30062517800E+03  0.12509114191E+03 0.  0.
          5    1    3    3  502    0 -0.68732130551E+02  0.34379033235E+02  0.16958914506E+03  0.18623633969E+03  0.41800000000E+01 0.  1.
         -5    1    3    3    0  502  0.53089207738E+02 -0.65217576173E+00  0.10123460189E+03  0.11438883832E+03  0.41800000000E+01 0.  1.
        -11    1    1    2    0    0 -0.76734238409E+01 -0.31391301662E+02  0.92625293865E+02  0.98100664203E+02  0.00000000000E+00 0.  1.
         11    1    1    2    0    0  0.23316346654E+02 -0.23355558112E+01 -0.14305328140E+02  0.27454494267E+02  0.00000000000E+00 0. -1.
</event>
<event>
 7    1  0.2394257E-009  0.1192769E+03  0.7561462E-02  0.1244295E+00
          1   -1    0    0  501    0  0.00000000000E+00  0.00000000000E+00  0.77320150708E+03  0.77320150708E+03  0.00000000000E+00 0. -1.
         -1   -1    0    0    0  501 -0.00000000000E+00 -0.00000000000E+00 -0.20925892280E+02  0.20925892280E+02  0.00000000000E+00 0.  1.
         25    2    1    2    0    0  0.56245931520E+02  0.18164522846E+02  0.32690308254E+03  0.35497250249E+03  0.12508516077E+03 0.  0.
          5    1    3    3  502    0  0.78280589405E+02  0.48147800805E+02  0.16618067570E+03  0.18994617863E+03  0.41800000000E+01 0.  1.
         -5    1    3    3    0  502 -0.22034657885E+02 -0.29983277958E+02  0.16072240684E+03  0.16502632386E+03  0.41800000000E+01 0.  1.
        -11    1    1    2    0    0 -0.56071698248E+02  0.28189350247E+02  0.25078978781E+03  0.25852309855E+03  0.00000000000E+00 0. -1.
         11    1    1    2    0    0 -0.17423327192E+00 -0.46353873094E+02  0.17458274445E+03  0.18063179833E+03  0.00000000000E+00 0.  1.
</event>
<event>
 7    1  0.2394257E-009  0.1258814E+03  0.7561462E-02  0.1233698E+00
          3   -1    0    0  501    0  0.00000000000E+00  0.00000000000E+00  0.16250264396E+03  0.16250264396E+03  0.00000000000E+00 0.  1.
         -3   -1    0    0    0  501 -0.00000000000E+00 -0.00000000000E+00 -0.14881084421E+03  0.14881084421E+03  0.00000000000E+00 0. -1.
         25    2    1    2    0    0 -0.68519763657E+02  0.58724233055E+02  0.68807607466E+02  0.16889455187E+03  0.12508952492E+03 0.  0.
          5    1    3    3  502    0  0.35115757313E+01 -0.23610092205E+02 -0.17164711177E+02  0.29696251074E+02  0.41800000000E+01 0.  1.
         -5    1    3    3    0  502 -0.72031339388E+02  0.82334325260E+02  0.85972318643E+02  0.13919830079E+03  0.41800000000E+01 0.  1.
        -11    1    1    2    0    0  0.68664491338E+01 -0.55916920996E+02  0.46215625396E+01  0.56526179932E+02  0.00000000000E+00 0.  1.
         11    1    1    2    0    0  0.61653314523E+02 -0.28073120594E+01 -0.59737370251E+02  0.85892756372E+02  0.00000000000E+00 0. -1.
</event>
<event>
 7    1  0.2394257E-009  0.5504465E+02  0.7561462E-02  0.1419888E+00
          3   -1    0    0  501    0  0.00000000000E+00  0.00000000000E+00  0.22893968340E+02  0.22893968340E+02  0.00000000000E+00 0. -1.
         -3   -1    0    0    0  501 -0.00000000000E+00 -0.00000000000E+00 -0.52251782747E+03  0.52251782747E+03  0.00000000000E+00 0.  1.
         25    2    1    2    0    0  0.94681008696E+01  0.85758986302E+01 -0.27386213946E+03  0.30134802491E+03  0.12508784800E+03 0.  0.
          5    1    3    3  502    0  0.21942237676E+02 -0.22088259414E+01  0.41412780744E+01  0.22824620267E+02  0.41800000000E+01 0. -1.
         -5    1    3    3    0  502 -0.12474136806E+02  0.10784724572E+02 -0.27800341753E+03  0.27852340464E+03  0.41800000000E+01 0. -1.
        -11    1    1    2    0    0 -0.25182428884E+02 -0.33048015323E+02 -0.20278999414E+03  0.20700267574E+03  0.00000000000E+00 0.  1.
         11    1    1    2    0    0  0.15714328014E+02  0.24472116693E+02 -0.22971725530E+02  0.37061095156E+02  0.00000000000E+00 0. -1.
</event>
<event>
 7    1  0.2394257E-009  0.1064458E+03  0.7561462E-02  0.1267297E+00
          2   -1    0    0  501    0  0.00000000000E+00  0.00000000000E+00  0.16574217221E+04  0.16574217221E+04  0.00000000000E+00 0. -1.
         -2   -1    0    0    0  501 -0.00000000000E+00 -0.00000000000E+00 -0.11940294810E+02  0.11940294810E+02  0.00000000000E+00 0.  1.
         25    2    1    2    0    0 -0.21744026428E+02  0.25689729220E+02  0.13913682717E+04  0.13973853786E+04  0.12508982434E+03 0.  0.
          5    1    3    3  502    0 -0.37888090347E+02 -0.42784245636E+02  0.74013233060E+03  0.74234718176E+03  0.41800000000E+01 0. -1.
         -5    1    3    3    0  502  0.16144063919E+02  0.68473974856E+02  0.65123594106E+03  0.65503819687E+03  0.41800000000E+01 0. -1.
        -11    1    1    2    0    0  0.13607904331E+02  0.27830582049E+02  0.16362030789E+03  0.16652723955E+03  0.00000000000E+00 0. -1.
         11    1    1    2    0    0  0.81361220977E+01 -0.53520311268E+02  0.90492847747E+02  0.10544939874E+03  0.00000000000E+00 0.  1.
</event>
<event>
 7    1  0.2394257E-009  0.1098256E+03  0.7561462E-02  0.1260893E+00
         -1   -1    0    0    0  501 -0.00000000000E+00  0.00000000000E+00  0.44389002004E+02  0.44389002004E+02  0.00000000000E+00 0.  1.
          1   -1    0    0  501    0  0.00000000000E+00 -0.00000000000E+00 -0.28487408235E+03  0.28487408235E+03  0.00000000000E+00 0. -1.
         25    2    1    2    0    0 -0.15911874903E+02  0.24602207598E+02 -0.12617347111E+03  0.18006651335E+03  0.12508296461E+03 0.  0.
          5    1    3    3  502    0 -0.67208632320E+02 -0.18107621712E+01 -0.47550692675E+02  0.82454956745E+02  0.41800000000E+01 0. -1.
         -5    1    3    3    0  502  0.51296757417E+02  0.26412969769E+02 -0.78622778437E+02  0.97611556604E+02  0.41800000000E+01 0. -1.
        -11    1    1    2    0    0 -0.20862687699E+02 -0.46971358410E+02 -0.74881759157E+02  0.90823114367E+02  0.00000000000E+00 0. -1.
         11    1    1    2    0    0  0.36774562602E+02  0.22369150812E+02 -0.39429850074E+02  0.58373456635E+02  0.00000000000E+00 0.  1.
</event>
<event>
 7    1  0.2394257E-009  0.9628966E+02  0.7561462E-02  0.1288298E+00
          3   -1    0    0  501    0  0.00000000000E+00  0.00000000000E+00  0.72294248339E+03  0.72294248339E+03  0.00000000000E+00 0. -1.
         -3   -1    0    0    0  501 -0.00000000000E+00 -0.00000000000E+00 -0.17628014003E+02  0.17628014003E+02  0.00000000000E+00 0.  1.
         25    2    1    2    0    0 -0.34904899440E+01 -0.27682930461E+01  0.53886623256E+03  0.55321312521E+03  0.12509235927E+03 0.  0.
          5    1    3    3  502    0 -0.18121258325E+02 -0.58189534674E+02  0.36547160146E+03  0.37054198928E+03  0.41800000000E+01 0. -1.
         -5    1    3    3    0  502  0.14630768381E+02  0.55421241628E+02  0.17339463110E+03  0.18267113593E+03  0.41800000000E+01 0. -1.
        -11    1    1    2    0    0  0.37873581164E+02 -0.64543262757E+01  0.37885793339E+02  0.53957388880E+02  0.00000000000E+00 0.  1.
         11    1    1    2    0    0 -0.34383091220E+02  0.92226193219E+01  0.12856244349E+03  0.13339998330E+03  0.00000000000E+00 0. -1.
</event>
<event>
 7    1  0.2394257E-009  0.1025253E+03  0.7561462E-02  0.1275073E+00
         -1   -1    0    0    0  501 -0.00000000000E+00  0.00000000000E+00  0.56858933183E+02  0.56858933183E+02  0.00000000000E+00 0. -1.
          1   -1    0    0  501    0  0.00000000000E+00 -0.00000000000E+00 -0.28444495638E+03  0.28444495638E+03  0.00000000000E+00 0.  1.
         25    2    1    2    0    0 -0.58360536893E+02  0.33223450087E+01 -0.84921216509E+02  0.16210090298E+03  0.12509236384E+03 0.  0.
          5    1    3    3  502    0 -0.77339404877E+02  0.18372764261E+02 -0.10401279409E+03  0.13097738640E+03  0.41800000000E+01 0.  1.
         -5    1    3    3    0  502  0.18978867983E+02 -0.15050419253E+02  0.19091577584E+02  0.31123516579E+02  0.41800000000E+01 0.  1.
        -11    1    1    2    0    0  0.49156580257E+02 -0.39799465798E+02 -0.55040182472E+02  0.83843834281E+02  0.00000000000E+00 0. -1.
         11    1    1    2    0    0  0.92039566365E+01  0.36477120789E+02 -0.87624624214E+02  0.95359152301E+02  0.00000000000E+00 0.  1.
</event>
<event>
 7    1  0.2394257E-009  0.1153319E+03  0.7561462E-02  0.1251003E+00
          2   -1    0    0  501    0  0.00000000000E+00  0.00000000000E+00  0.33080654647E+03  0.33080654647E+03  0.00000000000E+00 0. -1.
         -2   -1    0    0    0  501 -0.00000000000E+00 -0.00000000000E+00 -0.47893905598E+02  0.47893905598E+02  0.00000000000E+00 0.  1.
         25    2    1    2    0    0  0.13915925082E+02  0.45253824533E+02  0.91009504674E+02  0.16177558207E+03  0.12508815854E+03 0.  0.
          5    1    3    3  502    0  0.18879540478E+02  0.87134829687E+02  0.74613282909E+02  0.11633370096E+03  0.41800000000E+01 0. -1.
         -5    1    3    3    0  502 -0.49636153960E+01 -0.41881005154E+02  0.16396221765E+02  0.45441881108E+02  0.41800000000E+01 0. -1.
        -11    1    1    2    0    0 -0.48914478889E+02 -0.11166149378E+02  0.11922799277E+03  0.12935464196E+03  0.00000000000E+00 0. -1.
         11    1    1    2    0    0  0.34998553807E+02 -0.34087675155E+02  0.72675143430E+02  0.87570228038E+02  0.00000000000E+00 0.  1.
</event>
<event>
 7    1  0.2394257E-009  0.1170922E+03  0.7561462E-02  0.1247973E+00
         -2   -1    0    0    0  501 -0.00000000000E+00  0.00000000000E+00  0.47830874660E+02  0.47830874660E+02  0.00000000000E+00 0.  1.
          2   -1    0    0  501    0  0.00000000000E+00 -0.00000000000E+00 -0.32895133829E+03  0.32895133829E+03  0.00000000000E+00 0. -1.
         25    2    1    2    0    0  0.62429331295E+01 -0.61893785275E+02 -0.17959046709E+03  0.22752767037E+03  0.12508513118E+03 0.  0.
          5    1    3    3  502    0 -0.84415367872E+01  0.37683202133E+02 -0.45874758189E+02  0.60110307812E+02  0.41800000000E+01 0. -1.
         -5    1    3    3    0  502  0.14684469917E+02 -0.99576987409E+02 -0.13371570890E+03  0.16741736255E+03  0.41800000000E+01 0. -1.
        -11    1    1    2    0    0  0.31592941239E+02  0.39698830726E+02 -0.90929828235E+02  0.10412658047E+03  0.00000000000E+00 0. -1.
         11    1    1    2    0    0 -0.37835874369E+02  0.22194954550E+02 -0.10600168308E+02  0.45127962117E+02  0.00000000000E+00 0.  1.
</event>
<event>
 7    1  0.2394257E-009  0.1389153E+03  0.7561462E-02  0.1214796E+00
          1   -1    0    0  501    0  0.00000000000E+00  0.00000000000E+00  0.13148094575E+04  0.13148094575E+04  0.00000000000E+00 0. -1.
         -1   -1    0    0    0  501 -0.00000000000E+00 -0.00000000000E+00 -0.20147845652E+02  0.20147845652E+02  0.00000000000E+00 0.  1.
         25    2    1    2    0    0  0.87948702264E+02 -0.84842337890E+01  0.10263299996E+04  0.10376924907E+04  0.12508189562E+03 0.  0.
          5    1    3    3  502    0  0.21032121022E+02  0.55833872387E+02  0.44016782321E+03  0.44421273779E+03  0.41800000000E+01 0. -1.
         -5    1    3    3    0  502  0.66916581241E+02 -0.64318106176E+02  0.58616217643E+03  0.59347975290E+03  0.41800000000E+01 0. -1.
        -11    1    1    2    0    0  0.50621799347E+01  0.29354358223E+02  0.40323666334E+02  0.50132844314E+02  0.00000000000E+00 0.  1.
         11    1    1    2    0    0 -0.93010882198E+02 -0.20870124434E+02  0.22800794587E+03  0.24713196815E+03  0.00000000000E+00 0. -1.
</event>
<event>
 7    1  0.2394257E-009  0.1276642E+03  0.7561462E-02  0.1230963E+00
          2   -1    0    0  501    0  0.00000000000E+00  0.00000000000E+00  0.35170907174E+04  0.35170907174E+04  0.00000000000E+00 0.  1.
         -2   -1    0    0    0  501 -0.00000000000E+00 -0.00000000000E+00 -0.11784115989E+02  0.11784115989E+02  0.00000000000E+00 0. -1.
         25    2    1    2    0    0  0.77082639161E+01 -0.96487356909E+02  0.30706666180E+04  0.30747375028E+04  0.12509198443E+03 0.  0.
          5    1    3    3  502    0  0.31069477334E+02 -0.37646260233E+01  0.18685177427E+04  0.18687845012E+04  0.41800000000E+01 0. -1.
         -5    1    3    3    0  502 -0.23361213418E+02 -0.92722730886E+02  0.12021488754E+04  0.12059530016E+04  0.41800000000E+01 0. -1.
        -11    1    1    2    0    0 -0.38209187539E+02  0.15025508210E+02  0.94166486285E+02  0.10272796624E+03  0.00000000000E+00 0. -1.
         11    1    1    2    0    0  0.30500923623E+02  0.81461848699E+02  0.34047349711E+03  0.35140936437E+03  0.00000000000E+00 0.  1.
</event>
<event>
 7    1  0.2586455E-009  0.1406695E+03  0.7561462E-02  0.1212431E+00
         -3   -1    0    0    0  501 -0.00000000000E+00  0.00000000000E+00  0.16140043333E+03  0.16140043333E+03  0.00000000000E+00 0.  1.
          3   -1    0    0  501    0  0.00000000000E+00 -0.00000000000E+00 -0.14322750737E+03  0.14322750737E+03  0.00000000000E+00 0. -1.
         25    2    1    2    0    0 -0.60642406828E+02  0.87122637084E+02  0.13269686624E+01  0.16405633972E+03  0.12507944019E+03 0.  0.
          5    1    3    3  502    0 -0.46968217655E+02  0.11960248405E+03  0.12503121678E+01  0.12856828279E+03  0.41800000000E+01 0. -1.
         -5    1    3    3    0  502 -0.13674189172E+02 -0.32479846963E+02  0.76656494652E-01  0.35488056927E+02  0.41800000000E+01 0. -1.
        -11    1    1    2    0    0  0.10188255353E+02 -0.58297499398E+02 -0.29611036466E+02  0.66175618348E+02  0.00000000000E+00 0. -1.
         11    1    1    2    0    0  0.50454151475E+02 -0.28825137686E+02  0.46456993763E+02  0.74395982641E+02  0.00000000000E+00 0.  1.
</event>
<event>
 7    1  0.2394257E-009  0.1595192E+03  0.7561462E-02  0.1189241E+00
         -2   -1    0    0    0  501 -0.00000000000E+00  0.00000000000E+00  0.28614070389E+02  0.28614070389E+02  0.00000000000E+00 0.  1.
          2   -1    0    0  501    0  0.00000000000E+00 -0.00000000000E+00 -0.12574323406E+04  0.12574323406E+04  0.00000000000E+00 0. -1.
         25    2    1    2    0    0 -0.12803170373E+03  0.68534327333E+02 -0.45323853660E+03  0.49209974252E+03  0.12509162380E+03 0.  0.
          5    1    3    3  502    0 -0.11385437068E+03  0.74631216240E+02 -0.22297230713E+03  0.26127908127E+03  0.41800000000E+01 0.  1.
         -5    1    3    3    0  502 -0.14177333048E+02 -0.60968889066E+01 -0.23026622947E+03  0.23082066125E+03  0.41800000000E+01 0.  1.
        -11    1    1    2    0    0  0.75698968712E+02 -0.83218247123E+02 -0.58734610650E+03  0.59802262444E+03  0.00000000000E+00 0.  1.
         11    1    1    2    0    0  0.52332735019E+02  0.14683919790E+02 -0.18823362715E+03  0.19592404407E+03  0.00000000000E+00 0. -1.
</event>
<event>
 7    1  0.2394257E-009  0.1195415E+03  0.7561462E-02  0.1243855E+00
          2   -1    0    0  501    0  0.00000000000E+00  0.00000000000E+00  0.85641249945E+03  0.85641249945E+03  0.00000000000E+00 0. -1.
         -2   -1    0    0    0  501 -0.00000000000E+00 -0.00000000000E+00 -0.17095636349E+02  0.17095636349E+02  0.00000000000E+00 0.  1.
         25    2    1    2    0    0 -0.48085649252E+02 -0.11678157415E+02  0.44452214629E+03  0.46443029666E+03  0.12508778073E+03 0.  0.
          5    1    3    3  502    0 -0.64515891752E+02 -0.56594647304E+02  0.26383132562E+03  0.27747016988E+03  0.41800000000E+01 0.  1.
         -5    1    3    3    0  502  0.16430242500E+02  0.44916489889E+02  0.18069082067E+03  0.18696012678E+03  0.41800000000E+01 0.  1.
        -11    1    1    2    0    0 -0.24439804278E+02  0.20749518203E+02  0.15958307193E+03  0.16277162954E+03  0.00000000000E+00 0.  1.
         11    1    1    2    0    0  0.72525453530E+02 -0.90713607876E+01  0.23521164488E+03  0.24630620959E+03  0.00000000000E+00 0. -1.
</event>
<event>
 7    1  0.2394257E-009  0.5886733E+02  0.7561462E-02  0.1402647E+00
          1   -1    0    0  501    0  0.00000000000E+00  0.00000000000E+00  0.16095210828E+03  0.16095210828E+03  0.00000000000E+00 0. -1.
         -1   -1    0    0    0  501 -0.00000000000E+00 -0.00000000000E+00 -0.73282218115E+02  0.73282218115E+02  0.00000000000E+00 0.  1.
         25    2    1    2    0    0 -0.24260526659E+01 -0.81844574418E+01  0.43296587726E+02  0.13264497736E+03  0.12508886615E+03 0.  0.
          5    1    3    3  502    0 -0.40294009774E+02 -0.14847436071E+02 -0.28069480797E+02  0.51472533780E+02  0.41800000000E+01 0. -1.
         -5    1    3    3    0  502  0.37867957108E+02  0.66629786295E+01  0.71366068523E+02  0.81172443577E+02  0.41800000000E+01 0. -1.
        -11    1    1    2    0    0  0.99542303639E+01  0.19747971955E+02 -0.23534090384E+02  0.32294310778E+02  0.00000000000E+00 0.  1.
         11    1    1    2    0    0 -0.75281776979E+01 -0.11563514513E+02  0.67907392826E+02  0.69295038262E+02  0.00000000000E+00 0. -1.
</event>
<event>
 7    1  0.2394257E-009  0.9988039E+02  0.7561462E-02  0.1280548E+00
          1   -1    0    0  501    0  0.00000000000E+00  0.00000000000E+00  0.10831593319E+04  0.10831593319E+04  0.00000000000E+00 0. -1.
         -1   -1    0    0    0  501 -0.00000000000E+00 -0.00000000000E+00 -0.15530290642E+02  0.15530290642E+02  0.00000000000E+00 0.  1.
         25    2    1    2    0    0 -0.30864927023E+02 -0.20112038929E+02  0.85252529345E+03  0.86244097919E+03  0.12509168151E+03 0.  0.
          5    1    3    3  502    0 -0.17473004169E+02  0.44296330826E+02  0.58360958121E+03  0.58556390470E+03  0.41800000000E+01 0. -1.
         -5    1    3    3    0  502 -0.13391922854E+02 -0.64408369755E+02  0.26891571224E+03  0.27687707449E+03  0.41800000000E+01 0. -1.
        -11    1    1    2    0    0 -0.19087468360E+02  0.29575716201E+02  0.37163274650E+02  0.51187531880E+02  0.00000000000E+00 0.  1.
         11    1    1    2    0    0  0.49952395383E+02 -0.94636772728E+01  0.17794047320E+03  0.18506111151E+03  0.00000000000E+00 0. -1.
</event>
<event>
 7    1  0.2394257E-009  0.1915045E+03  0.7561462E-02  0.1157111E+00
         -1   -1    0    0    0  501 -0.00000000000E+00  0.00000000000E+00  0.20332154373E+03  0.20332154373E+03  0.00000000000E+00 0.  1.
          1   -1    0    0  501    0  0.00000000000E+00 -0.00000000000E+00 -0.22929169516E+03  0.22929169516E+03  0.00000000000E+00 0. -1.
         25    2    1    2    0    0  0.37788431712E+02  0.16849152450E+03 -0.79726022469E+02  0.22764176608E+03  0.12508867096E+03 0.  0.
          5    1    3    3  502    0  0.62308961482E+02  0.10090406477E+03  0.20371403031E+01  0.11868302031E+03  0.41800000000E+01 0. -1.
         -5    1    3    3    0  502 -0.24520529770E+02  0.67587459728E+02 -0.81763162772E+02  0.10895874577E+03  0.41800000000E+01 0. -1.
        -11    1    1    2    0    0 -0.61640712160E+02 -0.14991027530E+03  0.26453133524E+02  0.16423287219E+03  0.00000000000E+00 0. -1.
         11    1    1    2    0    0  0.23852280448E+02 -0.18581249203E+02  0.27302737519E+02  0.40738600621E+02  0.00000000000E+00 0.  1.
</event>
<event>
 7    1  0.2394257E-009  0.2110318E+03  0.7561462E-02  0.1140751E+00
          1   -1    0    0  501    0  0.00000000000E+00  0.00000000000E+00  0.10859669594E+04  0.10859669594E+04  0.00000000000E+00 0. -1.
         -1   -1    0    0    0  501 -0.00000000000E+00 -0.00000000000E+00 -0.46901554607E+02  0.46901554607E+02  0.00000000000E+00 0.  1.
         25    2    1    2    0    0  0.45562751927E+02  0.19045476432E+03  0.48922658433E+03  0.54160546188E+03  0.12507935044E+03 0.  0.
          5    1    3    3  502    0  0.51543003100E+02  0.19046817558E+03  0.49461338576E+03  0.53253608408E+03  0.41800000000E+01 0.  1.
         -5    1    3    3    0  502 -0.59802511722E+01 -0.13411253195E-01 -0.53868014315E+01  0.90693777960E+01  0.41800000000E+01 0.  1.
        -11    1    1    2    0    0 -0.70711224640E+02 -0.17271173639E+03  0.47404737797E+03  0.50946083043E+03  0.00000000000E+00 0.  1.
         11    1    1    2    0    0  0.25148472713E+02 -0.17743027935E+02  0.75791442445E+02  0.81802221656E+02  0.00000000000E+00 0. -1.
</event>
<event>
 7    1  0.2394257E-009  0.1036574E+03  0.7561462E-02  0.1272788E+00
          2   -1    0    0  501    0  0.00000000000E+00  0.00000000000E+00  0.41551217712E+03  0.41551217712E+03  0.00000000000E+00 0. -1.
         -2   -1    0    0    0  501 -0.00000000000E+00 -0.00000000000E+00 -0.29291968907E+02  0.29291968907E+02  0.00000000000E+00 0.  1.
         25    2    1    2    0    0  0.31721451694E+01 -0.58073795682E+01  0.18476816207E+03  0.22322798689E+03  0.12509065615E+03 0.  0.
          5    1    3    3  502    0 -0.41547592288E+02 -0.44677925918E+02  0.12395348188E+03  0.13821815206E+03  0.41800000000E+01 0. -1.
         -5    1    3    3    0  502  0.44719737458E+02  0.38870546350E+02  0.60814680184E+02  0.85009834829E+02  0.41800000000E+01 0. -1.
        -11    1    1    2    0    0 -0.19855016059E+02 -0.36352504134E+02  0.59043471382E+02  0.72123905415E+02  0.00000000000E+00 0. -1.
         11    1    1    2    0    0  0.16682870889E+02  0.42159883702E+02  0.14240857476E+03  0.14945225371E+03  0.00000000000E+00 0.  1.
</event>
<event>
 7    1  0.2394257E-009  0.2451572E+03  0.7561462E-02  0.1116404E+00
         -1   -1    0    0    0  501 -0.00000000000E+00  0.00000000000E+00  0.62185691832E+02  0.62185691832E+02  0.00000000000E+00 0.  1.
          1   -1    0    0  501    0  0.00000000000E+00 -0.00000000000E+00 -0.17573610675E+04  0.17573610675E+04  0.00000000000E+00 0. -1.
         25    2    1    2    0    0  0.22127893422E+03  0.10676146689E+02 -0.14666650090E+04  0.14885671451E+04  0.12509016742E+03 0.  0.
          5    1    3    3  502    0  0.22329691197E+03 -0.18314895430E+02 -0.12507663558E+04  0.12706812722E+04  0.41800000000E+01 0. -1.
         -5    1    3    3    0  502 -0.20179777503E+01  0.28991042120E+02 -0.21589865319E+03  0.21788587290E+03  0.41800000000E+01 0. -1.
        -11    1    1    2    0    0 -0.11365318441E+03 -0.47411811626E+02 -0.94543178215E+02  0.15525250000E+03  0.00000000000E+00 0. -1.
         11    1    1    2    0    0 -0.10762574980E+03  0.36735664937E+02 -0.13396718848E+03  0.17572711427E+03  0.00000000000E+00 0.  1.
</event>
<event>
 7    1  0.3418315E-009  0.1078195E+03  0.7561462E-02  0.1264662E+00
         -1   -1    0    0    0  501 -0.00000000000E+00  0.00000000000E+00  0.46347626875E+02  0.46347626875E+02  0.00000000000E+00 0.  1.
          1   -1    0    0  501    0  0.00000000000E+00 -0.00000000000E+00 -0.50822843033E+03  0.50822843033E+03  0.00000000000E+00 0. -1.
         25    2    1    2    0    0  0.10216064972E+02 -0.10268464551E+03 -0.19159309575E+03  0.25100581372E+03  0.12508996672E+03 0.  0.
          5    1    3    3  502    0  0.13412836165E+02 -0.50200592570E+02 -0.19128156043E+03  0.19825768946E+03  0.41800000000E+01 0.  1.
         -5    1    3    3    0  502 -0.31967711936E+01 -0.52484052935E+02 -0.31153531987E+00  0.52748124258E+02  0.41800000000E+01 0.  1.
        -11    1    1    2    0    0  0.10308348654E+02  0.77916480190E+02 -0.86032332198E+02  0.11652811730E+03  0.00000000000E+00 0.  1.
         11    1    1    2    0    0 -0.20524413626E+02  0.24768165315E+02 -0.18425537551E+03  0.18704212619E+03  0.00000000000E+00 0. -1.
</event>
<event>
 7    1  0.2394257E-009  0.1022937E+03  0.7561462E-02  0.1275545E+00
         -1   -1    0    0    0  501 -0.00000000000E+00  0.00000000000E+00  0.65276850375E+02  0.65276850375E+02  0.00000000000E+00 0.  1.
          1   -1    0    0  501    0  0.00000000000E+00 -0.00000000000E+00 -0.46720422511E+03  0.46720422511E+03  0.00000000000E+00 0. -1.
         25    2    1    2    0    0  0.19927921891E+02 -0.39381337521E+02 -0.41138745448E+03  0.43224401127E+03  0.12508891144E+03 0.  0.
          5    1    3    3  502    0 -0.10680539924E+02 -0.69232650023E+02 -0.13126086215E+03  0.14884260174E+03  0.41800000000E+01 0.  1.
         -5    1    3    3    0  502  0.30608461815E+02  0.29851312502E+02 -0.28012659233E+03  0.28340140953E+03  0.41800000000E+01 0.  1.
        -11    1    1    2    0    0  0.12105303717E+02 -0.20347333436E+02 -0.15175702645E+02  0.28122131975E+02  0.00000000000E+00 0.  1.
         11    1    1    2    0    0 -0.32033225608E+02  0.59728670957E+02  0.24635782391E+02  0.72114932234E+02  0.00000000000E+00 0. -1.
</event>
<event>
 7    1  0.2394257E-009  0.1281076E+03  0.7561462E-02  0.1230291E+00
         -1   -1    0    0    0  501 -0.00000000000E+00  0.00000000000E+00  0.11599476617E+03  0.11599476617E+03  0.00000000000E+00 0.  1.
          1   -1    0    0  501    0  0.00000000000E+00 -0.00000000000E+00 -0.14900917767E+03  0.14900917767E+03  0.00000000000E+00 0. -1.
         25    2    1    2    0    0 -0.31114344762E+02  0.65248098277E+02 -0.33066217416E+02  0.14820613347E+03  0.12508503702E+03 0.  0.
          5    1    3    3  502    0  0.20890319078E+02  0.85789827221E+02 -0.19685518132E+02  0.90560984479E+02  0.41800000000E+01 0. -1.
         -5    1    3    3    0  502 -0.52004663840E+02 -0.20541728944E+02 -0.13380699283E+02  0.57645148993E+02  0.41800000000E+01 0. -1.
        -11    1    1    2    0    0 -0.16788110357E+02 -0.61443420303E+02 -0.16802304383E+02  0.65874516928E+02  0.00000000000E+00 0. -1.
         11    1    1    2    0    0  0.47902455119E+02 -0.38046779744E+01  0.16854110302E+02  0.50923293442E+02  0.00000000000E+00 0.  1.
</event>
<event>
 7    1  0.2394257E-009  0.1539565E+03  0.7561462E-02  0.1195694E+00
         -1   -1    0    0    0  501 -0.00000000000E+00  0.00000000000E+00  0.13884956639E+03  0.13884956639E+03  0.00000000000E+00 0.  1.
          1   -1    0    0  501    0  0.00000000000E+00 -0.00000000000E+00 -0.26633394359E+03  0.26633394359E+03  0.00000000000E+00 0. -1.
         25    2    1    2    0    0 -0.13470984565E+03  0.19465667168E+02 -0.15497812543E+03  0.24122892250E+03  0.12509004346E+03 0.  0.
          5    1    3    3  502    0 -0.65460689976E+02  0.36245467523E+02 -0.49711097582E+01  0.75106725267E+02  0.41800000000E+01 0. -1.
         -5    1    3    3    0  502 -0.69249155679E+02 -0.16779800355E+02 -0.15000701567E+03  0.16612219723E+03  0.41800000000E+01 0. -1.
        -11    1    1    2    0    0  0.29537148393E+02 -0.44569062477E+02  0.10763697724E+02  0.54540825571E+02  0.00000000000E+00 0. -1.
         11    1    1    2    0    0  0.10517269726E+03  0.25103395309E+02  0.16730050500E+02  0.10941376191E+03  0.00000000000E+00 0.  1.
</event>
<event>
 7    1  0.2394257E-009  0.6140092E+03  0.7561462E-02  0.9876760E-01
         -2   -1    0    0    0  501 -0.00000000000E+00  0.00000000000E+00  0.25275516246E+03  0.25275516246E+03  0.00000000000E+00 0.  1.
          2   -1    0    0  501    0  0.00000000000E+00 -0.00000000000E+00 -0.22058487323E+04  0.22058487323E+04  0.00000000000E+00 0. -1.
         25    2    1    2    0    0 -0.55114729283E+03 -0.25731397514E+03 -0.29020648448E+03  0.68545002959E+03  0.12509244274E+03 0.  0.
          5    1    3    3  502    0 -0.33058906260E+03 -0.91602771333E+02 -0.18812887593E+03  0.39126735410E+03  0.41800000000E+01 0. -1.
         -5    1    3    3    0  502 -0.22055823023E+03 -0.16571120381E+03 -0.10207760855E+03  0.29418267549E+03  0.41800000000E+01 0. -1.
        -11    1    1    2    0    0  0.62988147447E+02  0.18825238890E+02 -0.27419072951E+03  0.28196179260E+03  0.00000000000E+00 0.  1.
         11    1    1    2    0    0  0.48815914539E+03  0.23848873625E+03 -0.13886963558E+04  0.14911920725E+04  0.00000000000E+00 0. -1.
</event>
<event>
 7    1  0.2394257E-009  0.1560163E+03  0.7561462E-02  0.1193269E+00
          1   -1    0    0  501    0  0.00000000000E+00  0.00000000000E+00  0.40813385353E+02  0.40813385353E+02  0.00000000000E+00 0. -1.
         -1   -1    0    0    0  501 -0.00000000000E+00 -0.00000000000E+00 -0.74761722150E+03  0.74761722150E+03  0.00000000000E+00 0.  1.
         25    2    1    2    0    0  0.82479578583E+02  0.77763446949E+02 -0.54502762209E+03  0.57057207127E+03  0.12508934849E+03 0.  0.
          5    1    3    3  502    0  0.10804009730E+03  0.28877559346E+02 -0.39967130062E+03  0.41504360855E+03  0.41800000000E+01 0.  1.
         -5    1    3    3    0  502 -0.25560518721E+02  0.48885887603E+02 -0.14535632147E+03  0.15552846271E+03  0.41800000000E+01 0.  1.
        -11    1    1    2    0    0  0.19832797571E+02 -0.12718117025E+02 -0.17168614027E+02  0.29152215486E+02  0.00000000000E+00 0. -1.
         11    1    1    2    0    0 -0.10231237615E+03 -0.65045329924E+02 -0.14460760004E+03  0.18870632011E+03  0.00000000000E+00 0.  1.
</event>
<event>
 7    1  0.2394257E-009  0.1612406E+03  0.7561462E-02  0.1187303E+00
          4   -1    0    0  501    0  0.00000000000E+00  0.00000000000E+00  0.52101036388E+03  0.52101036388E+03  0.00000000000E+00 0. -1.
         -4   -1    0    0    0  501 -0.00000000000E+00 -0.00000000000E+00 -0.53410201611E+02  0.53410201611E+02  0.00000000000E+00 0.  1.
         25    2    1    2    0    0  0.83487267258E+02  0.94143443928E+02  0.22261291636E+03  0.28466955594E+03  0.12508850355E+03 0.  0.
          5    1    3    3  502    0  0.11345007756E+03  0.64650531851E+02  0.13762901674E+03  0.18976256221E+03  0.41800000000E+01 0.  1.
         -5    1    3    3    0  502 -0.29962810307E+02  0.29492912077E+02  0.84983899612E+02  0.94906993723E+02  0.41800000000E+01 0.  1.
        -11    1    1    2    0    0 -0.13100901935E+02 -0.75697716106E+02  0.16258352789E+03  0.17981985818E+03  0.00000000000E+00 0.  1.
         11    1    1    2    0    0 -0.70386365322E+02 -0.18445727822E+02  0.82403718025E+02  0.10993115137E+03  0.00000000000E+00 0. -1.
</event>
<event>
 7    1  0.2394257E-009  0.8634251E+02  0.7561462E-02  0.1311959E+00
          3   -1    0    0  501    0  0.00000000000E+00  0.00000000000E+00  0.10682178956E+03  0.10682178956E+03  0.00000000000E+00 0. -1.
         -3   -1    0    0    0  501 -0.00000000000E+00 -0.00000000000E+00 -0.15158865846E+03  0.15158865846E+03  0.00000000000E+00 0.  1.
         25    2    1    2    0    0 -0.46808902392E+02  0.25088239959E+02 -0.65702282617E+02  0.15094773987E+03  0.12509171476E+03 0.  0.
          5    1    3    3  502    0  0.23898494411E+02 -0.19788170637E+02 -0.59046961797E+02  0.66833568136E+02  0.41800000000E+01 0. -1.
         -5    1    3    3    0  502 -0.70707396803E+02  0.44876410596E+02 -0.66553208196E+01  0.84114171731E+02  0.41800000000E+01 0. -1.
        -11    1    1    2    0    0  0.34777927900E+02 -0.64930303528E+01 -0.33482245981E+02  0.48710620076E+02  0.00000000000E+00 0.  1.
         11    1    1    2    0    0  0.12030974492E+02 -0.18595209606E+02  0.54417659694E+02  0.58752088083E+02  0.00000000000E+00 0. -1.
</event>
<event>
 7    1  0.2394257E-009  0.9762638E+02  0.7561462E-02  0.1285368E+00
         -1   -1    0    0    0  501 -0.00000000000E+00  0.00000000000E+00  0.19311771016E+03  0.19311771016E+03  0.00000000000E+00 0.  1.
          1   -1    0    0  501    0  0.00000000000E+00 -0.00000000000E+00 -0.60745444422E+02  0.60745444422E+02  0.00000000000E+00 0. -1.
         25    2    1    2    0    0 -0.71878507883E+01 -0.19966393778E+02  0.61031323769E+02  0.14079489768E+03  0.12509220060E+03 0.  0.
          5    1    3    3  502    0 -0.30998513298E+02  0.37465335163E+02 -0.61177739180E+01  0.49187993690E+02  0.41800000000E+01 0.  1.
         -5    1    3    3    0  502  0.23810662510E+02 -0.57431728941E+02  0.67149097687E+02  0.91606903989E+02  0.41800000000E+01 0.  1.
        -11    1    1    2    0    0 -0.19168548573E+02 -0.25307520033E+02  0.43171171230E+02  0.53587814380E+02  0.00000000000E+00 0.  1.
         11    1    1    2    0    0  0.26356399361E+02  0.45273913811E+02  0.28169770738E+02  0.59480442521E+02  0.00000000000E+00 0. -1.
</event>
<event>
 7    1  0.2394257E-009  0.1150377E+03  0.7561462E-02  0.1251515E+00
          2   -1    0    0  501    0  0.00000000000E+00  0.00000000000E+00  0.70073615276E+03  0.70073615276E+03  0.00000000000E+00 0.  1.
         -2   -1    0    0    0  501 -0.00000000000E+00 -0.00000000000E+00 -0.23652586138E+02  0.23652586138E+02  0.00000000000E+00 0. -1.
         25    2    1    2    0    0  0.52060442957E+02  0.47329877180E+02  0.33236594961E+03  0.36202878568E+03  0.12508920899E+03 0.  0.
          5    1    3    3  502    0 -0.44765530017E+01 -0.27015623666E+02  0.15682044590E+02  0.31832096559E+02  0.41800000000E+01 0. -1.
         -5    1    3    3    0  502  0.56536995959E+02  0.74345500846E+02  0.31668390502E+03  0.33019668913E+03  0.41800000000E+01 0. -1.
        -11    1    1    2    0    0 -0.33305631407E+02  0.20093061398E+02  0.16437851727E+03  0.16891800715E+03  0.00000000000E+00 0. -1.
         11    1    1    2    0    0 -0.18754811550E+02 -0.67422938578E+02  0.18033909974E+03  0.19344194607E+03  0.00000000000E+00 0.  1.
</event>
<event>
 7    1  0.2394257E-009  0.8539090E+02  0.7561462E-02  0.1314413E+00
         -1   -1    0    0    0  501 -0.00000000000E+00  0.00000000000E+00  0.22920185142E+02  0.22920185142E+02  0.00000000000E+00 0.  1.
          1   -1    0    0  501    0  0.00000000000E+00 -0.00000000000E+00 -0.54085618194E+03  0.54085618194E+03  0.00000000000E+00 0. -1.
         25    2    1    2    0    0  0.25903913230E+02 -0.51116111413E+01 -0.31183950136E+03  0.33703016017E+03  0.12509321712E+03 0.  0.
          5    1    3    3  502    0  0.70140384531E+02 -0.96276540695E+01 -0.25535963380E+03  0.26502524453E+03  0.41800000000E+01 0. -1.
         -5    1    3    3    0  502 -0.44236471301E+02  0.45160429282E+01 -0.56479867557E+02  0.72004915638E+02  0.41800000000E+01 0. -1.
        -11    1    1    2    0    0 -0.30548734888E+02 -0.15369253786E+02 -0.20258826571E+03  0.20545423960E+03  0.00000000000E+00 0. -1.
         11    1    1    2    0    0  0.46448216582E+01  0.20480864927E+02 -0.35082297371E+01  0.21291967319E+02  0.00000000000E+00 0.  1.
</event>
<event>
 7    1  0.2394257E-009  0.1503063E+03  0.7561462E-02  0.1200097E+00
         -2   -1    0    0    0  501 -0.00000000000E+00  0.00000000000E+00  0.35997844215E+02  0.35997844215E+02  0.00000000000E+00 0.  1.
          2   -1    0    0  501    0  0.00000000000E+00 -0.00000000000E+00 -0.72575229448E+03  0.72575229448E+03  0.00000000000E+00 0. -1.
         25    2    1    2    0    0  0.30737936673E+02 -0.11758679806E+03 -0.33864952544E+03  0.38092621658E+03  0.12509918291E+03 0.  0.
          5    1    3    3  502    0  0.61362297278E+02 -0.11419005874E+03 -0.31844256925E+03  0.34384275963E+03  0.41800000000E+01 0.  1.
         -5    1    3    3    0  502 -0.30624360604E+02 -0.33967393248E+01 -0.20206956191E+02  0.37083456945E+02  0.41800000000E+01 0.  1.
        -11    1    1    2    0    0 -0.40190180491E+02  0.26272498877E+02 -0.18401030429E+03  0.19017173000E+03  0.00000000000E+00 0. -1.
         11    1    1    2    0    0  0.94522438172E+01  0.91314299186E+02 -0.16709462053E+03  0.19065219212E+03  0.00000000000E+00 0.  1.
</event>
<event>
 7    1  0.2394257E-009  0.1074735E+03  0.7561462E-02  0.1265321E+00
         -1   -1    0    0    0  501 -0.00000000000E+00  0.00000000000E+00  0.26439728472E+03  0.26439728472E+03  0.00000000000E+00 0.  1.
          1   -1    0    0  501    0  0.00000000000E+00 -0.00000000000E+00 -0.63367092676E+02  0.63367092676E+02  0.00000000000E+00 0. -1.
         25    2    1    2    0    0  0.56515567715E+02 -0.35943848729E+02  0.13451298181E+03  0.19551773954E+03  0.12508986588E+03 0.  0.
          5    1    3    3  502    0  0.85720158095E+02 -0.46669200517E+02  0.13173368328E+03  0.16400364475E+03  0.41800000000E+01 0. -1.
         -5    1    3    3    0  502 -0.29204590379E+02  0.10725351788E+02  0.27792985262E+01  0.31514094791E+02  0.41800000000E+01 0. -1.
        -11    1    1    2    0    0 -0.90998111355E+00  0.29920584347E+02  0.70076882409E+02  0.76202617288E+02  0.00000000000E+00 0. -1.
         11    1    1    2    0    0 -0.55605586602E+02  0.60232643817E+01 -0.35596721742E+01  0.56044020566E+02  0.00000000000E+00 0.  1.
</event>
<event>
 7    1  0.2394257E-009  0.9629720E+02  0.7561462E-02  0.1288281E+00
          1   -1    0    0  501    0  0.00000000000E+00  0.00000000000E+00  0.92098670481E+03  0.92098670481E+03  0.00000000000E+00 0. -1.
         -1   -1    0    0    0  501 -0.00000000000E+00 -0.00000000000E+00 -0.15757441493E+02  0.15757441493E+02  0.00000000000E+00 0.  1.
         25    2    1    2    0    0 -0.52249691651E+01  0.85688674854E+01  0.65415293679E+03  0.66608413663E+03  0.12510510209E+03 0.  0.
          5    1    3    3  502    0 -0.52652775674E+01  0.64369072982E+02  0.25774185332E+03  0.26574317688E+03  0.41800000000E+01 0.  1.
         -5    1    3    3    0  502  0.40308402328E-01 -0.55800205497E+02  0.39641108346E+03  0.40034095975E+03  0.41800000000E+01 0.  1.
        -11    1    1    2    0    0 -0.38735332149E+00  0.31478025705E+02  0.22900998950E+02  0.38929062380E+02  0.00000000000E+00 0.  1.
         11    1    1    2    0    0  0.56123224866E+01 -0.40046893191E+02  0.22817532758E+03  0.23173094729E+03  0.00000000000E+00 0. -1.
</event>
<event>
 7    1  0.2394257E-009  0.9062538E+02  0.7561462E-02  0.1301344E+00
          2   -1    0    0  501    0  0.00000000000E+00  0.00000000000E+00  0.48718425905E+02  0.48718425905E+02  0.00000000000E+00 0. -1.
         -2   -1    0    0    0  501 -0.00000000000E+00 -0.00000000000E+00 -0.30599014704E+03  0.30599014704E+03  0.00000000000E+00 0.  1.
         25    2    1    2    0    0  0.31624892789E+02  0.63264599771E+01 -0.21927058974E+03  0.25449734410E+03  0.12509655748E+03 0.  0.
          5    1    3    3  502    0  0.38888280290E+02 -0.49674208399E+02 -0.67392002429E+02  0.92406599956E+02  0.41800000000E+01 0. -1.
         -5    1    3    3    0  502 -0.72633875017E+01  0.56000668376E+02 -0.15187858731E+03  0.16209074415E+03  0.41800000000E+01 0. -1.
        -11    1    1    2    0    0 -0.12001684556E+02  0.23100772575E+02 -0.55088762605E+02  0.60929942484E+02  0.00000000000E+00 0.  1.
         11    1    1    2    0    0 -0.19623208233E+02 -0.29427232552E+02  0.17087631210E+02  0.39281286351E+02  0.00000000000E+00 0. -1.
</event>
<event>
 7    1  0.2394257E-009  0.1221834E+03  0.7561462E-02  0.1239538E+00
         -1   -1    0    0    0  501 -0.00000000000E+00  0.00000000000E+00  0.15805476700E+03  0.15805476700E+03  0.00000000000E+00 0.  1.
          1   -1    0    0  501    0  0.00000000000E+00 -0.00000000000E+00 -0.22717568743E+03  0.22717568743E+03  0.00000000000E+00 0. -1.
         25    2    1    2    0    0  0.79801109759E+02 -0.10633903608E+01  0.95939679252E+02  0.17669478673E+03  0.12508907900E+03 0.  0.
          5    1    3    3  502    0 -0.29960870014E+02 -0.20197570263E+02  0.30080800536E+02  0.47200874329E+02  0.41800000000E+01 0. -1.
         -5    1    3    3    0  502  0.10976197977E+03  0.19134179902E+02  0.65858878716E+02  0.12949391241E+03  0.41800000000E+01 0. -1.
        -11    1    1    2    0    0 -0.73541116183E+02  0.20280405066E+02 -0.48863094039E+02  0.90593556935E+02  0.00000000000E+00 0.  1.
         11    1    1    2    0    0 -0.62599935757E+01 -0.19217014705E+02 -0.11619750564E+03  0.11794211076E+03  0.00000000000E+00 0. -1.
</event>
<event>
 7    1  0.2394257E-009  0.1048947E+03  0.7561462E-02  0.1270327E+00
         -1   -1    0    0    0  501 -0.00000000000E+00  0.00000000000E+00  0.11374981323E+03  0.11374981323E+03  0.00000000000E+00 0.  1.
          1   -1    0    0  501    0  0.00000000000E+00 -0.00000000000E+00 -0.12744113153E+03  0.12744113153E+03  0.00000000000E+00 0. -1.
         25    2    1    2    0    0 -0.42424080231E+02 -0.30510145911E+02 -0.71934651634E+01  0.13575681484E+03  0.12508994862E+03 0.  0.
          5    1    3    3  502    0 -0.55711776954E+01 -0.60348397792E+02  0.36727306648E+02  0.70988270796E+02  0.41800000000E+01 0.  1.
         -5    1    3    3    0  502 -0.36852902536E+02  0.29838251881E+02 -0.43920771812E+02  0.64768544041E+02  0.41800000000E+01 0.  1.
        -11    1    1    2    0    0  0.29335296545E+02  0.61313441950E+02 -0.17529966215E+02  0.70193999050E+02  0.00000000000E+00 0. -1.
         11    1    1    2    0    0  0.13088783686E+02 -0.30803296039E+02  0.11032113071E+02  0.35240130875E+02  0.00000000000E+00 0.  1.
</event>
<event>
 7    1  0.2394257E-009  0.1626932E+03  0.7561462E-02  0.1185689E+00
         -1   -1    0    0    0  501 -0.00000000000E+00  0.00000000000E+00  0.14397433525E+03  0.14397433525E+03  0.00000000000E+00 0.  1.
          1   -1    0    0  501    0  0.00000000000E+00 -0.00000000000E+00 -0.25521067018E+03  0.25521067018E+03  0.00000000000E+00 0. -1.
         25    2    1    2    0    0 -0.18665369786E+02  0.14660924478E+03 -0.17658842913E+01  0.19362824840E+03  0.12508442567E+03 0.  0.
          5    1    3    3  502    0  0.83900458179E+01  0.14728431964E+03  0.31125791228E+02  0.15082887973E+03  0.41800000000E+01 0. -1.
         -5    1    3    3    0  502 -0.27055415604E+02 -0.67507486592E+00 -0.32891675520E+02  0.42799368664E+02  0.41800000000E+01 0. -1.
        -11    1    1    2    0    0  0.24750452397E+02 -0.85570923838E+02 -0.11292427385E+02  0.89791351569E+02  0.00000000000E+00 0.  1.
         11    1    1    2    0    0 -0.60850826115E+01 -0.61038320941E+02 -0.98178023251E+02  0.11576540547E+03  0.00000000000E+00 0. -1.
</event>
<event>
 7    1  0.2394257E-009  0.1956332E+03  0.7561462E-02  0.1153476E+00
          1   -1    0    0  501    0  0.00000000000E+00  0.00000000000E+00  0.74100194770E+03  0.74100194770E+03  0.00000000000E+00 0. -1.
         -1   -1    0    0    0  501 -0.00000000000E+00 -0.00000000000E+00 -0.52849108661E+02  0.52849108661E+02  0.00000000000E+00 0.  1.
         25    2    1    2    0    0  0.44138958157E+02  0.15854655450E+03  0.36978952884E+03  0.42364728339E+03  0.12508983775E+03 0.  0.
          5    1    3    3  502    0  0.71987450862E+02  0.15916451837E+03  0.28500731195E+03  0.33430850610E+03  0.41800000000E+01 0. -1.
         -5    1    3    3    0  502 -0.27848492706E+02 -0.61796386637E+00  0.84782216891E+02  0.89338777282E+02  0.41800000000E+01 0. -1.
        -11    1    1    2    0    0 -0.42318832759E+02 -0.15142135197E+02  0.88737265268E+02  0.99470951095E+02  0.00000000000E+00 0. -1.
         11    1    1    2    0    0 -0.18201253977E+01 -0.14340441930E+03  0.22962604493E+03  0.27073282188E+03  0.00000000000E+00 0.  1.
</event>
<event>
 7    1  0.2394257E-009  0.1907274E+03  0.7561462E-02  0.1157807E+00
         -1   -1    0    0    0  501 -0.00000000000E+00  0.00000000000E+00  0.20671053821E+03  0.20671053821E+03  0.00000000000E+00 0.  1.
          1   -1    0    0  501    0  0.00000000000E+00 -0.00000000000E+00 -0.20633217741E+03  0.20633217741E+03  0.00000000000E+00 0. -1.
         25    2    1    2    0    0 -0.82778798027E+02 -0.14014681205E+03  0.63209638176E+02  0.21479258758E+03  0.12508772518E+03 0.  0.
          5    1    3    3  502    0  0.88864718120E+01 -0.95772944521E+02  0.28141878919E+01  0.96316241294E+02  0.41800000000E+01 0.  1.
         -5    1    3    3    0  502 -0.91665269839E+02 -0.44373867530E+02  0.60395450284E+02  0.11847634629E+03  0.41800000000E+01 0.  1.
        -11    1    1    2    0    0  0.29818764608E+02  0.12451284802E+03 -0.22802509661E+02  0.13004830830E+03  0.00000000000E+00 0.  1.
         11    1    1    2    0    0  0.52960033419E+02  0.15633964032E+02 -0.40028767719E+02  0.68201819743E+02  0.00000000000E+00 0. -1.
</event>
<event>
 7    1  0.2394257E-009  0.3053093E+03  0.7561462E-02  0.1082616E+00
          2   -1    0    0  501    0  0.00000000000E+00  0.00000000000E+00  0.16616463149E+04  0.16616463149E+04  0.00000000000E+00 0. -1.
         -2   -1    0    0    0  501 -0.00000000000E+00 -0.00000000000E+00 -0.58495429209E+02  0.58495429209E+02  0.00000000000E+00 0.  1.
         25    2    1    2    0    0 -0.11458017857E+03  0.26553193754E+03  0.71211615218E+03  0.77871248981E+03  0.12509156813E+03 0.  0.
          5    1    3    3  502    0  0.20185065997E+02  0.61762308342E+01  0.33466884699E+02  0.39788031970E+02  0.41800000000E+01 0. -1.
         -5    1    3    3    0  502 -0.13476524457E+03  0.25935570670E+03  0.67864926748E+03  0.73892445784E+03  0.41800000000E+01 0. -1.
        -11    1    1    2    0    0  0.38185135233E+02 -0.28207904249E+02  0.80920761486E+02  0.93818761740E+02  0.00000000000E+00 0.  1.
         11    1    1    2    0    0  0.76395043339E+02 -0.23732403329E+03  0.81011397199E+03  0.84761049252E+03  0.00000000000E+00 0. -1.
</event>
<event>
 7    1  0.2394257E-009  0.9442234E+02  0.7561462E-02  0.1292482E+00
          1   -1    0    0  501    0  0.00000000000E+00  0.00000000000E+00  0.14189442698E+03  0.14189442698E+03  0.00000000000E+00 0. -1.
         -1   -1    0    0    0  501 -0.00000000000E+00 -0.00000000000E+00 -0.95167716259E+02  0.95167716259E+02  0.00000000000E+00 0.  1.
         25    2    1    2    0    0  0.13386704030E+02 -0.83809578088E+01 -0.13707910461E+02  0.12683182571E+03  0.12509580691E+03 0.  0.
          5    1    3    3  502    0  0.59554055513E+02  0.19107091956E+02  0.16808976021E+02  0.64898232379E+02  0.41800000000E+01 0.  1.
         -5    1    3    3    0  502 -0.46167351483E+02 -0.27488049765E+02 -0.30516886482E+02  0.61933593335E+02  0.41800000000E+01 0.  1.
        -11    1    1    2    0    0  0.19095366836E+02  0.28318331103E+02  0.63387080456E+02  0.72003353254E+02  0.00000000000E+00 0. -1.
         11    1    1    2    0    0 -0.32482070866E+02 -0.19937373295E+02 -0.29524592732E+01  0.38226964271E+02  0.00000000000E+00 0.  1.
</event>
<event>
 7    1  0.2394257E-009  0.1661593E+03  0.7561462E-02  0.1181913E+00
         -1   -1    0    0    0  501 -0.00000000000E+00  0.00000000000E+00  0.36259394883E+03  0.36259394883E+03  0.00000000000E+00 0.  1.
          1   -1    0    0  501    0  0.00000000000E+00 -0.00000000000E+00 -0.99040608817E+02  0.99040608817E+02  0.00000000000E+00 0. -1.
         25    2    1    2    0    0 -0.86622182243E+02 -0.12521077258E+03  0.10075793002E+03  0.22131583083E+03  0.12508955388E+03 0.  0.
          5    1    3    3  502    0 -0.10531448395E+03 -0.84564686100E+02  0.11141371914E+03  0.17513656351E+03  0.41800000000E+01 0. -1.
         -5    1    3    3    0  502  0.18692301706E+02 -0.40646086477E+02 -0.10655789121E+02  0.46179267325E+02  0.41800000000E+01 0. -1.
        -11    1    1    2    0    0  0.77443397328E+02  0.11247188578E+03  0.17388516481E+03  0.22109603212E+03  0.00000000000E+00 0.  1.
         11    1    1    2    0    0  0.91787849144E+01  0.12738886802E+02 -0.11089754813E+02  0.19222694693E+02  0.00000000000E+00 0. -1.
</event>
<event>
 7    1  0.2394257E-009  0.1223658E+03  0.7561462E-02  0.1239244E+00
         -1   -1    0    0    0  501 -0.00000000000E+00  0.00000000000E+00  0.39035917230E+03  0.39035917230E+03  0.00000000000E+00 0.  1.
          1   -1    0    0  501    0  0.00000000000E+00 -0.00000000000E+00 -0.10126874446E+03  0.10126874446E+03  0.00000000000E+00 0. -1.
         25    2    1    2    0    0  0.66765181085E+02 -0.23046438105E+02  0.33707001697E+03  0.36640488820E+03  0.12509043945E+03 0.  0.
          5    1    3    3  502    0  0.57078721915E+02 -0.66939232277E+02  0.14980269200E+03  0.17377330130E+03  0.41800000000E+01 0. -1.
         -5    1    3    3    0  502  0.96864591702E+01  0.43892794173E+02  0.18726732496E+03  0.19263158690E+03  0.41800000000E+01 0. -1.
        -11    1    1    2    0    0 -0.21850033249E+01 -0.28688503655E+02 -0.27892977195E+02  0.40072717131E+02  0.00000000000E+00 0. -1.
         11    1    1    2    0    0 -0.64580177760E+02  0.51734941760E+02 -0.20086611926E+02  0.85150311433E+02  0.00000000000E+00 0.  1.
</event>
<event>
 7    1  0.2394257E-009  0.8610833E+02  0.7561462E-02  0.1312559E+00
          4   -1    0    0  501    0  0.00000000000E+00  0.00000000000E+00  0.40656897718E+03  0.40656897718E+03  0.00000000000E+00 0. -1.
         -4   -1    0    0    0  501 -0.00000000000E+00 -0.00000000000E+00 -0.30167654077E+02  0.30167654077E+02  0.00000000000E+00 0.  1.
         25    2    1    2    0    0  0.21293889741E+02 -0.22991255011E+01  0.24538909406E+03  0.27626350685E+03  0.12508797709E+03 0.  0.
          5    1    3    3  502    0 -0.35286597698E+02  0.12079557220E+02  0.18301857916E+02  0.41755120439E+02  0.41800000000E+01 0.  1.
         -5    1    3    3    0  502  0.56580487439E+02 -0.14378682721E+02  0.22708723614E+03  0.23450838641E+03  0.41800000000E+01 0.  1.
        -11    1    1    2    0    0  0.27363936897E+02 -0.10579305966E+01  0.86015161741E+01  0.28703490034E+02  0.00000000000E+00 0.  1.
         11    1    1    2    0    0 -0.48657826638E+02  0.33570560977E+01  0.12241071287E+03  0.13176963438E+03  0.00000000000E+00 0. -1.
</event>
<event>
 7    1  0.2394257E-009  0.1738531E+03  0.7561462E-02  0.1173888E+00
          1   -1    0    0  501    0  0.00000000000E+00  0.00000000000E+00  0.17793357002E+04  0.17793357002E+04  0.00000000000E+00 0.  1.
         -1   -1    0    0    0  501 -0.00000000000E+00 -0.00000000000E+00 -0.22187551243E+02  0.22187551243E+02  0.00000000000E+00 0. -1.
         25    2    1    2    0    0 -0.33723127020E+02  0.16000419213E+03  0.87017126595E+03  0.89419219907E+03  0.12507224312E+03 0.  0.
          5    1    3    3  502    0 -0.50727384473E+02  0.11477268786E+03  0.79416747070E+03  0.80403077139E+03  0.41800000000E+01 0. -1.
         -5    1    3    3    0  502  0.17004257453E+02  0.45231504270E+02  0.76003795251E+02  0.90161427687E+02  0.41800000000E+01 0. -1.
        -11    1    1    2    0    0 -0.13502279234E+02 -0.11232924229E+02  0.20894724059E+02  0.27296146701E+02  0.00000000000E+00 0. -1.
         11    1    1    2    0    0  0.47225406254E+02 -0.14877126790E+03  0.86608215893E+03  0.88003490566E+03  0.00000000000E+00 0.  1.
</event>
<event>
 7    1  0.2394257E-009  0.1216203E+03  0.7561462E-02  0.1240448E+00
         -3   -1    0    0    0  501 -0.00000000000E+00  0.00000000000E+00  0.47131291408E+03  0.47131291408E+03  0.00000000000E+00 0.  1.
          3   -1    0    0  501    0  0.00000000000E+00 -0.00000000000E+00 -0.35362289679E+02  0.35362289679E+02  0.00000000000E+00 0. -1.
         25    2    1    2    0    0 -0.26922220233E+02 -0.60085009898E+02  0.28603801788E+03  0.31906096453E+03  0.12508851688E+03 0.  0.
          5    1    3    3  502    0  0.49604834799E+02 -0.16950493699E+02  0.12411890447E+03  0.13479960578E+03  0.41800000000E+01 0. -1.
         -5    1    3    3    0  502 -0.76527055033E+02 -0.43134516199E+02  0.16191911342E+03  0.18426135875E+03  0.41800000000E+01 0. -1.
        -11    1    1    2    0    0  0.39749721201E+02 -0.15223181984E+01  0.98920854340E+02  0.10661938478E+03  0.00000000000E+00 0.  1.
         11    1    1    2    0    0 -0.12827500968E+02  0.61607328096E+02  0.50991752177E+02  0.80994854444E+02  0.00000000000E+00 0. -1.
</event>
<event>
 7    1  0.2394257E-009  0.6372848E+02  0.7561462E-02  0.1382819E+00
         -3   -1    0    0    0  501 -0.00000000000E+00  0.00000000000E+00  0.36883792722E+03  0.36883792722E+03  0.00000000000E+00 0.  1.
          3   -1    0    0  501    0  0.00000000000E+00 -0.00000000000E+00 -0.34162052215E+02  0.34162052215E+02  0.00000000000E+00 0. -1.
         25    2    1    2    0    0 -0.30221658832E+01  0.10694112729E+02  0.23144183662E+03  0.26331850143E+03  0.12509121441E+03 0.  0.
          5    1    3    3  502    0  0.48150041984E+01  0.37035722359E+02  0.23248237041E+03  0.23550022069E+03  0.41800000000E+01 0.  1.
         -5    1    3    3    0  502 -0.78371700816E+01 -0.26341609630E+02 -0.10405337810E+01  0.27818280740E+02  0.41800000000E+01 0.  1.
        -11    1    1    2    0    0 -0.84668352554E+00 -0.36235210291E+02  0.10754797370E+03  0.11349129476E+03  0.00000000000E+00 0.  1.
         11    1    1    2    0    0  0.38688494087E+01  0.25541097562E+02 -0.43139353256E+01  0.26190183245E+02  0.00000000000E+00 0. -1.
</event>
<event>
 7    1  0.2394257E-009  0.1589532E+03  0.7561462E-02  0.1189884E+00
          1   -1    0    0  501    0  0.00000000000E+00  0.00000000000E+00  0.12454855108E+03  0.12454855108E+03  0.00000000000E+00 0.  1.
         -1   -1    0    0    0  501 -0.00000000000E+00 -0.00000000000E+00 -0.22174157183E+03  0.22174157183E+03  0.00000000000E+00 0. -1.
         25    2    1    2    0    0 -0.10358193223E+03 -0.69736094665E+02 -0.69732761091E+02  0.19000707784E+03  0.12509073537E+03 0.  0.
          5    1    3    3  502    0  0.17869403970E+02 -0.36889948043E+02 -0.46268341041E+02  0.61954948532E+02  0.41800000000E+01 0.  1.
         -5    1    3    3    0  502 -0.12145133620E+03 -0.32846146622E+02 -0.23464420050E+02  0.12805212931E+03  0.41800000000E+01 0.  1.
        -11    1    1    2    0    0  0.21398505788E+02  0.65076534624E+02 -0.27896033229E+02  0.73966479425E+02  0.00000000000E+00 0.  1.
         11    1    1    2    0    0  0.82183426438E+02  0.46595600418E+01  0.43577357772E+00  0.82316565645E+02  0.00000000000E+00 0. -1.
</event>
<event>
 7    1  0.2394257E-009  0.1490504E+03  0.7561462E-02  0.1201645E+00
         -2   -1    0    0    0  501 -0.00000000000E+00  0.00000000000E+00  0.26253680167E+03  0.26253680167E+03  0.00000000000E+00 0.  1.
          2   -1    0    0  501    0  0.00000000000E+00 -0.00000000000E+00 -0.17623633968E+03  0.17623633968E+03  0.00000000000E+00 0. -1.
         25    2    1    2    0    0 -0.69946208950E+02 -0.89120974260E+02 -0.10448573238E+03  0.19849712129E+03  0.12509523848E+03 0.  0.
          5    1    3    3  502    0 -0.10318234550E+03 -0.61586407887E+02 -0.53603539766E+02  0.13164457427E+03  0.41800000000E+01 0.  1.
         -5    1    3    3    0  502  0.33236136549E+02 -0.27534566373E+02 -0.50882192615E+02  0.66852547022E+02  0.41800000000E+01 0.  1.
        -11    1    1    2    0    0  0.36164183850E+02  0.93675645517E+02  0.17701362344E+03  0.20351117325E+03  0.00000000000E+00 0.  1.
         11    1    1    2    0    0  0.33782025101E+02 -0.45546712569E+01  0.13772570937E+02  0.36764846802E+02  0.00000000000E+00 0. -1.
</event>
<event>
 7    1  0.2394257E-009  0.8056174E+02  0.7561462E-02  0.1327465E+00
         -2   -1    0    0    0  501 -0.00000000000E+00  0.00000000000E+00  0.11410736231E+03  0.11410736231E+03  0.00000000000E+00 0.  1.
          2   -1    0    0  501    0  0.00000000000E+00 -0.00000000000E+00 -0.13915862682E+03  0.13915862682E+03  0.00000000000E+00 0. -1.
         25    2    1    2    0    0  0.27325995465E+01 -0.46985621423E+02 -0.59145810733E+02  0.14615302455E+03  0.12508942376E+03 0.  0.
          5    1    3    3  502    0  0.19000510180E+02 -0.31796169363E+02 -0.95951922883E+02  0.10293813520E+03  0.41800000000E+01 0.  1.
         -5    1    3    3    0  502 -0.16267910633E+02 -0.15189452061E+02  0.36806112150E+02  0.43214889354E+02  0.41800000000E+01 0.  1.
        -11    1    1    2    0    0 -0.19457062701E+02 -0.22491726722E+02  0.14059298988E+02  0.32895576419E+02  0.00000000000E+00 0.  1.
         11    1    1    2    0    0  0.16724463154E+02  0.69477348145E+02  0.20035247236E+02  0.74217388158E+02  0.00000000000E+00 0. -1.
</event>
<event>
 7    1  0.2394257E-009  0.1031764E+03  0.7561462E-02  0.1273755E+00
         -2   -1    0    0    0  501 -0.00000000000E+00  0.00000000000E+00  0.63789180646E+03  0.63789180646E+03  0.00000000000E+00 0.  1.
          2   -1    0    0  501    0  0.00000000000E+00 -0.00000000000E+00 -0.27353501293E+02  0.27353501293E+02  0.00000000000E+00 0. -1.
         25    2    1    2    0    0 -0.32420732926E+02  0.50093584598E+02  0.44656164746E+03  0.46757557607E+03  0.12509653555E+03 0.  0.
          5    1    3    3  502    0 -0.16560033702E+02  0.70993906031E+02  0.12385607049E+03  0.14377819030E+03  0.41800000000E+01 0.  1.
         -5    1    3    3    0  502 -0.15860699225E+02 -0.20900321433E+02  0.32270557697E+03  0.32379738576E+03  0.41800000000E+01 0.  1.
        -11    1    1    2    0    0  0.17077445269E+02 -0.75324163671E+02  0.13889828884E+03  0.15892798184E+03  0.00000000000E+00 0.  1.
         11    1    1    2    0    0  0.15343287657E+02  0.25230579073E+02  0.25078368869E+02  0.38741749852E+02  0.00000000000E+00 0. -1.
</event>
<event>
 7    1  0.2394257E-009  0.1543871E+03  0.7561462E-02  0.1195183E+00
         -1   -1    0    0    0  501 -0.00000000000E+00  0.00000000000E+00  0.22332885836E+03  0.22332885836E+03  0.00000000000E+00 0.  1.
          1   -1    0    0  501    0  0.00000000000E+00 -0.00000000000E+00 -0.11793298825E+03  0.11793298825E+03  0.00000000000E+00 0. -1.
         25    2    1    2    0    0  0.85479454909E+02 -0.74382841534E+02  0.10175448756E+03  0.19708191808E+03  0.12509101634E+03 0.  0.
          5    1    3    3  502    0 -0.28370568149E+02 -0.34084460447E+02  0.45879547204E+02  0.63945639669E+02  0.41800000000E+01 0. -1.
         -5    1    3    3    0  502  0.11385002306E+03 -0.40298381087E+02  0.55874940355E+02  0.13313627841E+03  0.41800000000E+01 0. -1.
        -11    1    1    2    0    0 -0.94698201933E+01  0.66272640745E+02  0.90156740510E+01  0.67550150143E+02  0.00000000000E+00 0.  1.
         11    1    1    2    0    0 -0.76009634716E+02  0.81102007889E+01 -0.53742914985E+01  0.76629778387E+02  0.00000000000E+00 0. -1.
</event>
<event>
 7    1  0.2394257E-009  0.1714893E+03  0.7561462E-02  0.1176304E+00
          1   -1    0    0  501    0  0.00000000000E+00  0.00000000000E+00  0.13842757764E+04  0.13842757764E+04  0.00000000000E+00 0. -1.
         -1   -1    0    0    0  501 -0.00000000000E+00 -0.00000000000E+00 -0.25738136492E+02  0.25738136492E+02  0.00000000000E+00 0.  1.
         25    2    1    2    0    0  0.94328329877E+02  0.11550966886E+03  0.85173313139E+03  0.87369162789E+03  0.12508963233E+03 0.  0.
          5    1    3    3  502    0  0.59469871706E+02  0.13037394267E+03  0.50767595458E+03  0.52752855641E+03  0.41800000000E+01 0.  1.
         -5    1    3    3    0  502  0.34858458170E+02 -0.14864273807E+02  0.34405717681E+03  0.34616307148E+03  0.41800000000E+01 0.  1.
        -11    1    1    2    0    0 -0.81428796912E+02 -0.12229190711E+03  0.49816790558E+03  0.51938157616E+03  0.00000000000E+00 0. -1.
         11    1    1    2    0    0 -0.12899532965E+02  0.67822382522E+01  0.86366029871E+01  0.16940708887E+02  0.00000000000E+00 0.  1.
</event>
<event>
 7    1  0.2394257E-009  0.1312580E+03  0.7561462E-02  0.1225601E+00
         -1   -1    0    0    0  501 -0.00000000000E+00  0.00000000000E+00  0.13201347457E+03  0.13201347457E+03  0.00000000000E+00 0.  1.
          1   -1    0    0  501    0  0.00000000000E+00 -0.00000000000E+00 -0.19275699777E+03  0.19275699777E+03  0.00000000000E+00 0. -1.
         25    2    1    2    0    0  0.61848772483E+02  0.73486212171E+02 -0.10012433819E+03  0.18680986740E+03  0.12509016518E+03 0.  0.
          5    1    3    3  502    0 -0.22534478509E+02  0.19416251819E+02 -0.78703513004E+02  0.84240779409E+02  0.41800000000E+01 0. -1.
         -5    1    3    3    0  502  0.84383250992E+02  0.54069960352E+02 -0.21420825187E+02  0.10256908800E+03  0.41800000000E+01 0. -1.
        -11    1    1    2    0    0  0.18059660531E+02 -0.43010525803E+02  0.15710792134E+02  0.49222816435E+02  0.00000000000E+00 0.  1.
         11    1    1    2    0    0 -0.79908433014E+02 -0.30475686368E+02  0.23670022849E+02  0.88737788501E+02  0.00000000000E+00 0. -1.
</event>
<event>
 7    1  0.2394257E-009  0.1506352E+03  0.7561462E-02  0.1199695E+00
         -1   -1    0    0    0  501 -0.00000000000E+00  0.00000000000E+00  0.24578957683E+03  0.24578957683E+03  0.00000000000E+00 0.  1.
          1   -1    0    0  501    0  0.00000000000E+00 -0.00000000000E+00 -0.99148718856E+02  0.99148718856E+02  0.00000000000E+00 0. -1.
         25    2    1    2    0    0  0.29749603846E+02 -0.10852473544E+03  0.86911188047E+02  0.18937666839E+03  0.12508921132E+03 0.  0.
          5    1    3    3  502    0 -0.41328728150E+02 -0.16516214500E+02  0.50562365401E+02  0.67489808911E+02  0.41800000000E+01 0. -1.
         -5    1    3    3    0  502  0.71078331995E+02 -0.92008520942E+02  0.36348822646E+02  0.12188685948E+03  0.41800000000E+01 0. -1.
        -11    1    1    2    0    0 -0.59228422598E+02  0.75489952483E+02  0.56075225262E+02  0.11113581717E+03  0.00000000000E+00 0.  1.
         11    1    1    2    0    0  0.29478818752E+02  0.33034782959E+02  0.36544446686E+01  0.44425810134E+02  0.00000000000E+00 0. -1.
</event>
<event>
 7    1  0.2394257E-009  0.1083763E+03  0.7561462E-02  0.1263607E+00
         -1   -1    0    0    0  501 -0.00000000000E+00  0.00000000000E+00  0.61844315694E+02  0.61844315694E+02  0.00000000000E+00 0.  1.
          1   -1    0    0  501    0  0.00000000000E+00 -0.00000000000E+00 -0.35041407681E+03  0.35041407681E+03  0.00000000000E+00 0. -1.
         25    2    1    2    0    0 -0.71309470540E+02 -0.35176275946E+02 -0.14359660444E+03  0.20637346850E+03  0.12509041817E+03 0.  0.
          5    1    3    3  502    0 -0.56400934307E+02 -0.58894667133E+01 -0.15971321453E+03  0.16953328435E+03  0.41800000000E+01 0.  1.
         -5    1    3    3    0  502 -0.14908536234E+02 -0.29286809233E+02  0.16116610087E+02  0.36840184152E+02  0.41800000000E+01 0.  1.
        -11    1    1    2    0    0 -0.16181390934E+02  0.35781563036E+02 -0.33469236422E+01  0.39412682778E+02  0.00000000000E+00 0.  1.
         11    1    1    2    0    0  0.87490861474E+02 -0.60528709020E+00 -0.14162623304E+03  0.16647224122E+03  0.00000000000E+00 0. -1.
</event>
<event>
 7    1  0.2394257E-009  0.8530687E+02  0.7561462E-02  0.1314632E+00
          4   -1    0    0  501    0  0.00000000000E+00  0.00000000000E+00  0.86641924969E+02  0.86641924969E+02  0.00000000000E+00 0. -1.
         -4   -1    0    0    0  501 -0.00000000000E+00 -0.00000000000E+00 -0.18060543299E+03  0.18060543299E+03  0.00000000000E+00 0.  1.
         25    2    1    2    0    0 -0.51105449980E+02  0.34280805834E+02 -0.66364205970E+02  0.15439575320E+03  0.12508756976E+03 0.  0.
          5    1    3    3  502    0  0.24275324606E+02  0.55850893782E+01  0.22845162044E+02  0.34056694451E+02  0.41800000000E+01 0. -1.
         -5    1    3    3    0  502 -0.75380774586E+02  0.28695716456E+02 -0.89209368015E+02  0.12033905875E+03  0.41800000000E+01 0. -1.
        -11    1    1    2    0    0  0.48585312372E+02 -0.24352962489E+02  0.24601095865E+02  0.59655789980E+02  0.00000000000E+00 0. -1.
         11    1    1    2    0    0  0.25201376075E+01 -0.99278433446E+01 -0.52200397918E+02  0.53195814778E+02  0.00000000000E+00 0.  1.
</event>
<event>
 7    1  0.2394257E-009  0.7467258E+02  0.7561462E-02  0.1344888E+00
         -3   -1    0    0    0  501 -0.00000000000E+00  0.00000000000E+00  0.33495749227E+02  0.33495749227E+02  0.00000000000E+00 0.  1.
          3   -1    0    0  501    0  0.00000000000E+00 -0.00000000000E+00 -0.42432371928E+03  0.42432371928E+03  0.00000000000E+00 0. -1.
         25    2    1    2    0    0 -0.53417170942E+01 -0.46613094123E+02 -0.27021464286E+03  0.30143774901E+03  0.12508976309E+03 0.  0.
          5    1    3    3  502    0 -0.11797584457E+02 -0.26898425987E+02 -0.27748155030E+03  0.27906306003E+03  0.41800000000E+01 0. -1.
         -5    1    3    3    0  502  0.64558673629E+01 -0.19714668136E+02  0.72669074409E+01  0.22374688978E+02  0.41800000000E+01 0. -1.
        -11    1    1    2    0    0  0.80399464358E+01  0.72270677758E+02 -0.98295830199E+02  0.12226921868E+03  0.00000000000E+00 0.  1.
         11    1    1    2    0    0 -0.26982293416E+01 -0.25657583635E+02 -0.22317496998E+02  0.34112500815E+02  0.00000000000E+00 0. -1.
</event>
<event>
 7    1  0.2394257E-009  0.9797585E+02  0.7561462E-02  0.1284611E+00
         -1   -1    0    0    0  501 -0.00000000000E+00  0.00000000000E+00  0.87077639289E+02  0.87077639289E+02  0.00000000000E+00 0.  1.
          1   -1    0    0  501    0  0.00000000000E+00 -0.00000000000E+00 -0.20548409608E+03  0.20548409608E+03  0.00000000000E+00 0. -1.
         25    2    1    2    0    0  0.74408869934E+02  0.12735226234E+02 -0.74703781118E+02  0.16409913371E+03  0.12509598259E+03 0.  0.
          5    1    3    3  502    0  0.11051480888E+02 -0.66518378744E+01  0.34068240334E+02  0.36667418458E+02  0.41800000000E+01 0.  1.
         -5    1    3    3    0  502  0.63357389046E+02  0.19387064108E+02 -0.10877202145E+03  0.12743171525E+03  0.41800000000E+01 0.  1.
        -11    1    1    2    0    0 -0.94660653358E+02 -0.14103461152E+02 -0.48950222442E+02  0.10749730782E+03  0.00000000000E+00 0. -1.
         11    1    1    2    0    0  0.20251783423E+02  0.13682349185E+01  0.52475467727E+01  0.20965293839E+02  0.00000000000E+00 0.  1.
</event>
<event>
 7    1  0.2394257E-009  0.8908482E+02  0.7561462E-02  0.1305083E+00
          2   -1    0    0  501    0  0.00000000000E+00  0.00000000000E+00  0.53322069682E+02  0.53322069682E+02  0.00000000000E+00 0. -1.
         -2   -1    0    0    0  501 -0.00000000000E+00 -0.00000000000E+00 -0.22008399887E+03  0.22008399887E+03  0.00000000000E+00 0.  1.
         25    2    1    2    0    0 -0.11140986571E+01  0.28881896929E+00 -0.91776005871E+02  0.15515211387E+03  0.12509204033E+03 0.  0.
          5    1    3    3  502    0 -0.40785549824E+02  0.17409295758E+02  0.89836619574E+01  0.45439225735E+02  0.41800000000E+01 0. -1.
         -5    1    3    3    0  502  0.39671451167E+02 -0.17120476789E+02 -0.10075966783E+03  0.10971288814E+03  0.41800000000E+01 0. -1.
        -11    1    1    2    0    0  0.28342455615E+02  0.35387196225E+02 -0.47310774370E+02  0.65527534811E+02  0.00000000000E+00 0. -1.
         11    1    1    2    0    0 -0.27228356958E+02 -0.35676015194E+02 -0.27675148950E+02  0.52726419869E+02  0.00000000000E+00 0.  1.
</event>
<event>
 7    1  0.2394257E-009  0.1026634E+03  0.7561462E-02  0.1274793E+00
         -1   -1    0    0    0  501 -0.00000000000E+00  0.00000000000E+00  0.13962120026E+03  0.13962120026E+03  0.00000000000E+00 0.  1.
          1   -1    0    0  501    0  0.00000000000E+00 -0.00000000000E+00 -0.15150526033E+03  0.15150526033E+03  0.00000000000E+00 0. -1.
         25    2    1    2    0    0  0.20200182821E+02  0.68760789436E+02 -0.73517836461E+02  0.16182459918E+03  0.12508491145E+03 0.  0.
          5    1    3    3  502    0  0.28600579459E+02  0.11140297802E+01 -0.87462041389E+02  0.92121198926E+02  0.41800000000E+01 0. -1.
         -5    1    3    3    0  502 -0.84003966380E+01  0.67646759656E+02  0.13944204927E+02  0.69703400252E+02  0.41800000000E+01 0. -1.
        -11    1    1    2    0    0 -0.44998685182E+02 -0.12623500491E+02  0.46850912146E+02  0.66175844549E+02  0.00000000000E+00 0.  1.
         11    1    1    2    0    0  0.24798502362E+02 -0.56137288946E+02  0.14782864254E+02  0.63126016864E+02  0.00000000000E+00 0. -1.
</event>
<event>
 7    1  0.2394257E-009  0.1810269E+03  0.7561462E-02  0.1166813E+00
          1   -1    0    0  501    0  0.00000000000E+00  0.00000000000E+00  0.70923185888E+03  0.70923185888E+03  0.00000000000E+00 0. -1.
         -1   -1    0    0    0  501 -0.00000000000E+00 -0.00000000000E+00 -0.78624144117E+02  0.78624144117E+02  0.00000000000E+00 0.  1.
         25    2    1    2    0    0  0.19869586392E+02  0.15363881509E+03  0.55986018730E+03  0.59421380210E+03  0.12508767854E+03 0.  0.
          5    1    3    3  502    0 -0.29296537087E+02  0.13069058119E+03  0.29773675214E+03  0.32650108893E+03  0.41800000000E+01 0.  1.
         -5    1    3    3    0  502  0.49166123480E+02  0.22948233907E+02  0.26212343515E+03  0.26771271317E+03  0.41800000000E+01 0.  1.
        -11    1    1    2    0    0 -0.30546826660E+02 -0.15884599796E+03  0.78149513072E+02  0.17964550114E+03  0.00000000000E+00 0. -1.
         11    1    1    2    0    0  0.10677240268E+02  0.52071828614E+01 -0.74019856079E+01  0.13996699755E+02  0.00000000000E+00 0.  1.
</event>
<event>
 7    1  0.2394257E-009  0.2193635E+03  0.7561462E-02  0.1134358E+00
          1   -1    0    0  501    0  0.00000000000E+00  0.00000000000E+00  0.14963094092E+03  0.14963094092E+03  0.00000000000E+00 0. -1.
         -1   -1    0    0    0  501 -0.00000000000E+00 -0.00000000000E+00 -0.48445722319E+03  0.48445722319E+03  0.00000000000E+00 0.  1.
         25    2    1    2    0    0  0.17853064250E+03  0.89877246144E+02 -0.33711258311E+03  0.41139216388E+03  0.12509000410E+03 0.  0.
          5    1    3    3  502    0  0.15711267843E+03  0.12011137026E+03 -0.27138732210E+03  0.33582686906E+03  0.41800000000E+01 0.  1.
         -5    1    3    3    0  502  0.21417964078E+02 -0.30234124116E+02 -0.65725261009E+02  0.75565294818E+02  0.41800000000E+01 0.  1.
        -11    1    1    2    0    0 -0.42816487161E+02 -0.41287843601E+02  0.42426745675E+02  0.73061387549E+02  0.00000000000E+00 0. -1.
         11    1    1    2    0    0 -0.13571415534E+03 -0.48589402542E+02 -0.40140444840E+02  0.14963461268E+03  0.00000000000E+00 0.  1.
</event>
<event>
 7    1  0.2394257E-009  0.5845542E+02  0.7561462E-02  0.1404430E+00
          2   -1    0    0  501    0  0.00000000000E+00  0.00000000000E+00  0.85817351488E+02  0.85817351488E+02  0.00000000000E+00 0. -1.
         -2   -1    0    0    0  501 -0.00000000000E+00 -0.00000000000E+00 -0.14456830125E+03  0.14456830125E+03  0.00000000000E+00 0.  1.
         25    2    1    2    0    0  0.95955834316E+01 -0.19688052364E+02 -0.20055821090E+02  0.12856735522E+03  0.12509050420E+03 0.  0.
          5    1    3    3  502    0 -0.40224018607E+00 -0.16197455723E+02 -0.72753994874E+02  0.74653436218E+02  0.41800000000E+01 0.  1.
         -5    1    3    3    0  502  0.99978236177E+01 -0.34905966418E+01  0.52698173784E+02  0.53913919002E+02  0.41800000000E+01 0.  1.
        -11    1    1    2    0    0  0.24777112869E+02  0.41320495261E+02 -0.37727238610E+02  0.61193408010E+02  0.00000000000E+00 0.  1.
         11    1    1    2    0    0 -0.34372696300E+02 -0.21632442897E+02 -0.96789006512E+00  0.40624889511E+02  0.00000000000E+00 0. -1.
</event>
<event>
 7    1  0.2394257E-009  0.9827428E+02  0.7561462E-02  0.1283967E+00
         -1   -1    0    0    0  501 -0.00000000000E+00  0.00000000000E+00  0.10723874814E+03  0.10723874814E+03  0.00000000000E+00 0.  1.
          1   -1    0    0  501    0  0.00000000000E+00 -0.00000000000E+00 -0.23708306432E+03  0.23708306432E+03  0.00000000000E+00 0. -1.
         25    2    1    2    0    0 -0.54342079659E+02  0.75860050354E+02  0.46615921223E+01  0.15612878004E+03  0.12508659662E+03 0.  0.
          5    1    3    3  502    0 -0.43881214700E+01 -0.51160905490E+01 -0.47080631540E+02  0.47743986624E+02  0.41800000000E+01 0. -1.
         -5    1    3    3    0  502 -0.49953958189E+02  0.80976140903E+02  0.51742223662E+02  0.10838479342E+03  0.41800000000E+01 0. -1.
        -11    1    1    2    0    0  0.21273330317E+02 -0.32652029005E+02  0.42007219164E+01  0.39196372862E+02  0.00000000000E+00 0.  1.
         11    1    1    2    0    0  0.33068749343E+02 -0.43208021349E+02 -0.13870663022E+03  0.14899665955E+03  0.00000000000E+00 0. -1.
</event>
<event>
 7    1  0.2394257E-009  0.8122483E+02  0.7561462E-02  0.1325611E+00
          1   -1    0    0  501    0  0.00000000000E+00  0.00000000000E+00  0.57490862671E+02  0.57490862671E+02  0.00000000000E+00 0. -1.
         -1   -1    0    0    0  501 -0.00000000000E+00 -0.00000000000E+00 -0.26739789755E+03  0.26739789755E+03  0.00000000000E+00 0.  1.
         25    2    1    2    0    0 -0.25081891751E+02  0.23749700734E+02 -0.52349550555E+02  0.13993269384E+03  0.12509010266E+03 0.  0.
          5    1    3    3  502    0 -0.25269388685E+02  0.45700724690E+02 -0.85309698332E+02  0.10011151418E+03  0.41800000000E+01 0. -1.
         -5    1    3    3    0  502  0.18749693413E+00 -0.21951023957E+02  0.32960147777E+02  0.39821179658E+02  0.41800000000E+01 0. -1.
        -11    1    1    2    0    0  0.44204813315E+02 -0.42220459488E+02 -0.67542144555E+02  0.91096509322E+02  0.00000000000E+00 0. -1.
         11    1    1    2    0    0 -0.19122921564E+02  0.18470758754E+02 -0.90015339772E+02  0.93859557065E+02  0.00000000000E+00 0.  1.
</event>
<event>
 7    1  0.2394257E-009  0.1325864E+03  0.7561462E-02  0.1223668E+00
          1   -1    0    0  501    0  0.00000000000E+00  0.00000000000E+00  0.10799500019E+03  0.10799500019E+03  0.00000000000E+00 0. -1.
         -1   -1    0    0    0  501 -0.00000000000E+00 -0.00000000000E+00 -0.24459453841E+03  0.24459453841E+03  0.00000000000E+00 0.  1.
         25    2    1    2    0    0  0.82294128029E+02  0.84813952756E+02 -0.99287628822E+02  0.19866692812E+03  0.12507911497E+03 0.  0.
          5    1    3    3  502    0  0.83365254372E+01  0.70018911425E+02  0.39466396285E+01  0.70747395556E+02  0.41800000000E+01 0.  1.
         -5    1    3    3    0  502  0.73957602592E+02  0.14795041330E+02 -0.10323426845E+03  0.12791953257E+03  0.41800000000E+01 0.  1.
        -11    1    1    2    0    0 -0.11520378219E+02 -0.19727920414E+02  0.29150891939E+02  0.37036258707E+02  0.00000000000E+00 0. -1.
         11    1    1    2    0    0 -0.70773749811E+02 -0.65086032342E+02 -0.66462801335E+02  0.11688635177E+03  0.00000000000E+00 0.  1.
</event>
<event>
 7    1  0.2394257E-009  0.1874361E+03  0.7561462E-02  0.1160794E+00
         -2   -1    0    0    0  501 -0.00000000000E+00  0.00000000000E+00  0.13818180375E+03  0.13818180375E+03  0.00000000000E+00 0. -1.
          2   -1    0    0  501    0  0.00000000000E+00 -0.00000000000E+00 -0.33533757234E+03  0.33533757234E+03  0.00000000000E+00 0.  1.
         25    2    1    2    0    0  0.14071273689E+03  0.74195172875E+02 -0.20848671351E+03  0.29055139609E+03  0.12509358919E+03 0.  0.
          5    1    3    3  502    0  0.15786212366E+03  0.79572361752E+02 -0.15925194801E+03  0.23797240635E+03  0.41800000000E+01 0. -1.
         -5    1    3    3    0  502 -0.17149386775E+02 -0.53771888776E+01 -0.49234765504E+02  0.52578989732E+02  0.41800000000E+01 0. -1.
        -11    1    1    2    0    0 -0.97028010919E+02 -0.90767176098E+02 -0.63382786092E+01  0.13301612284E+03  0.00000000000E+00 0.  1.
         11    1    1    2    0    0 -0.43684725966E+02  0.16572003223E+02  0.17669223529E+02  0.49951857160E+02  0.00000000000E+00 0. -1.
</event>
<event>
 7    1  0.2394257E-009  0.7406080E+02  0.7561462E-02  0.1346804E+00
         -3   -1    0    0    0  501 -0.00000000000E+00  0.00000000000E+00  0.80203492690E+03  0.80203492690E+03  0.00000000000E+00 0.  1.
          3   -1    0    0  501    0  0.00000000000E+00 -0.00000000000E+00 -0.15478349468E+02  0.15478349468E+02  0.00000000000E+00 0. -1.
         25    2    1    2    0    0 -0.20938235326E+02  0.12795011702E+02  0.50182405042E+03  0.51776163083E+03  0.12509039435E+03 0.  0.
          5    1    3    3  502    0  0.15327562553E+02  0.10163296043E+02  0.48927915184E+01  0.19484315978E+02  0.41800000000E+01 0.  1.
         -5    1    3    3    0  502 -0.36265797879E+02  0.26317156584E+01  0.49693125890E+03  0.49827731485E+03  0.41800000000E+01 0.  1.
        -11    1    1    2    0    0  0.54761352273E+02 -0.19594049343E+02  0.15645557509E+03  0.16691638461E+03  0.00000000000E+00 0.  1.
         11    1    1    2    0    0 -0.33823116947E+02  0.67990376409E+01  0.12827695192E+03  0.13283526093E+03  0.00000000000E+00 0. -1.
</event>
<event>
 7    1  0.2394257E-009  0.1669373E+03  0.7561462E-02  0.1181080E+00
         -1   -1    0    0    0  501 -0.00000000000E+00  0.00000000000E+00  0.10666576537E+03  0.10666576537E+03  0.00000000000E+00 0.  1.
          1   -1    0    0  501    0  0.00000000000E+00 -0.00000000000E+00 -0.31405994515E+03  0.31405994515E+03  0.00000000000E+00 0. -1.
         25    2    1    2    0    0 -0.11609455388E+03 -0.53378235866E+02 -0.25962655834E+02  0.18068976452E+03  0.12509016748E+03 0.  0.
          5    1    3    3  502    0 -0.11960093069E+03 -0.84956591147E+02 -0.21840107940E+02  0.14837947202E+03  0.41800000000E+01 0.  1.
         -5    1    3    3    0  502  0.35063768110E+01  0.31578355280E+02 -0.41225478941E+01  0.32310292504E+02  0.41800000000E+01 0.  1.
        -11    1    1    2    0    0  0.10672854860E+03  0.61376189152E+01 -0.10604806570E+03  0.15058169109E+03  0.00000000000E+00 0.  1.
         11    1    1    2    0    0  0.93660052811E+01  0.47240616951E+02 -0.75383458246E+02  0.89454254913E+02  0.00000000000E+00 0. -1.
</event>
<event>
 7    1  0.2394257E-009  0.9985253E+02  0.7561462E-02  0.1280606E+00
          2   -1    0    0  501    0  0.00000000000E+00  0.00000000000E+00  0.27130363210E+02  0.27130363210E+02  0.00000000000E+00 0. -1.
         -2   -1    0    0    0  501 -0.00000000000E+00 -0.00000000000E+00 -0.47367525886E+03  0.47367525886E+03  0.00000000000E+00 0.  1.
         25    2    1    2    0    0 -0.51484207488E+01  0.30692136326E+02 -0.22507197431E+03  0.25937538666E+03  0.12509869751E+03 0.  0.
          5    1    3    3  502    0 -0.37889397801E+02 -0.20932389960E+02 -0.17476730550E+03  0.18009679311E+03  0.41800000000E+01 0.  1.
         -5    1    3    3    0  502  0.32740977052E+02  0.51624526286E+02 -0.50304668805E+02  0.79278593556E+02  0.41800000000E+01 0.  1.
        -11    1    1    2    0    0  0.32916818499E+02  0.19008090628E+02 -0.70764289728E+02  0.80326889334E+02  0.00000000000E+00 0.  1.
         11    1    1    2    0    0 -0.27768397750E+02 -0.49700226954E+02 -0.15070863162E+03  0.16110334607E+03  0.00000000000E+00 0. -1.
</event>
<event>
 7    1  0.2394257E-009  0.1432533E+03  0.7561462E-02  0.1209017E+00
         -1   -1    0    0    0  501 -0.00000000000E+00  0.00000000000E+00  0.35094541866E+03  0.35094541866E+03  0.00000000000E+00 0.  1.
          1   -1    0    0  501    0  0.00000000000E+00 -0.00000000000E+00 -0.86655721010E+02  0.86655721010E+02  0.00000000000E+00 0. -1.
         25    2    1    2    0    0 -0.27222229111E+02 -0.10829586080E+03  0.23652139215E+03  0.28992682369E+03  0.12508457509E+03 0.  0.
          5    1    3    3  502    0  0.16311108637E+02 -0.95355766051E+02  0.22177787732E+03  0.24199519345E+03  0.41800000000E+01 0.  1.
         -5    1    3    3    0  502 -0.43533337749E+02 -0.12940094751E+02  0.14743514827E+02  0.47931630237E+02  0.41800000000E+01 0.  1.
        -11    1    1    2    0    0 -0.26310040741E+02  0.78522230161E+02  0.24374437836E+02  0.86325384987E+02  0.00000000000E+00 0.  1.
         11    1    1    2    0    0  0.53532269852E+02  0.29773630640E+02  0.33938676711E+01  0.61348931000E+02  0.00000000000E+00 0. -1.
</event>
<event>
 7    1  0.2394257E-009  0.1092577E+03  0.7561462E-02  0.1261951E+00
         -1   -1    0    0    0  501 -0.00000000000E+00  0.00000000000E+00  0.86195551529E+02  0.86195551529E+02  0.00000000000E+00 0.  1.
          1   -1    0    0  501    0  0.00000000000E+00 -0.00000000000E+00 -0.15518817930E+03  0.15518817930E+03  0.00000000000E+00 0. -1.
         25    2    1    2    0    0  0.28321740912E+02  0.13594606694E+02 -0.66461625472E+02  0.14509098824E+03  0.12508921963E+03 0.  0.
          5    1    3    3  502    0  0.74666916644E+02 -0.56415157724E+01 -0.22637932747E+02  0.78338518880E+02  0.41800000000E+01 0.  1.
         -5    1    3    3    0  502 -0.46345175732E+02  0.19236122466E+02 -0.43823692724E+02  0.66752469356E+02  0.41800000000E+01 0.  1.
        -11    1    1    2    0    0 -0.37230637991E+02 -0.46218139318E+02  0.10082769773E+02  0.60198829337E+02  0.00000000000E+00 0. -1.
         11    1    1    2    0    0  0.89088970788E+01  0.32623532624E+02 -0.12613772069E+02  0.36093913252E+02  0.00000000000E+00 0.  1.
</event>
<event>
 7    1  0.2394257E-009  0.1189532E+03  0.7561462E-02  0.1244834E+00
          1   -1    0    0  501    0  0.00000000000E+00  0.00000000000E+00  0.24792046505E+03  0.24792046505E+03  0.00000000000E+00 0. -1.
         -1   -1    0    0    0  501 -0.00000000000E+00 -0.00000000000E+00 -0.65375343334E+02  0.65375343334E+02  0.00000000000E+00 0.  1.
         25    2    1    2    0    0  0.22311275433E+02 -0.61498727654E+02  0.10610137953E+03  0.17659240562E+03  0.12508992154E+03 0.  0.
          5    1    3    3  502    0  0.66827906337E+02 -0.67737055651E+02  0.63148279312E+02  0.11427797405E+03  0.41800000000E+01 0.  1.
         -5    1    3    3    0  502 -0.44516630904E+02  0.62383279972E+01  0.42953100217E+02  0.62314431567E+02  0.41800000000E+01 0.  1.
        -11    1    1    2    0    0 -0.42010478202E+02  0.65110890094E+02  0.24875198739E+02  0.81382331005E+02  0.00000000000E+00 0.  1.
         11    1    1    2    0    0  0.19699202768E+02 -0.36121624400E+01  0.51568543444E+02  0.55321071755E+02  0.00000000000E+00 0. -1.
</event>
<event>
 7    1  0.2394257E-009  0.9120758E+02  0.7561462E-02  0.1299953E+00
          1   -1    0    0  501    0  0.00000000000E+00  0.00000000000E+00  0.72087382697E+03  0.72087382697E+03  0.00000000000E+00 0. -1.
         -1   -1    0    0    0  501 -0.00000000000E+00 -0.00000000000E+00 -0.23633776919E+02  0.23633776919E+02  0.00000000000E+00 0.  1.
         25    2    1    2    0    0 -0.69016485261E+02  0.12967837306E+02  0.44631542432E+03  0.46880379248E+03  0.12509235716E+03 0.  0.
          5    1    3    3  502    0  0.15967636258E+01  0.15710641866E+02  0.34399332318E+03  0.34438097031E+03  0.41800000000E+01 0.  1.
         -5    1    3    3    0  502 -0.70613248886E+02 -0.27428045604E+01  0.10232210114E+03  0.12442282217E+03  0.41800000000E+01 0.  1.
        -11    1    1    2    0    0 -0.11909505965E+02 -0.77220316755E+01  0.25446659443E+01  0.14420174420E+02  0.00000000000E+00 0.  1.
         11    1    1    2    0    0  0.80925991226E+02 -0.52458056301E+01  0.24837995979E+03  0.26128363699E+03  0.00000000000E+00 0. -1.
</event>
<event>
 7    1  0.2394257E-009  0.2225849E+03  0.7561462E-02  0.1131970E+00
         -2   -1    0    0    0  501 -0.00000000000E+00  0.00000000000E+00  0.60533055117E+02  0.60533055117E+02  0.00000000000E+00 0.  1.
          2   -1    0    0  501    0  0.00000000000E+00 -0.00000000000E+00 -0.11650795935E+04  0.11650795935E+04  0.00000000000E+00 0. -1.
         25    2    1    2    0    0  0.15784476197E+03 -0.14546856060E+03 -0.30824337736E+03  0.39590050264E+03  0.12508859780E+03 0.  0.
          5    1    3    3  502    0  0.13043780538E+03 -0.12577488885E+03 -0.15365096539E+03  0.23761194268E+03  0.41800000000E+01 0. -1.
         -5    1    3    3    0  502  0.27406956586E+02 -0.19693671751E+02 -0.15459241197E+03  0.15828855996E+03  0.41800000000E+01 0. -1.
        -11    1    1    2    0    0 -0.12207536961E+03  0.15050930661E+03 -0.71397347783E+03  0.73980644380E+03  0.00000000000E+00 0.  1.
         11    1    1    2    0    0 -0.35769392356E+02 -0.50407460065E+01 -0.82329683190E+02  0.89905702178E+02  0.00000000000E+00 0. -1.
</event>
<event>
 7    1  0.2394257E-009  0.2386238E+03  0.7561462E-02  0.1120713E+00
          1   -1    0    0  501    0  0.00000000000E+00  0.00000000000E+00  0.50206872639E+03  0.50206872639E+03  0.00000000000E+00 0. -1.
         -1   -1    0    0    0  501 -0.00000000000E+00 -0.00000000000E+00 -0.12338319498E+03  0.12338319498E+03  0.00000000000E+00 0.  1.
         25    2    1    2    0    0  0.33411487911E+02  0.22132518303E+03  0.20097139332E+03  0.32578264373E+03  0.12507464112E+03 0.  0.
          5    1    3    3  502    0 -0.23651317369E+02  0.18293746682E+03  0.12308628323E+03  0.22179541722E+03  0.41800000000E+01 0.  1.
         -5    1    3    3    0  502  0.57062805280E+02  0.38387716210E+02  0.77885110092E+02  0.10398722651E+03  0.41800000000E+01 0.  1.
        -11    1    1    2    0    0 -0.17561602185E+02 -0.11038211117E+03  0.32814725290E+02  0.11648788149E+03  0.00000000000E+00 0.  1.
         11    1    1    2    0    0 -0.15849885726E+02 -0.11094307186E+03  0.14489941280E+03  0.18318139616E+03  0.00000000000E+00 0. -1.
</event>
<event>
 7    1  0.2394257E-009  0.2532507E+03  0.7561462E-02  0.1111267E+00
          1   -1    0    0  501    0  0.00000000000E+00  0.00000000000E+00  0.82517774307E+03  0.82517774307E+03  0.00000000000E+00 0. -1.
         -1   -1    0    0    0  501 -0.00000000000E+00 -0.00000000000E+00 -0.94381734638E+02  0.94381734638E+02  0.00000000000E+00 0.  1.
         25    2    1    2    0    0 -0.17711071433E+03  0.17568848370E+03  0.26966139762E+03  0.38807094007E+03  0.12508851558E+03 0.  0.
          5    1    3    3  502    0 -0.72174751817E+02  0.10626419419E+03  0.21572906601E+03  0.25111307431E+03  0.41800000000E+01 0.  1.
         -5    1    3    3    0  502 -0.10493596251E+03  0.69424289512E+02  0.53932331603E+02  0.13695786576E+03  0.41800000000E+01 0.  1.
        -11    1    1    2    0    0  0.79198798995E+02 -0.10405307938E+03  0.31812193318E+03  0.34394920767E+03  0.00000000000E+00 0.  1.
         11    1    1    2    0    0  0.97911915332E+02 -0.71635404324E+02  0.14301267763E+03  0.18753932996E+03  0.00000000000E+00 0. -1.
</event>
<event>
 7    1  0.2394257E-009  0.4074876E+02  0.7561462E-02  0.1502773E+00
         -2   -1    0    0    0  501 -0.00000000000E+00  0.00000000000E+00  0.51751648472E+02  0.51751648472E+02  0.00000000000E+00 0.  1.
          2   -1    0    0  501    0  0.00000000000E+00 -0.00000000000E+00 -0.38708538734E+03  0.38708538734E+03  0.00000000000E+00 0. -1.
         25    2    1    2    0    0 -0.18425061854E+02  0.62426356075E+01 -0.31836993957E+03  0.34262021726E+03  0.12510292343E+03 0.  0.
          5    1    3    3  502    0 -0.70549887978E+01  0.98975757585E+01  0.85617218819E+01  0.15443780444E+02  0.41800000000E+01 0.  1.
         -5    1    3    3    0  502 -0.11370073056E+02 -0.36549401510E+01 -0.32693166145E+03  0.32717643681E+03  0.41800000000E+01 0.  1.
        -11    1    1    2    0    0  0.31296630976E+02  0.12123964206E+02  0.29460654845E+02  0.44658703546E+02  0.00000000000E+00 0.  1.
         11    1    1    2    0    0 -0.12871569123E+02 -0.18366599814E+02 -0.46424454150E+02  0.51558115011E+02  0.00000000000E+00 0. -1.
</event>
<event>
 7    1  0.2394257E-009  0.1097861E+03  0.7561462E-02  0.1260967E+00
         -2   -1    0    0    0  501 -0.00000000000E+00  0.00000000000E+00  0.36522536735E+02  0.36522536735E+02  0.00000000000E+00 0.  1.
          2   -1    0    0  501    0  0.00000000000E+00 -0.00000000000E+00 -0.41985311216E+03  0.41985311216E+03  0.00000000000E+00 0. -1.
         25    2    1    2    0    0 -0.36999713927E+02  0.39847048569E+02 -0.26651895452E+03  0.29938687724E+03  0.12507351052E+03 0.  0.
          5    1    3    3  502    0  0.27001485563E+01  0.66789920573E+02 -0.22824841686E+03  0.23787180684E+03  0.41800000000E+01 0. -1.
         -5    1    3    3    0  502 -0.39699862483E+02 -0.26942872004E+02 -0.38270537665E+02  0.61515070398E+02  0.41800000000E+01 0. -1.
        -11    1    1    2    0    0  0.58826557660E+02 -0.52807173378E+02 -0.94384550270E+02  0.12311622467E+03  0.00000000000E+00 0.  1.
         11    1    1    2    0    0 -0.21826843733E+02  0.12960124809E+02 -0.22427070636E+02  0.33872546992E+02  0.00000000000E+00 0. -1.
</event>
<event>
 7    1  0.2394257E-009  0.8879197E+02  0.7561462E-02  0.1305804E+00
         -3   -1    0    0    0  501 -0.00000000000E+00  0.00000000000E+00  0.22869228469E+02  0.22869228469E+02  0.00000000000E+00 0.  1.
          3   -1    0    0  501    0  0.00000000000E+00 -0.00000000000E+00 -0.58951399276E+03  0.58951399276E+03  0.00000000000E+00 0. -1.
         25    2    1    2    0    0 -0.26046879137E+02  0.83066291461E+01 -0.42046899518E+03  0.43953331804E+03  0.12509165345E+03 0.  0.
          5    1    3    3  502    0 -0.30802576642E+02 -0.40430873043E+02 -0.34954085433E+03  0.35324175216E+03  0.41800000000E+01 0.  1.
         -5    1    3    3    0  502  0.47556975045E+01  0.48737502189E+02 -0.70928140848E+02  0.86291565883E+02  0.41800000000E+01 0.  1.
        -11    1    1    2    0    0  0.18878215196E+02  0.31644825355E+02 -0.23671401356E+02  0.43796315175E+02  0.00000000000E+00 0.  1.
         11    1    1    2    0    0  0.71686639412E+01 -0.39951454501E+02 -0.12250436776E+03  0.12905358801E+03  0.00000000000E+00 0. -1.
</event>
<event>
 7    1  0.2394257E-009  0.1373420E+03  0.7561462E-02  0.1216951E+00
          2   -1    0    0  501    0  0.00000000000E+00  0.00000000000E+00  0.21098456330E+03  0.21098456330E+03  0.00000000000E+00 0. -1.
         -2   -1    0    0    0  501 -0.00000000000E+00 -0.00000000000E+00 -0.13147558295E+03  0.13147558295E+03  0.00000000000E+00 0.  1.
         25    2    1    2    0    0 -0.50537606512E+02  0.86183858717E+02 -0.36696679191E+02  0.16424023375E+03  0.12508597421E+03 0.  0.
          5    1    3    3  502    0  0.39371986902E+02  0.38203129725E+02 -0.28373247257E+02  0.61904329681E+02  0.41800000000E+01 0.  1.
         -5    1    3    3    0  502 -0.89909593414E+02  0.47980728992E+02 -0.83234319336E+01  0.10233590407E+03  0.41800000000E+01 0.  1.
        -11    1    1    2    0    0  0.12275620573E+02 -0.77456611632E+02  0.30847178047E+02  0.84271976003E+02  0.00000000000E+00 0.  1.
         11    1    1    2    0    0  0.38261985939E+02 -0.87272470845E+01  0.85358481493E+02  0.93947936499E+02  0.00000000000E+00 0. -1.
</event>
<event>
 7    1  0.2394257E-009  0.1953943E+03  0.7561462E-02  0.1153684E+00
          2   -1    0    0  501    0  0.00000000000E+00  0.00000000000E+00  0.41953628538E+03  0.41953628538E+03  0.00000000000E+00 0. -1.
         -2   -1    0    0    0  501 -0.00000000000E+00 -0.00000000000E+00 -0.13918227666E+03  0.13918227666E+03  0.00000000000E+00 0.  1.
         25    2    1    2    0    0  0.98481236849E+02 -0.14860783771E+03  0.29554508706E+03  0.36712047788E+03  0.12509078045E+03 0.  0.
          5    1    3    3  502    0  0.22199678482E+02 -0.12966682112E+03  0.22863919035E+03  0.26381747855E+03  0.41800000000E+01 0.  1.
         -5    1    3    3    0  502  0.76281558367E+02 -0.18941016587E+02  0.66905896713E+02  0.10330299933E+03  0.41800000000E+01 0.  1.
        -11    1    1    2    0    0 -0.76560358638E+02  0.91595741156E+02 -0.39665720301E+02  0.12579601615E+03  0.00000000000E+00 0.  1.
         11    1    1    2    0    0 -0.21920878211E+02  0.57012096550E+02  0.24474641960E+02  0.65802068004E+02  0.00000000000E+00 0. -1.
</event>
<event>
 7    1  0.2394257E-009  0.1098359E+03  0.7561462E-02  0.1260874E+00
          1   -1    0    0  501    0  0.00000000000E+00  0.00000000000E+00  0.15576711202E+04  0.15576711202E+04  0.00000000000E+00 0. -1.
         -1   -1    0    0    0  501 -0.00000000000E+00 -0.00000000000E+00 -0.96797716010E+01  0.96797716010E+01  0.00000000000E+00 0.  1.
         25    2    1    2    0    0  0.96282110084E+01  0.13216956378E+02  0.12091863909E+04  0.12157497555E+04  0.12509336406E+03 0.  0.
          5    1    3    3  502    0 -0.35566530352E+02 -0.41430955540E+02  0.48153361093E+03  0.48463758935E+03  0.41800000000E+01 0.  1.
         -5    1    3    3    0  502  0.45194741360E+02  0.54647911918E+02  0.72765277994E+03  0.73111216614E+03  0.41800000000E+01 0.  1.
        -11    1    1    2    0    0 -0.19356283923E+02  0.37515146294E+02  0.16130148610E+03  0.16673398378E+03  0.00000000000E+00 0.  1.
         11    1    1    2    0    0  0.97280729142E+01 -0.50732102671E+02  0.17750347164E+03  0.18486715254E+03  0.00000000000E+00 0. -1.
</event>
<event>
 7    1  0.2394257E-009  0.1727963E+03  0.7561462E-02  0.1174963E+00
         -1   -1    0    0    0  501 -0.00000000000E+00  0.00000000000E+00  0.51782182779E+02  0.51782182779E+02  0.00000000000E+00 0.  1.
          1   -1    0    0  501    0  0.00000000000E+00 -0.00000000000E+00 -0.80257926668E+03  0.80257926668E+03  0.00000000000E+00 0. -1.
         25    2    1    2    0    0 -0.13711456252E+01  0.15834332874E+03 -0.24793160457E+03  0.31967476581E+03  0.12508951017E+03 0.  0.
          5    1    3    3  502    0 -0.12344079792E+02 -0.77189674715E+01 -0.86378092709E+02  0.87696100625E+02  0.41800000000E+01 0. -1.
         -5    1    3    3    0  502  0.10972934167E+02  0.16606229621E+03 -0.16155351186E+03  0.23197866519E+03  0.41800000000E+01 0. -1.
        -11    1    1    2    0    0 -0.19474715996E+02 -0.10309769545E+03 -0.19724607388E+03  0.22341533750E+03  0.00000000000E+00 0.  1.
         11    1    1    2    0    0  0.20845861621E+02 -0.55245633289E+02 -0.30561940545E+03  0.31127134614E+03  0.00000000000E+00 0. -1.
</event>
<event>
 7    1  0.2394257E-009  0.2969061E+03  0.7561462E-02  0.1086798E+00
          1   -1    0    0  501    0  0.00000000000E+00  0.00000000000E+00  0.11009665507E+04  0.11009665507E+04  0.00000000000E+00 0. -1.
         -1   -1    0    0    0  501 -0.00000000000E+00 -0.00000000000E+00 -0.87882985060E+02  0.87882985060E+02  0.00000000000E+00 0.  1.
         25    2    1    2    0    0  0.28267474208E+03  0.19901221477E+02  0.38764343837E+03  0.49620070241E+03  0.12508650341E+03 0.  0.
          5    1    3    3  502    0  0.27282518996E+03  0.44159012223E+02  0.31611310359E+03  0.41991495484E+03  0.41800000000E+01 0.  1.
         -5    1    3    3    0  502  0.98495521217E+01 -0.24257790746E+02  0.71530334781E+02  0.76285747573E+02  0.41800000000E+01 0.  1.
        -11    1    1    2    0    0 -0.68827043459E+02  0.23416076079E+02  0.99370737122E+02  0.12312602457E+03  0.00000000000E+00 0.  1.
         11    1    1    2    0    0 -0.21384769862E+03 -0.43317297555E+02  0.52606939020E+03  0.56952280883E+03  0.00000000000E+00 0. -1.
</event>
<event>
 7    1  0.2394257E-009  0.1231365E+03  0.7561462E-02  0.1238011E+00
          2   -1    0    0  501    0  0.00000000000E+00  0.00000000000E+00  0.49705271832E+03  0.49705271832E+03  0.00000000000E+00 0. -1.
         -2   -1    0    0    0  501 -0.00000000000E+00 -0.00000000000E+00 -0.44121882308E+02  0.44121882308E+02  0.00000000000E+00 0.  1.
         25    2    1    2    0    0  0.36867254318E+02 -0.72951459321E+02  0.34117676391E+03  0.37246425948E+03  0.12508769125E+03 0.  0.
          5    1    3    3  502    0 -0.33606280871E+02 -0.61461846917E+02  0.11002158218E+03  0.13049583015E+03  0.41800000000E+01 0.  1.
         -5    1    3    3    0  502  0.70473535189E+02 -0.11489612404E+02  0.23115518173E+03  0.24196842934E+03  0.41800000000E+01 0.  1.
        -11    1    1    2    0    0 -0.54289039769E+02  0.40468614884E+02  0.21219257477E+02  0.70959604829E+02  0.00000000000E+00 0.  1.
         11    1    1    2    0    0  0.17421785450E+02  0.32482844436E+02  0.90534814629E+02  0.97750736319E+02  0.00000000000E+00 0. -1.
</event>
<event>
 7    1  0.2394257E-009  0.1082292E+03  0.7561462E-02  0.1263885E+00
          1   -1    0    0  501    0  0.00000000000E+00  0.00000000000E+00  0.37894770999E+02  0.37894770999E+02  0.00000000000E+00 0. -1.
         -1   -1    0    0    0  501 -0.00000000000E+00 -0.00000000000E+00 -0.41896286202E+03  0.41896286202E+03  0.00000000000E+00 0.  1.
         25    2    1    2    0    0 -0.50943857795E+02  0.49639264455E+02 -0.24274549104E+03  0.28219215428E+03  0.12509078820E+03 0.  0.
          5    1    3    3  502    0  0.19371704134E+02 -0.30690606734E+02 -0.51760713924E+02  0.63354717020E+02  0.41800000000E+01 0. -1.
         -5    1    3    3    0  502 -0.70315561929E+02  0.80329871188E+02 -0.19098477712E+03  0.21883743726E+03  0.41800000000E+01 0. -1.
        -11    1    1    2    0    0  0.28293465464E+02 -0.38680778267E+02 -0.14141431088E+03  0.14931419932E+03  0.00000000000E+00 0.  1.
         11    1    1    2    0    0  0.22650392331E+02 -0.10958486188E+02  0.30917109006E+01  0.25351279427E+02  0.00000000000E+00 0. -1.
</event>
<event>
 7    1  0.2394257E-009  0.9614518E+02  0.7561462E-02  0.1288617E+00
          2   -1    0    0  501    0  0.00000000000E+00  0.00000000000E+00  0.33708609408E+02  0.33708609408E+02  0.00000000000E+00 0. -1.
         -2   -1    0    0    0  501 -0.00000000000E+00 -0.00000000000E+00 -0.65066567054E+03  0.65066567054E+03  0.00000000000E+00 0.  1.
         25    2    1    2    0    0 -0.64133566998E+02 -0.22630693219E+02 -0.49994039761E+03  0.51982413267E+03  0.12510581545E+03 0.  0.
          5    1    3    3  502    0 -0.24580287919E+02 -0.26819444837E+02 -0.46580931254E+03  0.46724646732E+03  0.41800000000E+01 0.  1.
         -5    1    3    3    0  502 -0.39553279078E+02  0.41887516179E+01 -0.34131085067E+02  0.52577665351E+02  0.41800000000E+01 0.  1.
        -11    1    1    2    0    0  0.88781399667E+02  0.18445856700E+02 -0.90801614778E+02  0.12832505524E+03  0.00000000000E+00 0.  1.
         11    1    1    2    0    0 -0.24647832669E+02  0.41848365194E+01 -0.26215048742E+02  0.36225092029E+02  0.00000000000E+00 0. -1.
</event>
<event>
 7    1  0.2394257E-009  0.1005528E+03  0.7561462E-02  0.1279138E+00
         -2   -1    0    0    0  501 -0.00000000000E+00  0.00000000000E+00  0.54870227794E+03  0.54870227794E+03  0.00000000000E+00 0.  1.
          2   -1    0    0  501    0  0.00000000000E+00 -0.00000000000E+00 -0.22925682834E+02  0.22925682834E+02  0.00000000000E+00 0. -1.
         25    2    1    2    0    0  0.26787126218E+02 -0.36849856944E+02  0.34077809154E+03  0.36585904571E+03  0.12509065340E+03 0.  0.
          5    1    3    3  502    0  0.66528172644E+02  0.97393149499E+01  0.13129930053E+03  0.14757313688E+03  0.41800000000E+01 0. -1.
         -5    1    3    3    0  502 -0.39741046427E+02 -0.46589171894E+02  0.20947879101E+03  0.21828590883E+03  0.41800000000E+01 0. -1.
        -11    1    1    2    0    0 -0.73455202866E+01  0.48924898155E+02  0.55862293197E+02  0.74620360016E+02  0.00000000000E+00 0. -1.
         11    1    1    2    0    0 -0.19441605931E+02 -0.12075041211E+02  0.12913621037E+03  0.13114855504E+03  0.00000000000E+00 0.  1.
</event>
<event>
 7    1  0.2394257E-009  0.1484342E+03  0.7561462E-02  0.1202410E+00
          2   -1    0    0  501    0  0.00000000000E+00  0.00000000000E+00  0.18342260154E+03  0.18342260154E+03  0.00000000000E+00 0. -1.
         -2   -1    0    0    0  501 -0.00000000000E+00 -0.00000000000E+00 -0.12174322652E+03  0.12174322652E+03  0.00000000000E+00 0.  1.
         25    2    1    2    0    0  0.53345748334E+02  0.87605267974E+02  0.36230406188E+02  0.16576790909E+03  0.12508359409E+03 0.  0.
          5    1    3    3  502    0  0.85716545203E+02  0.95130673456E+02  0.31545010824E+02  0.13194594068E+03  0.41800000000E+01 0. -1.
         -5    1    3    3    0  502 -0.32370796869E+02 -0.75254054818E+01  0.46853953633E+01  0.33821968412E+02  0.41800000000E+01 0. -1.
        -11    1    1    2    0    0 -0.78151580894E+02 -0.64048427699E+02  0.28683818373E+02  0.10503633716E+03  0.00000000000E+00 0. -1.
         11    1    1    2    0    0  0.24805832559E+02 -0.23556840276E+02 -0.32348495452E+01  0.34361581808E+02  0.00000000000E+00 0.  1.
</event>
<event>
 7    1  0.2394257E-009  0.1440343E+03  0.7561462E-02  0.1208001E+00
          1   -1    0    0  501    0  0.00000000000E+00  0.00000000000E+00  0.12019322316E+04  0.12019322316E+04  0.00000000000E+00 0. -1.
         -1   -1    0    0    0  501 -0.00000000000E+00 -0.00000000000E+00 -0.25275582187E+02  0.25275582187E+02  0.00000000000E+00 0.  1.
         25    2    1    2    0    0 -0.11332753955E+03 -0.20675131468E+02  0.86796482554E+03  0.88446608284E+03  0.12508685400E+03 0.  0.
          5    1    3    3  502    0 -0.13164033286E+03  0.98097781667E+01  0.73459916594E+03  0.74637712718E+03  0.41800000000E+01 0.  1.
         -5    1    3    3    0  502  0.18312793313E+02 -0.30484909635E+02  0.13336565960E+03  0.13808895566E+03  0.41800000000E+01 0.  1.
        -11    1    1    2    0    0  0.85968866081E+02  0.11862466250E+00  0.29252178648E+03  0.30489285917E+03  0.00000000000E+00 0. -1.
         11    1    1    2    0    0  0.27358673469E+02  0.20556506806E+02  0.16170037408E+02  0.37848871790E+02  0.00000000000E+00 0.  1.
</event>
<event>
 7    1  0.2394257E-009  0.9062745E+02  0.7561462E-02  0.1301339E+00
         -2   -1    0    0    0  501 -0.00000000000E+00  0.00000000000E+00  0.57608592269E+02  0.57608592269E+02  0.00000000000E+00 0.  1.
          2   -1    0    0  501    0  0.00000000000E+00 -0.00000000000E+00 -0.37218292118E+03  0.37218292118E+03  0.00000000000E+00 0. -1.
         25    2    1    2    0    0  0.66294275130E+02 -0.25958014407E+02 -0.75288260221E+02  0.16242397800E+03  0.12507788403E+03 0.  0.
          5    1    3    3  502    0  0.46197536573E+02  0.10613976477E+02  0.24976369466E+02  0.53741606915E+02  0.41800000000E+01 0. -1.
         -5    1    3    3    0  502  0.20096738557E+02 -0.36571990884E+02 -0.10026462969E+03  0.10868237108E+03  0.41800000000E+01 0. -1.
        -11    1    1    2    0    0 -0.50442347127E+02 -0.10901913445E+02 -0.43447523728E+02  0.67460873242E+02  0.00000000000E+00 0.  1.
         11    1    1    2    0    0 -0.15851928003E+02  0.36859927852E+02 -0.19583854497E+03  0.19990666221E+03  0.00000000000E+00 0. -1.
</event>
<event>
 7    1  0.2394257E-009  0.9969612E+02  0.7561462E-02  0.1280936E+00
         -2   -1    0    0    0  501 -0.00000000000E+00  0.00000000000E+00  0.97362768373E+02  0.97362768373E+02  0.00000000000E+00 0.  1.
          2   -1    0    0  501    0  0.00000000000E+00 -0.00000000000E+00 -0.13929859689E+03  0.13929859689E+03  0.00000000000E+00 0. -1.
         25    2    1    2    0    0 -0.21031798433E+02  0.23563091962E+02  0.33787361274E+01  0.12906095499E+03  0.12509100047E+03 0.  0.
          5    1    3    3  502    0  0.43282456066E+02  0.35003332687E+02  0.23520561700E+02  0.60574693767E+02  0.41800000000E+01 0.  1.
         -5    1    3    3    0  502 -0.64314254498E+02 -0.11440240725E+02 -0.20141825572E+02  0.68486261228E+02  0.41800000000E+01 0.  1.
        -11    1    1    2    0    0  0.32345176095E+02  0.16621653189E+02  0.10545410312E+02  0.37864171059E+02  0.00000000000E+00 0.  1.
         11    1    1    2    0    0 -0.11313377662E+02 -0.40184745151E+02 -0.55859974957E+02  0.69736239210E+02  0.00000000000E+00 0. -1.
</event>
<event>
 7    1  0.2394257E-009  0.8774505E+02  0.7561462E-02  0.1308406E+00
          1   -1    0    0  501    0  0.00000000000E+00  0.00000000000E+00  0.40588736857E+03  0.40588736857E+03  0.00000000000E+00 0. -1.
         -1   -1    0    0    0  501 -0.00000000000E+00 -0.00000000000E+00 -0.36458418905E+02  0.36458418905E+02  0.00000000000E+00 0.  1.
         25    2    1    2    0    0  0.45156105012E+01  0.49917790546E+02  0.16010356452E+03  0.20926642478E+03  0.12508840321E+03 0.  0.
          5    1    3    3  502    0  0.40738441612E+01 -0.25277573130E+02 -0.62272152376E+01  0.26679627419E+02  0.41800000000E+01 0.  1.
         -5    1    3    3    0  502  0.44176634002E+00  0.75195363677E+02  0.16633077975E+03  0.18258679736E+03  0.41800000000E+01 0.  1.
        -11    1    1    2    0    0  0.23945028744E+02 -0.11885939079E+02  0.10603356880E+02  0.28758844317E+02  0.00000000000E+00 0.  1.
         11    1    1    2    0    0 -0.28460639245E+02 -0.38031851468E+02  0.19872202826E+03  0.20432051838E+03  0.00000000000E+00 0. -1.
</event>
<event>
 7    1  0.3512621E-009  0.9638294E+02  0.7561462E-02  0.1288091E+00
         -1   -1    0    0    0  501 -0.00000000000E+00  0.00000000000E+00  0.65710998460E+02  0.65710998460E+02  0.00000000000E+00 0.  1.
          1   -1    0    0  501    0  0.00000000000E+00 -0.00000000000E+00 -0.26750008934E+03  0.26750008934E+03  0.00000000000E+00 0. -1.
         25    2    1    2    0    0 -0.45919396520E+02  0.20321288865E+02 -0.39236803798E+02  0.14038833623E+03  0.12509121640E+03 0.  0.
          5    1    3    3  502    0 -0.20662411579E+02 -0.52965905156E+02 -0.19966290879E+02  0.60402380191E+02  0.41800000000E+01 0. -1.
         -5    1    3    3    0  502 -0.25256984940E+02  0.73287194021E+02 -0.19270512918E+02  0.79985956041E+02  0.41800000000E+01 0. -1.
        -11    1    1    2    0    0  0.16346112692E+02  0.70791828340E+01  0.65513252835E+01  0.18979728468E+02  0.00000000000E+00 0.  1.
         11    1    1    2    0    0  0.29573283828E+02 -0.27400471699E+02 -0.16910361237E+03  0.17384302310E+03  0.00000000000E+00 0. -1.
</event>
<event>
 7    1  0.2394257E-009  0.1136524E+03  0.7561462E-02  0.1253952E+00
         -2   -1    0    0    0  501 -0.00000000000E+00  0.00000000000E+00  0.24714755707E+02  0.24714755707E+02  0.00000000000E+00 0.  1.
          2   -1    0    0  501    0  0.00000000000E+00 -0.00000000000E+00 -0.69372641145E+03  0.69372641145E+03  0.00000000000E+00 0. -1.
         25    2    1    2    0    0  0.60354440803E+02  0.43335204103E+02 -0.36358734651E+03  0.39161678891E+03  0.12508937754E+03 0.  0.
          5    1    3    3  502    0  0.16997135830E+02  0.75948507728E+02 -0.28877660796E+03  0.29910947855E+03  0.41800000000E+01 0. -1.
         -5    1    3    3    0  502  0.43357304973E+02 -0.32613303625E+02 -0.74810738552E+02  0.92507310363E+02  0.41800000000E+01 0. -1.
        -11    1    1    2    0    0 -0.13345003545E+02 -0.45969697317E+02 -0.59162109280E+02  0.76101625249E+02  0.00000000000E+00 0.  1.
         11    1    1    2    0    0 -0.47009437257E+02  0.26344932140E+01 -0.24626219995E+03  0.25072275300E+03  0.00000000000E+00 0. -1.
</event>
<event>
 7    1  0.2394257E-009  0.1144358E+03  0.7561462E-02  0.1252569E+00
          1   -1    0    0  501    0  0.00000000000E+00  0.00000000000E+00  0.60046963554E+03  0.60046963554E+03  0.00000000000E+00 0. -1.
         -1   -1    0    0    0  501 -0.00000000000E+00 -0.00000000000E+00 -0.32976348743E+02  0.32976348743E+02  0.00000000000E+00 0.  1.
         25    2    1    2    0    0  0.14028722660E+02 -0.90734756683E+02  0.31256146402E+03  0.34895712427E+03  0.12508718825E+03 0.  0.
          5    1    3    3  502    0 -0.21575961268E+02 -0.33519354828E+02  0.26084875761E+03  0.26391024231E+03  0.41800000000E+01 0. -1.
         -5    1    3    3    0  502  0.35604683927E+02 -0.57215401855E+02  0.51712706407E+02  0.85046881959E+02  0.41800000000E+01 0. -1.
        -11    1    1    2    0    0 -0.43498135144E+02  0.77701596330E+02  0.21794170971E+03  0.23543197460E+03  0.00000000000E+00 0. -1.
         11    1    1    2    0    0  0.29469412485E+02  0.13033160353E+02  0.36990113072E+02  0.49056885410E+02  0.00000000000E+00 0.  1.
</event>
<event>
 7    1  0.2394257E-009  0.2387496E+03  0.7561462E-02  0.1120629E+00
         -1   -1    0    0    0  501 -0.00000000000E+00  0.00000000000E+00  0.77813512913E+02  0.77813512913E+02  0.00000000000E+00 0.  1.
          1   -1    0    0  501    0  0.00000000000E+00 -0.00000000000E+00 -0.80559424612E+03  0.80559424612E+03  0.00000000000E+00 0. -1.
         25    2    1    2    0    0 -0.13388127362E+03  0.17171478247E+03 -0.26246434743E+03  0.36324421053E+03  0.12509460768E+03 0.  0.
          5    1    3    3  502    0  0.74815486789E+00 -0.14974802944E+02 -0.21059129402E+01  0.15707059822E+02  0.41800000000E+01 0. -1.
         -5    1    3    3    0  502 -0.13462942849E+03  0.18668958541E+03 -0.26035843448E+03  0.34753715071E+03  0.41800000000E+01 0. -1.
        -11    1    1    2    0    0 -0.32935745671E+01 -0.44564012402E+02 -0.74032399711E+02  0.86473088540E+02  0.00000000000E+00 0.  1.
         11    1    1    2    0    0  0.13717484819E+03 -0.12715077007E+03 -0.39128398607E+03  0.43369045996E+03  0.00000000000E+00 0. -1.
</event>
<event>
 7    1  0.2394257E-009  0.1012473E+03  0.7561462E-02  0.1277695E+00
          2   -1    0    0  501    0  0.00000000000E+00  0.00000000000E+00  0.51435996986E+02  0.51435996986E+02  0.00000000000E+00 0. -1.
         -2   -1    0    0    0  501 -0.00000000000E+00 -0.00000000000E+00 -0.28980708892E+03  0.28980708892E+03  0.00000000000E+00 0.  1.
         25    2    1    2    0    0  0.53254627933E+02  0.13888414766E+01 -0.14220967574E+03  0.19674635579E+03  0.12509017694E+03 0.  0.
          5    1    3    3  502    0  0.80966097053E+02  0.26500497520E+02 -0.13300866398E+03  0.15800810845E+03  0.41800000000E+01 0. -1.
         -5    1    3    3    0  502 -0.27711469120E+02 -0.25111656044E+02 -0.92010117601E+01  0.38738247346E+02  0.41800000000E+01 0. -1.
        -11    1    1    2    0    0 -0.80983976334E+01 -0.26632480227E+02 -0.87781196048E+02  0.92089149344E+02  0.00000000000E+00 0.  1.
         11    1    1    2    0    0 -0.45156230299E+02  0.25243638750E+02 -0.83802201419E+01  0.52407580767E+02  0.00000000000E+00 0. -1.
</event>
<event>
 7    1  0.2394257E-009  0.8019180E+02  0.7561462E-02  0.1328508E+00
          2   -1    0    0  501    0  0.00000000000E+00  0.00000000000E+00  0.39612594621E+02  0.39612594621E+02  0.00000000000E+00 0. -1.
         -2   -1    0    0    0  501 -0.00000000000E+00 -0.00000000000E+00 -0.34966399746E+03  0.34966399746E+03  0.00000000000E+00 0.  1.
         25    2    1    2    0    0 -0.32152509185E+02  0.18776466548E+02 -0.20003571587E+03  0.23884826388E+03  0.12509143053E+03 0.  0.
          5    1    3    3  502    0 -0.68970857792E+02 -0.16251455693E+02 -0.15632874232E+03  0.17168936225E+03  0.41800000000E+01 0. -1.
         -5    1    3    3    0  502  0.36818348607E+02  0.35027922241E+02 -0.43706973556E+02  0.67158901629E+02  0.41800000000E+01 0. -1.
        -11    1    1    2    0    0  0.11018081997E+02 -0.11823864322E+02  0.15834912134E+02  0.22626231252E+02  0.00000000000E+00 0. -1.
         11    1    1    2    0    0  0.21134427188E+02 -0.69526022266E+01 -0.12585059910E+03  0.12780209695E+03  0.00000000000E+00 0.  1.
</event>
<event>
 7    1  0.2394257E-009  0.1182316E+03  0.7561462E-02  0.1246043E+00
          1   -1    0    0  501    0  0.00000000000E+00  0.00000000000E+00  0.87491280203E+03  0.87491280203E+03  0.00000000000E+00 0. -1.
         -1   -1    0    0    0  501 -0.00000000000E+00 -0.00000000000E+00 -0.16223680644E+02  0.16223680644E+02  0.00000000000E+00 0.  1.
         25    2    1    2    0    0 -0.43342588691E+02  0.31179863457E+02  0.45601372174E+03  0.47586386836E+03  0.12508854029E+03 0.  0.
          5    1    3    3  502    0 -0.78435698453E+02 -0.12656627355E+02  0.25637304232E+03  0.26843427172E+03  0.41800000000E+01 0. -1.
         -5    1    3    3    0  502  0.35093109761E+02  0.43836490812E+02  0.19964067943E+03  0.20742959664E+03  0.41800000000E+01 0. -1.
        -11    1    1    2    0    0  0.47333580446E+02  0.18451678902E+02  0.17553549233E+03  0.18273927153E+03  0.00000000000E+00 0.  1.
         11    1    1    2    0    0 -0.39909917551E+01 -0.49631542360E+02  0.22713990731E+03  0.23253334278E+03  0.00000000000E+00 0. -1.
</event>
<event>
 7    1  0.2394257E-009  0.9591968E+02  0.7561462E-02  0.1289118E+00
         -2   -1    0    0    0  501 -0.00000000000E+00  0.00000000000E+00  0.13474466050E+03  0.13474466050E+03  0.00000000000E+00 0.  1.
          2   -1    0    0  501    0  0.00000000000E+00 -0.00000000000E+00 -0.19985293932E+03  0.19985293932E+03  0.00000000000E+00 0. -1.
         25    2    1    2    0    0 -0.64350333659E+02 -0.32934578001E+02 -0.13956335251E+03  0.20087593500E+03  0.12509020757E+03 0.  0.
          5    1    3    3  502    0 -0.17259878529E+02  0.71827847311E+01 -0.13751094938E+03  0.13883886129E+03  0.41800000000E+01 0. -1.
         -5    1    3    3    0  502 -0.47090455131E+02 -0.40117362733E+02 -0.20524031318E+01  0.62037073719E+02  0.41800000000E+01 0. -1.
        -11    1    1    2    0    0  0.67449745756E+02  0.55840598504E+02  0.54154812503E+02  0.10295816802E+03  0.00000000000E+00 0. -1.
         11    1    1    2    0    0 -0.30994120962E+01 -0.22906020503E+02  0.20300261189E+02  0.30763496793E+02  0.00000000000E+00 0.  1.
</event>
<event>
 7    1  0.2394257E-009  0.1175706E+03  0.7561462E-02  0.1247159E+00
         -4   -1    0    0    0  501 -0.00000000000E+00  0.00000000000E+00  0.47428288816E+03  0.47428288816E+03  0.00000000000E+00 0.  1.
          4   -1    0    0  501    0  0.00000000000E+00 -0.00000000000E+00 -0.40695958037E+02  0.40695958037E+02  0.00000000000E+00 0. -1.
         25    2    1    2    0    0 -0.60945102178E+01 -0.81669351146E+02  0.18061375008E+03  0.23446953796E+03  0.12509041348E+03 0.  0.
          5    1    3    3  502    0 -0.29383096535E+01 -0.10228697184E+03  0.18617245330E+03  0.21248273586E+03  0.41800000000E+01 0.  1.
         -5    1    3    3    0  502 -0.31562005643E+01  0.20617620697E+02 -0.55587032208E+01  0.21986802103E+02  0.41800000000E+01 0.  1.
        -11    1    1    2    0    0  0.37601485683E+02  0.20941897861E+02  0.15602421835E+03  0.16185175786E+03  0.00000000000E+00 0.  1.
         11    1    1    2    0    0 -0.31506975465E+02  0.60727453284E+02  0.96948961694E+02  0.11865755037E+03  0.00000000000E+00 0. -1.
</event>
<event>
 7    1  0.2394257E-009  0.1147561E+03  0.7561462E-02  0.1252008E+00
          1   -1    0    0  501    0  0.00000000000E+00  0.00000000000E+00  0.15158616353E+03  0.15158616353E+03  0.00000000000E+00 0. -1.
         -1   -1    0    0    0  501 -0.00000000000E+00 -0.00000000000E+00 -0.12264471413E+03  0.12264471413E+03  0.00000000000E+00 0.  1.
         25    2    1    2    0    0  0.65948093921E+02 -0.35336500926E+02 -0.21194373370E+02  0.14728780150E+03  0.12508667242E+03 0.  0.
          5    1    3    3  502    0 -0.34316222991E+01 -0.45951122654E+02 -0.52796190194E+02  0.70201081215E+02  0.41800000000E+01 0.  1.
         -5    1    3    3    0  502  0.69379716220E+02  0.10614621728E+02  0.31601816824E+02  0.77086720282E+02  0.41800000000E+01 0.  1.
        -11    1    1    2    0    0  0.15170796077E+02  0.27537042608E+02  0.34150458105E+00  0.31441348486E+02  0.00000000000E+00 0.  1.
         11    1    1    2    0    0 -0.81118889998E+02  0.77994583173E+01  0.49794318194E+02  0.95501727675E+02  0.00000000000E+00 0. -1.
</event>
<event>
 7    1  0.2394257E-009  0.7771932E+02  0.7561462E-02  0.1335651E+00
         -2   -1    0    0    0  501 -0.00000000000E+00  0.00000000000E+00  0.12179922287E+03  0.12179922287E+03  0.00000000000E+00 0.  1.
          2   -1    0    0  501    0  0.00000000000E+00 -0.00000000000E+00 -0.25006971810E+03  0.25006971810E+03  0.00000000000E+00 0. -1.
         25    2    1    2    0    0  0.20363026899E+02  0.46659214133E+02 -0.20168679402E+03  0.24273073351E+03  0.12509560735E+03 0.  0.
          5    1    3    3  502    0  0.24947933136E+02 -0.10612646159E+02 -0.17856009650E+03  0.18065494205E+03  0.41800000000E+01 0. -1.
         -5    1    3    3    0  502 -0.45849062364E+01  0.57271860292E+02 -0.23126697522E+02  0.62075791455E+02  0.41800000000E+01 0. -1.
        -11    1    1    2    0    0 -0.32887609901E+02 -0.47581890433E+02  0.90820906219E+02  0.10767575488E+03  0.00000000000E+00 0.  1.
         11    1    1    2    0    0  0.12524583002E+02  0.92267630040E+00 -0.17404607436E+02  0.21462452584E+02  0.00000000000E+00 0. -1.
</event>
<event>
 7    1  0.2394257E-009  0.2098120E+03  0.7561462E-02  0.1141715E+00
         -2   -1    0    0    0  501 -0.00000000000E+00  0.00000000000E+00  0.20628195234E+03  0.20628195234E+03  0.00000000000E+00 0.  1.
          2   -1    0    0  501    0  0.00000000000E+00 -0.00000000000E+00 -0.32620133963E+03  0.32620133963E+03  0.00000000000E+00 0. -1.
         25    2    1    2    0    0 -0.18201876056E+03 -0.65818910936E+02 -0.19923161911E+03  0.30463628564E+03  0.12508824982E+03 0.  0.
          5    1    3    3  502    0 -0.88140941573E+02  0.23034389673E+02 -0.40218741874E+02  0.99671602209E+02  0.41800000000E+01 0. -1.
         -5    1    3    3    0  502 -0.93877818985E+02 -0.88853300609E+02 -0.15901287724E+03  0.20496468343E+03  0.41800000000E+01 0. -1.
        -11    1    1    2    0    0  0.14811203345E+03  0.71918160863E+02  0.29483319026E+02  0.16726823493E+03  0.00000000000E+00 0.  1.
         11    1    1    2    0    0  0.33906727104E+02 -0.60992499271E+01  0.49828912797E+02  0.60578771390E+02  0.00000000000E+00 0. -1.
</event>
<event>
 7    1  0.2394257E-009  0.3197848E+03  0.7561462E-02  0.1075748E+00
         -2   -1    0    0    0  501 -0.00000000000E+00  0.00000000000E+00  0.10089517874E+03  0.10089517874E+03  0.00000000000E+00 0. -1.
          2   -1    0    0  501    0  0.00000000000E+00 -0.00000000000E+00 -0.12420544012E+04  0.12420544012E+04  0.00000000000E+00 0.  1.
         25    2    1    2    0    0  0.16591674468E+03  0.26803454085E+03 -0.81967871631E+03  0.88706917795E+03  0.12509055619E+03 0.  0.
          5    1    3    3  502    0  0.47884442770E+02  0.14256345303E+03 -0.52059039632E+03  0.54189398515E+03  0.41800000000E+01 0. -1.
         -5    1    3    3    0  502  0.11803230191E+03  0.12547108782E+03 -0.29908831999E+03  0.34517519280E+03  0.41800000000E+01 0. -1.
        -11    1    1    2    0    0 -0.37182846977E+02 -0.87521973241E+02 -0.14062191001E+03  0.16975624137E+03  0.00000000000E+00 0.  1.
         11    1    1    2    0    0 -0.12873389770E+03 -0.18051256761E+03 -0.18085859611E+03  0.28612416058E+03  0.00000000000E+00 0. -1.
</event>
<event>
 7    1  0.2394257E-009  0.6977207E+02  0.7561462E-02  0.1360870E+00
         -1   -1    0    0    0  501 -0.00000000000E+00  0.00000000000E+00  0.93513570298E+03  0.93513570298E+03  0.00000000000E+00 0.  1.
          1   -1    0    0  501    0  0.00000000000E+00 -0.00000000000E+00 -0.12996811216E+02  0.12996811216E+02  0.00000000000E+00 0. -1.
         25    2    1    2    0    0 -0.79497448951E+01  0.16976909431E+02  0.55312576727E+03  0.56740257908E+03  0.12508460508E+03 0.  0.
          5    1    3    3  502    0 -0.21938194775E+02 -0.41260344064E+01  0.12032918755E+02  0.25701596909E+02  0.41800000000E+01 0. -1.
         -5    1    3    3    0  502  0.13988449880E+02  0.21102943838E+02  0.54109284852E+03  0.54170098217E+03  0.41800000000E+01 0. -1.
        -11    1    1    2    0    0 -0.37786717631E+02  0.86240314028E+01  0.11469261020E+03  0.12106446540E+03  0.00000000000E+00 0. -1.
         11    1    1    2    0    0  0.45736462526E+02 -0.25600940834E+02  0.25432051429E+03  0.25966546972E+03  0.00000000000E+00 0.  1.
</event>
<event>
 7    1  0.2394257E-009  0.7333606E+02  0.7561462E-02  0.1349103E+00
         -1   -1    0    0    0  501 -0.00000000000E+00  0.00000000000E+00  0.52404138491E+02  0.52404138491E+02  0.00000000000E+00 0.  1.
          1   -1    0    0  501    0  0.00000000000E+00 -0.00000000000E+00 -0.25420003676E+03  0.25420003676E+03  0.00000000000E+00 0. -1.
         25    2    1    2    0    0  0.15995692515E+02  0.26627186796E+02 -0.15238500066E+03  0.19958176496E+03  0.12508726243E+03 0.  0.
          5    1    3    3  502    0  0.32092051806E+02  0.51203748082E+02 -0.19816948452E+02  0.63733095427E+02  0.41800000000E+01 0.  1.
         -5    1    3    3    0  502 -0.16096359291E+02 -0.24576561287E+02 -0.13256805221E+03  0.13584866953E+03  0.41800000000E+01 0.  1.
        -11    1    1    2    0    0 -0.74644989627E+01 -0.39929299349E+02  0.12993242201E+02  0.42648470478E+02  0.00000000000E+00 0.  1.
         11    1    1    2    0    0 -0.85311935523E+01  0.13302112553E+02 -0.62404139804E+02  0.64373939809E+02  0.00000000000E+00 0. -1.
</event>
<event>
 7    1  0.2394257E-009  0.3068246E+03  0.7561462E-02  0.1081878E+00
          1   -1    0    0  501    0  0.00000000000E+00  0.00000000000E+00  0.48989985341E+03  0.48989985341E+03  0.00000000000E+00 0. -1.
         -1   -1    0    0    0  501 -0.00000000000E+00 -0.00000000000E+00 -0.31014883238E+03  0.31014883238E+03  0.00000000000E+00 0.  1.
         25    2    1    2    0    0 -0.10695611258E+03  0.27753333423E+03 -0.14525326528E+03  0.35384986340E+03  0.12508738196E+03 0.  0.
          5    1    3    3  502    0 -0.66661261022E+02  0.67395387630E+02 -0.94479697645E+02  0.13390200768E+03  0.41800000000E+01 0.  1.
         -5    1    3    3    0  502 -0.40294851562E+02  0.21013794660E+03 -0.50773567636E+02  0.21994785572E+03  0.41800000000E+01 0.  1.
        -11    1    1    2    0    0  0.89912109724E+02 -0.14143688417E+03  0.16100142655E+03  0.23240060032E+03  0.00000000000E+00 0.  1.
         11    1    1    2    0    0  0.17044002860E+02 -0.13609645006E+03  0.16400285976E+03  0.21379822207E+03  0.00000000000E+00 0. -1.
</event>
<event>
 7    1  0.2394257E-009  0.1455291E+03  0.7561462E-02  0.1206077E+00
         -2   -1    0    0    0  501 -0.00000000000E+00  0.00000000000E+00  0.38659237677E+03  0.38659237677E+03  0.00000000000E+00 0.  1.
          2   -1    0    0  501    0  0.00000000000E+00 -0.00000000000E+00 -0.68867291408E+02  0.68867291408E+02  0.00000000000E+00 0. -1.
         25    2    1    2    0    0  0.11835923036E+03 -0.15061864150E+02  0.15290399536E+03  0.23079063038E+03  0.12509562785E+03 0.  0.
          5    1    3    3  502    0  0.72282244913E+02 -0.44268489161E+02  0.15425725910E+03  0.17606020688E+03  0.41800000000E+01 0. -1.
         -5    1    3    3    0  502  0.46076985452E+02  0.29206625011E+02 -0.13532637392E+01  0.54730423492E+02  0.41800000000E+01 0. -1.
        -11    1    1    2    0    0 -0.33500125027E+02 -0.38575248666E+02  0.69292341766E+02  0.86091444487E+02  0.00000000000E+00 0.  1.
         11    1    1    2    0    0 -0.84859105337E+02  0.53637112816E+02  0.95528748229E+02  0.13857759331E+03  0.00000000000E+00 0. -1.
</event>
<event>
 7    1  0.2394257E-009  0.1930935E+03  0.7561462E-02  0.1155700E+00
         -1   -1    0    0    0  501 -0.00000000000E+00  0.00000000000E+00  0.20233600857E+03  0.20233600857E+03  0.00000000000E+00 0.  1.
          1   -1    0    0  501    0  0.00000000000E+00 -0.00000000000E+00 -0.23313517583E+03  0.23313517583E+03  0.00000000000E+00 0. -1.
         25    2    1    2    0    0  0.17131010059E+03  0.17397846645E+02 -0.89776314810E+02  0.23098965852E+03  0.12508637021E+03 0.  0.
          5    1    3    3  502    0 -0.14489737798E+02  0.11284023856E+02 -0.30455783775E+02  0.35809340418E+02  0.41800000000E+01 0. -1.
         -5    1    3    3    0  502  0.18579983839E+03  0.61138227895E+01 -0.59320531036E+02  0.19518031810E+03  0.41800000000E+01 0. -1.
        -11    1    1    2    0    0 -0.78951856385E+02 -0.36677907464E+02  0.66912009018E+02  0.10979927811E+03  0.00000000000E+00 0.  1.
         11    1    1    2    0    0 -0.92358244202E+02  0.19280060818E+02 -0.79348614657E+01  0.94682247775E+02  0.00000000000E+00 0. -1.
</event>
<event>
 7    1  0.2394257E-009  0.7472648E+02  0.7561462E-02  0.1344720E+00
         -2   -1    0    0    0  501 -0.00000000000E+00  0.00000000000E+00  0.38715565515E+02  0.38715565515E+02  0.00000000000E+00 0.  1.
          2   -1    0    0  501    0  0.00000000000E+00 -0.00000000000E+00 -0.40736002799E+03  0.40736002799E+03  0.00000000000E+00 0. -1.
         25    2    1    2    0    0 -0.50323215739E+02 -0.17126981629E+02 -0.27292397545E+03  0.30489386800E+03  0.12508802831E+03 0.  0.
          5    1    3    3  502    0 -0.59853318426E+02 -0.82576883607E+01 -0.28203401906E+03  0.28846363627E+03  0.41800000000E+01 0.  1.
         -5    1    3    3    0  502  0.95301026872E+01 -0.88692932684E+01  0.91100436046E+01  0.16430231733E+02  0.41800000000E+01 0.  1.
        -11    1    1    2    0    0 -0.81639576553E+00  0.23647264109E+02  0.83096995473E+01  0.25078092201E+02  0.00000000000E+00 0.  1.
         11    1    1    2    0    0  0.51139611505E+02 -0.65202824799E+01 -0.10403018657E+03  0.11610363330E+03  0.00000000000E+00 0. -1.
</event>
<event>
 7    1  0.2394257E-009  0.8740493E+02  0.7561462E-02  0.1309261E+00
          2   -1    0    0  501    0  0.00000000000E+00  0.00000000000E+00  0.21186569312E+03  0.21186569312E+03  0.00000000000E+00 0. -1.
         -2   -1    0    0    0  501 -0.00000000000E+00 -0.00000000000E+00 -0.71975681437E+02  0.71975681437E+02  0.00000000000E+00 0.  1.
         25    2    1    2    0    0 -0.46595814686E+02  0.31904174739E+02  0.98506628242E+02  0.16893893001E+03  0.12509100668E+03 0.  0.
          5    1    3    3  502    0  0.43946794353E+00  0.61859805653E+02  0.94303669867E+02  0.11286045914E+03  0.41800000000E+01 0. -1.
         -5    1    3    3    0  502 -0.47035282630E+02 -0.29955630914E+02  0.42029583755E+01  0.56078470866E+02  0.41800000000E+01 0. -1.
        -11    1    1    2    0    0  0.34470206472E+02 -0.27086042859E+02  0.70487126058E+02  0.83007733326E+02  0.00000000000E+00 0. -1.
         11    1    1    2    0    0  0.12125608214E+02 -0.48181318806E+01 -0.29103742620E+02  0.31894711221E+02  0.00000000000E+00 0.  1.
</event>
<event>
 7    1  0.2394257E-009  0.1020493E+03  0.7561462E-02  0.1276045E+00
         -1   -1    0    0    0  501 -0.00000000000E+00  0.00000000000E+00  0.79252334929E+02  0.79252334929E+02  0.00000000000E+00 0.  1.
          1   -1    0    0  501    0  0.00000000000E+00 -0.00000000000E+00 -0.17609991265E+03  0.17609991265E+03  0.00000000000E+00 0. -1.
         25    2    1    2    0    0  0.13836753565E+02  0.39641694035E+02 -0.44904285651E+02  0.13938519049E+03  0.12509563063E+03 0.  0.
          5    1    3    3  502    0 -0.42825224382E+01 -0.37500593028E+02  0.14091618204E+02  0.40505315447E+02  0.41800000000E+01 0.  1.
         -5    1    3    3    0  502  0.18119276003E+02  0.77142287063E+02 -0.58995903855E+02  0.98879875040E+02  0.41800000000E+01 0.  1.
        -11    1    1    2    0    0 -0.44908147513E+02 -0.30839169625E+02 -0.61625502467E+02  0.82252651328E+02  0.00000000000E+00 0. -1.
         11    1    1    2    0    0  0.31071393948E+02 -0.88025244098E+01  0.96822103972E+01  0.33714405764E+02  0.00000000000E+00 0.  1.
</event>
<event>
 7    1  0.2394257E-009  0.9464935E+02  0.7561462E-02  0.1291968E+00
          3   -1    0    0  501    0  0.00000000000E+00  0.00000000000E+00  0.44835940438E+03  0.44835940438E+03  0.00000000000E+00 0.  1.
         -3   -1    0    0    0  501 -0.00000000000E+00 -0.00000000000E+00 -0.28826021230E+02  0.28826021230E+02  0.00000000000E+00 0. -1.
         25    2    1    2    0    0 -0.34432501379E+01  0.26757662509E+01  0.31110441951E+03  0.33533992444E+03  0.12509152406E+03 0.  0.
          5    1    3    3  502    0 -0.22643344635E+02 -0.45201853955E+02  0.58247072923E+02  0.77240679447E+02  0.41800000000E+01 0.  1.
         -5    1    3    3    0  502  0.19200094498E+02  0.47877620206E+02  0.25285734658E+03  0.25809924499E+03  0.41800000000E+01 0.  1.
        -11    1    1    2    0    0 -0.39358549306E+02  0.12669498333E+02  0.29626770671E+02  0.50866070537E+02  0.00000000000E+00 0. -1.
         11    1    1    2    0    0  0.42801799444E+02 -0.15345264584E+02  0.78802192972E+02  0.90979430631E+02  0.00000000000E+00 0.  1.
</event>
<event>
 7    1  0.2394257E-009  0.1202786E+03  0.7561462E-02  0.1242638E+00
          3   -1    0    0  501    0  0.00000000000E+00  0.00000000000E+00  0.10173597866E+03  0.10173597866E+03  0.00000000000E+00 0. -1.
         -3   -1    0    0    0  501 -0.00000000000E+00 -0.00000000000E+00 -0.23491737876E+03  0.23491737876E+03  0.00000000000E+00 0.  1.
         25    2    1    2    0    0 -0.47700107169E+02 -0.97568947750E+02 -0.88920095451E+02  0.18801662054E+03  0.12509383052E+03 0.  0.
          5    1    3    3  502    0 -0.22897736559E+02 -0.80371542727E+02 -0.11882100746E+03  0.14532651318E+03  0.41800000000E+01 0. -1.
         -5    1    3    3    0  502 -0.24802370610E+02 -0.17197405023E+02  0.29900912005E+02  0.42690107357E+02  0.41800000000E+01 0. -1.
        -11    1    1    2    0    0  0.44306153469E+01 -0.97449555512E+01  0.15162770842E+02  0.18560822467E+02  0.00000000000E+00 0. -1.
         11    1    1    2    0    0  0.43269491822E+02  0.10731390330E+03 -0.59424075496E+02  0.13007591442E+03  0.00000000000E+00 0.  1.
</event>
<event>
 7    1  0.2394257E-009  0.1141334E+03  0.7561462E-02  0.1253101E+00
         -1   -1    0    0    0  501 -0.00000000000E+00  0.00000000000E+00  0.46321629928E+02  0.46321629928E+02  0.00000000000E+00 0.  1.
          1   -1    0    0  501    0  0.00000000000E+00 -0.00000000000E+00 -0.29403920765E+03  0.29403920765E+03  0.00000000000E+00 0. -1.
         25    2    1    2    0    0  0.16303699097E+02  0.64240024277E+02 -0.17392715164E+03  0.22425346615E+03  0.12508545751E+03 0.  0.
          5    1    3    3  502    0 -0.17859684904E+02 -0.31957817057E+02 -0.28788760205E+02  0.46760405580E+02  0.41800000000E+01 0. -1.
         -5    1    3    3    0  502  0.34163384001E+02  0.96197841333E+02 -0.14513839143E+03  0.17749306057E+03  0.41800000000E+01 0. -1.
        -11    1    1    2    0    0 -0.37993069243E+02 -0.28702687256E+02 -0.44768317841E+02  0.65356865352E+02  0.00000000000E+00 0. -1.
         11    1    1    2    0    0  0.21689370147E+02 -0.35537337020E+02 -0.29022108246E+02  0.50750506075E+02  0.00000000000E+00 0.  1.
</event>
<event>
 7    1  0.2394257E-009  0.1094062E+03  0.7561462E-02  0.1261673E+00
         -1   -1    0    0    0  501 -0.00000000000E+00  0.00000000000E+00  0.35464315046E+02  0.35464315046E+02  0.00000000000E+00 0.  1.
          1   -1    0    0  501    0  0.00000000000E+00 -0.00000000000E+00 -0.38598362574E+03  0.38598362574E+03  0.00000000000E+00 0. -1.
         25    2    1    2    0    0  0.33636833286E+02  0.25443429893E+02 -0.20977831920E+03  0.24785717169E+03  0.12508968652E+03 0.  0.
          5    1    3    3  502    0  0.10301850242E+02  0.71708083350E+02 -0.79751766103E+02  0.10782390242E+03  0.41800000000E+01 0. -1.
         -5    1    3    3    0  502  0.23334983044E+02 -0.46264653457E+02 -0.13002655310E+03  0.14003326928E+03  0.41800000000E+01 0. -1.
        -11    1    1    2    0    0 -0.57867292827E+02 -0.35653605152E+02 -0.12670689653E+03  0.14378609379E+03  0.00000000000E+00 0. -1.
         11    1    1    2    0    0  0.24230459541E+02  0.10210175258E+02 -0.14034094960E+02  0.29804675300E+02  0.00000000000E+00 0.  1.
</event>
<event>
 7    1  0.2394257E-009  0.1118243E+03  0.7561462E-02  0.1257228E+00
          1   -1    0    0  501    0  0.00000000000E+00  0.00000000000E+00  0.79054755393E+03  0.79054755393E+03  0.00000000000E+00 0. -1.
         -1   -1    0    0    0  501 -0.00000000000E+00 -0.00000000000E+00 -0.17238734785E+02  0.17238734785E+02  0.00000000000E+00 0.  1.
         25    2    1    2    0    0 -0.11759203271E+02  0.29243302803E+02  0.54199821700E+03  0.55713915368E+03  0.12509404346E+03 0.  0.
          5    1    3    3  502    0 -0.32498652798E+02  0.72512536380E+02  0.29855124163E+03  0.30897337531E+03  0.41800000000E+01 0. -1.
         -5    1    3    3    0  502  0.20739449528E+02 -0.43269233577E+02  0.24344697536E+03  0.24816577837E+03  0.41800000000E+01 0. -1.
        -11    1    1    2    0    0 -0.39368347421E+02 -0.19226600541E+02  0.91605805826E+02  0.10154384574E+03  0.00000000000E+00 0. -1.
         11    1    1    2    0    0  0.51127550691E+02 -0.10016702262E+02  0.13970479632E+03  0.14910328930E+03  0.00000000000E+00 0.  1.
</event>
<event>
 7    1  0.2394257E-009  0.1054218E+03  0.7561462E-02  0.1269291E+00
         -2   -1    0    0    0  501 -0.00000000000E+00  0.00000000000E+00  0.21902794314E+02  0.21902794314E+02  0.00000000000E+00 0.  1.
          2   -1    0    0  501    0  0.00000000000E+00 -0.00000000000E+00 -0.56688357513E+03  0.56688357513E+03  0.00000000000E+00 0. -1.
         25    2    1    2    0    0  0.17088831639E+02  0.26471949880E+02 -0.30876891933E+03  0.33463231238E+03  0.12509095349E+03 0.  0.
          5    1    3    3  502    0  0.36957824033E+02  0.67053627857E+02 -0.13729745470E+03  0.15725817382E+03  0.41800000000E+01 0. -1.
         -5    1    3    3    0  502 -0.19868992394E+02 -0.40581677977E+02 -0.17147146463E+03  0.17737413856E+03  0.41800000000E+01 0. -1.
        -11    1    1    2    0    0  0.23551641687E+02 -0.39604586445E+02 -0.81167582562E+02  0.93334771401E+02  0.00000000000E+00 0. -1.
         11    1    1    2    0    0 -0.40640473326E+02  0.13132636565E+02 -0.15504427892E+03  0.16081928566E+03  0.00000000000E+00 0.  1.
</event>
<event>
 7    1  0.2394257E-009  0.4465604E+03  0.7561462E-02  0.1028753E+00
         -1   -1    0    0    0  501 -0.00000000000E+00  0.00000000000E+00  0.34850449440E+03  0.34850449440E+03  0.00000000000E+00 0.  1.
          1   -1    0    0  501    0  0.00000000000E+00 -0.00000000000E+00 -0.65158231735E+03  0.65158231735E+03  0.00000000000E+00 0. -1.
         25    2    1    2    0    0 -0.38231678636E+03  0.21508841331E+03  0.48151320035E+01  0.45618026195E+03  0.12509234678E+03 0.  0.
          5    1    3    3  502    0 -0.16946249912E+03  0.30018993856E+02  0.22080409438E+02  0.17356179153E+03  0.41800000000E+01 0.  1.
         -5    1    3    3    0  502 -0.21285428724E+03  0.18506941946E+03 -0.17265277435E+02  0.28261847042E+03  0.41800000000E+01 0.  1.
        -11    1    1    2    0    0  0.33517749487E+03 -0.19360361688E+03 -0.22966446202E+03  0.45008008027E+03  0.00000000000E+00 0.  1.
         11    1    1    2    0    0  0.47139291483E+02 -0.21484796435E+02 -0.78228492932E+02  0.93826469537E+02  0.00000000000E+00 0. -1.
</event>
